,compound,flashpoint,pure substance,smiles,source
101,"N,N-bis(2-chloroethyl)-2-oxo-1,3,2λ5-oxazaphosphinan-2-amine",386.15,1,C1CNP(=O)(OC1)N(CCCl)CCCl,pubchem
109,diethoxyphosphinothioylsulfanylmethylsulfanyl-diethoxy-sulfanylidene-λ5-phosphane,449.15,1,CCOP(=S)(OCC)SCSP(=S)(OCC)OCC,pubchem
1285,diethoxy-(2-ethylsulfanylethoxy)-sulfanylidene-λ5-phosphane;1-diethoxyphosphorylsulfanyl-2-ethylsulfanylethane,318.15,1,CCOP(=O)(OCC)SCCSCC.CCOP(=S)(OCC)OCCSCC,pubchem
1407,dichloro-ethyl-sulfanylidene-λ5-phosphane,368.15,1,CCP(=S)(Cl)Cl,pubchem
1631,λ1-boranyl-[[[[[[(λ1-boranyl-λ2-boranyl)-λ2-boranyl]-λ2-boranyl]-λ2-boranyl]-λ2-boranyl]-λ2-boranyl]-λ2-boranyl]boron,353.15,1,[B][B][B][B][B][B][B][B][B][B],pubchem
1682,ethoxy-(4-nitrophenoxy)-phenyl-sulfanylidene-λ5-phosphane,303.15,1,CCOP(=S)(C1=CC=CC=C1)OC2=CC=C(C=C2)[N+](=O)[O-],pubchem
1702,zinc;bis(6-methylheptoxy)-sulfanylidene-sulfido-λ5-phosphane,433.15,1,CC(C)CCCCCOP(=S)(OCCCCCC(C)C)[S-].CC(C)CCCCCOP(=S)(OCCCCCC(C)C)[S-].[Zn+2],pubchem
14833,Ethyl ,545.25,1,[CH2]C,le15
14869,2-tert -butyltoluene,334.6,1,Cc1ccccc1C(C)(C)C,godinho11
14874,1-sec -butyl-3-methylbenzene,336.2,1,CCC(C)c1cccc(C)c1,godinho11
14877,"1,4-dimethyl-2-isopropylbenzene",337.8,1,Cc1ccc(C)c(C(C)C)c1,godinho11
14878,1-sec -butyl-4-methylbenzene,338.0,1,CCC(C)c1ccc(C)cc1,godinho11
14886,"1,2-dimethyl-4-isopropylbenzene",341.2,1,Cc1ccc(C(C)C)cc1C,godinho11
14894,1-butyl-2-methylbenzene,345.6,1,CCCCc1ccccc1C,godinho11
14903,"(2,4-dimethylpentyl)benzene",360.1,1,CC(C)CC(C)Cc1ccccc1,godinho11
14908,"1,3-dibutylbenzene",382.4,1,CCCCc1cccc(CCCC)c1,godinho11
15115,piperidine hydrochloride,338.0,1,C1CCNCC1.Cl,katritzky07
15477,diethyl fumarate,364.0,1,CCOC(=O)/C=C/C(=O)OCC,katritzky07
15518,ethylene carbonate,423.0,1,O=C1OCCO1,katritzky07
15622,S-t-butyl thioacetate,306.0,1,CC(=O)SC(C)(C)C,katritzky07
15670,"cis-1,2-dimethylcyclopentane",269.0,1,C[C@H]1CCC[C@H]1C,carroll10
15685,"trans-1,4-dimethylcyclohexane",279.0,1,C[C@H]1CC[C@H](C)CC1,carroll10
15808,"2,3-dimethyl-1-pentene",256.0,1,C=C(C)C(C)CC,carroll10
15873,"4,4-dimethyl-2-pentyne",263.0,1,CC#CC(C)(C)C,carroll10
16169,"1,4-dibromobutan-2-ol",386.15,1,OC(CBr)CCBr,patel10
16175,"(2r)-2,4-dihydroxy-N-(3-hydroxypropyl)-3,3-dimethylbutanamide",386.15,1,CC(C)(CO)[C@@H](O)C(=O)NCCCO,patel10
16199,(1R)-1-(2-furyl)ethanol,383.15,1,C[C@@H](O)c1ccco1,patel10
16221,benzoic acid [4-[(oxo-phenylmethoxy)methyl]cyclohexyl]methyl ester,434.15,1,O=C(OCC1CCC(COC(=O)c2ccccc2)CC1)c1ccccc1,patel10
16224,"3,6-dimethyloct-4-yne-3,6-diol",382.15,1,CCC(C)(O)C#CC(C)(O)CC,patel10
16313,1-isopentyloxy-3-methylbutane,319.15,1,CC(C)CCOCCC(C)C,patel10
16330,4-(4-aminophenoxy)aniline,491.15,1,Nc1ccc(Oc2ccc(N)cc2)cc1,patel10
16366,1-(2-hydroxypropylamino)propan-2-ol,399.15,1,CC(O)CNCC(C)O,patel10
4259,"1,2,3-Trichloropropane",355.15,1,ClCC(Cl)CCl,hazardous materials
4258,"1,2,4-Trichlorobenzene",372.15,1,Clc1ccc(Cl)c(Cl)c1,hazardous materials
4043,"1,2-Dichloropropane",289.15,1,CC(Cl)CCl,hazardous materials
4055,"3,4-Dihydro-2H-pyran",255.15,1,C1=COCCC1,hazardous materials
15369,"3-methyl-1,3-pentadiene",245.0,1,C=CC(C)=CC,katritzky07
4249,"2,2'-Thiodiethanol",433.15,1,OCCSCCO,hazardous materials