compound,flashpoint,pure substance,smiles,source,is_silicon,is_metallic,is_tin
"Benzoic acid, 2,3,5-triiodo-",503.15,1,O=C(O)c1cc(I)cc(I)c1I,le15,0,0,0
"Hexadecanoic acid, octadecyl ester",556.75,1,CCCCCCCCCCCCCCCCCCOC(=O)CCCCCCCCCCCCCCC,le15,0,0,0
"Decanoic acid, nonadecafluoro-",355.85,1,O=C(O)C(F)(F)C(F)(F)C(F)(F)C(F)(F)C(F)(F)C(F)(F)C(F)(F)C(F)(F)C(F)(F)F,le15,0,0,0
"Propanoic acid, 3,3'-thiobis-, didodecyl ester",537.95,1,CCCCCCCCCCCCOC(=O)CCSCCC(=O)OCCCCCCCCCCCC,le15,0,0,0
"1,2-Benzenedicarboxylic acid, ditridecyl ester",547.35,1,CCCCCCCCCCCCCOC(=O)c1ccccc1C(=O)OCCCCCCCCCCCCC,le15,0,0,0
"1,2,4-Benzenetricarboxylic acid, 1,2,4-tris(2-ethylhexyl) ester",511.45,1,CCCCC(CC)COC(=O)c1ccc(C(=O)OCC(CC)CCCC)c(C(=O)OCC(CC)CCCC)c1,le15,0,0,0
"Benzenepropanoic acid, 3-amino-alpha-ethyl-2,4,6-triiodo-",546.95,1,CCC(Cc1c(I)cc(I)c(N)c1I)C(=O)O,le15,0,0,0
"Hydrocinnamic acid, alpha-ethyl-3-hydroxy-2,4,6-triiodo-",504.55,1,CCC(Cc1c(I)cc(I)c(O)c1I)C(=O)O,le15,0,0,0
"Benzoic acid, 3,5-bis(acetylamino)-2,4,6-triiodo-",598.35,1,CC(=O)Nc1c(I)c(NC(C)=O)c(I)c(C(=O)O)c1I,le15,0,0,0
"Benzoic acid, 3-(acetylamino)-2,4,6-triiodo-5-((methylamino)carbonyl)-",541.55,1,CNC(=O)c1c(I)c(NC(C)=O)c(I)c(C(=O)O)c1I,le15,0,0,0
"Benzoic acid, 3-(acetylamino)-5-(acetylmethylamino)-2,4,6-triiodo-",637.45,1,CC(=O)CNc1c(I)c(NC(C)=O)c(I)c(C(=O)O)c1I,le15,0,0,0
"Benzoic acid, 4-(4-acetyl-3-iodophenoxy)-3,5-diiodo-",572.75,1,CC(=O)c1ccc(Oc2c(I)cc(C(=O)O)cc2I)cc1I,le15,0,0,0
"Propanoic acid, 3,3'-thiobis-, dioctadecyl ester",596.85,1,CCCCCCCCCCCCCCCCCCOC(=O)CCSCCC(=O)OCCCCCCCCCCCCCCCCCC,le15,0,0,0
Butyric acid,345.1,1,CCCC(=O)O,didier14,0,0,0
"Butanoic acid, butyl ester",323.1,1,CCCCOC(=O)CCC,didier14,0,0,0
Valeric acid,359.1,1,CCCCC(=O)O,didier14,0,0,0
Heptanoic acid,388.1,1,CCCCCCC(=O)O,didier14,0,0,0
Pimelic acid,423.1,1,O=C(O)CCCCCC(=O)O,didier14,0,0,0
Acetic acid octyl ester,356.1,1,CCCCCCCCOC(C)=O,didier14,0,0,0
Octanoic acid,400.1,1,CCCCCCCC(=O)O,didier14,0,0,0
Hexanoic acid,375.1,1,CCCCCC(=O)O,didier14,0,0,0
Lauric acid,437,1,CCCCCCCCCCCC(=O)O,didier14,0,0,0
"Hexanoicacid, 2-ethyl-",383.1,1,CCCCC(CC)C(=O)O,didier14,0,0,0
Decanoic acid,421.1,1,CCCCCCCCCC(=O)O,didier14,0,0,0
Stearic acid,469,1,CCCCCCCCCCCCCCCCCC(=O)O,didier14,0,0,0
"2,2-Dimethylbutyric acid",352.1,1,CCC(C)(C)C(=O)O,didier14,0,0,0
Benzoic acid,394.3,1,O=C(O)c1ccccc1,didier14,0,0,0
2methylvalericacid,364.25,1,CCCC(C)C(=O)O,le15,0,0,0
"3,3dimethylbutanoicacid",361,1,CC(C)(C)CC(=O)O,le15,0,0,0
3ethoxypropionicacid,380.35,1,CCOCCC(=O)O,le15,0,0,0
Aceticacid,312.15,1,CC(=O)O,le15,0,0,0
Acrylicacid,327.15,1,C=CC(=O)O,le15,0,0,0
Butyricacid,350.15,1,CCCC(=O)O,le15,0,0,0
Heptanoicacid,385.15,1,CCCCCCC(=O)O,le15,0,0,0
Hexanoicacid,377.15,1,CCCCCC(=O)O,le15,0,0,0
Isobutyricacid,328.75,1,CC(C)C(=O)O,le15,0,0,0
acrylic acid,327,1,C=CC(=O)O,katritzky07,0,0,0
propionic acid,324,1,CCC(=O)O,katritzky07,0,0,0
crotonic acid,361,1,C/C=C/C(=O)O,katritzky07,0,0,0
n-butyric acid,342,1,CCCC(=O)O,katritzky07,0,0,0
isobutyric acid,328,1,CC(C)C(=O)O,katritzky07,0,0,0
1-butanecarboxylic acid,359,1,CCCCC(=O)O,katritzky07,0,0,0
2-ethylbutyric acid,360,1,CCC(CC)C(=O)O,katritzky07,0,0,0
hexanoic acid,375,1,CCCCCC(=O)O,katritzky07,0,0,0
benzoic acid,394,1,O=C(O)c1ccccc1,katritzky07,0,0,0
stearic acid,469,1,CCCCCCCCCCCCCCCCCC(=O)O,katritzky07,0,0,0
isovaleric acid,343,1,CC(C)CC(=O)O,katritzky07,0,0,0
2-methyl-propanoic acid,329,1,CC(C)C(=O)O,katritzky07,0,0,0
"2-propenoic acid, butyl ester",310,1,C=CC(=O)OCCCC,katritzky07,0,0,0
"3,3-dimethylbutanoic acid",361,1,CC(C)(C)CC(=O)O,katritzky07,0,0,0
3-methylbutanoic acid,347,1,CC(C)CC(=O)O,katritzky07,0,0,0
3-oxobutanoic acid ethyl ester,343,1,CCOC(=O)CC(C)=O,katritzky07,0,0,0
acetic acid ethenyl ester,265,1,C=COC(C)=O,katritzky07,0,0,0
"acetic acid, 1,1-dimethylethyl ester",289,1,CC(=O)OC(C)(C)C,katritzky07,0,0,0
butanoic acid,345,1,CCCC(=O)O,katritzky07,0,0,0
"carbonochloridic acid, ethyl ester",289,1,CCOC(=O)Cl,katritzky07,0,0,0
ethanoic acid,312,1,CC(=O)O,katritzky07,0,0,0
formic acid,342,1,O=CO,katritzky07,0,0,0
heptanoic acid,385,1,CCCCCCC(=O)O,katritzky07,0,0,0
octanoic acid,383,1,CCCCCCCC(=O)O,katritzky07,0,0,0
pentanoic acid,359,1,CCCCC(=O)O,katritzky07,0,0,0
pivalic acid,337,1,CC(C)(C)C(=O)O,katritzky07,0,0,0
propanoic acid,327,1,CCC(=O)O,katritzky07,0,0,0
"2-methylpropanoic acid (3-hydroxy-2,2,4-trimethylpentyl) ester",393.15,1,CC(C)C(=O)OCC(C)(C)C(O)C(C)C,patel10,0,0,0
benzoic acid [4-[(oxo-phenylmethoxy)methyl]cyclohexyl]methyl ester,434.15,1,O=C(OCC1CCC(COC(=O)c2ccccc2)CC1)c1ccccc1,patel10,0,0,0