,Unnamed: 0,compound,flashpoint,pure substance,smiles,source
13027,13447,1-Chlorobutane,262.1,1.0,CCCCCl,carroll15
13028,13448,1-Chloro-3-methylbutane,289.2,1.0,CC(C)CCCl,carroll15
13029,13449,1-Chloro-2-methylbutane,283.0,1.0,CCC(C)CCl,carroll15
13030,13450,1-Chloropentane,284.3,1.0,CCCCCCl,carroll15
13031,13451,"1-Chloro-3,3-dimethylbutane",292.2,1.0,CC(C)(C)CCCl,carroll15
13032,13452,"1-Chloro-2,2-dimethylbutane",292.2,1.0,CCC(C)(C)CCl,carroll15
13033,13453,3-(Chloromethyl)pentane,298.2,1.0,CCC(CC)CCl,carroll15
13034,13454,1-Chloro-2-ethylbutane,298.2,1.0,CCC(CC)CCl,carroll15
13035,13455,1-Chloro-2-methylpentane,298.2,1.0,CCCC(C)CCl,carroll15
13036,13456,1-Chloro-3-methylpentane,298.2,1.0,CCC(C)CCCl,carroll15
13037,13457,1-Chlorohexane,299.9,1.0,CCCCCCCl,carroll15
13038,13458,1-Chloro-3-methylhexane,312.4,1.0,CCCC(C)CCCl,carroll15
13039,13459,1-Chloroheptane,314.9,1.0,CCCCCCCCl,carroll15
13040,13460,1-Chloro-5-methylheptane,325.7,1.0,CCC(C)CCCCCl,carroll15
13041,13461,1-Chlorooctane,334.2,1.0,CCCCCCCCCl,carroll15
13042,13462,1-Chlorodecane,356.2,1.0,CCCCCCCCCCCl,carroll15
13043,13463,1-Chloroundecane,367.6,1.0,CCCCCCCCCCCCl,carroll15
13044,13464,1-Chlorododecane,377.7,1.0,CCCCCCCCCCCCCl,carroll15
13045,13465,1-Chlorotetradecane,403.2,1.0,CCCCCCCCCCCCCCCl,carroll15
13046,13466,1-Chlorohexadecane,411.3,1.0,CCCCCCCCCCCCCCCCCl,carroll15
13047,13467,1-Chloroheptadecane,418.4,1.0,CCCCCCCCCCCCCCCCCCl,carroll15
13048,13468,1-Chlorooctadecane,457.2,1.0,CCCCCCCCCCCCCCCCCCCl,carroll15
13049,13469,3-Chloropentane,283.0,1.0,CCC(Cl)CC,carroll15
13050,13470,3-Chloro-2-methylpentane,294.0,1.0,CCC(Cl)C(C)C,carroll15
13051,13471,2-Chloro-4-methylpentane,294.0,1.0,CC(C)CC(C)Cl,carroll15
13052,13472,2-Chlorohexane,298.2,1.0,CCCCC(C)Cl,carroll15
13053,13473,3-Chlorohexane,298.2,1.0,CCCC(Cl)CC,carroll15
13054,13474,2-Chloro-5-methylhexane,308.4,1.0,CC(C)CCC(C)Cl,carroll15
13055,13475,4-Chloroheptane,312.4,1.0,CCCC(Cl)CCC,carroll15
13056,13476,3-Chloroheptane,312.4,1.0,CCCCC(Cl)CC,carroll15
13057,13477,2-Chloroheptane,312.4,1.0,CCCCCC(C)Cl,carroll15
13058,13478,3-Chlorooctane,325.7,1.0,CCCCCC(Cl)CC,carroll15
13059,13479,2-Chlorononane,338.3,1.0,CCCCCCCC(C)Cl,carroll15
13060,13480,5-Chlorononane,338.3,1.0,CCCCC(Cl)CCCC,carroll15
13061,13481,(S)-6-Chloro-2-methylnonane,346.9,1.0,CCC[C@H](Cl)CCCC(C)C,carroll15
13062,13482,2-Chlorodecane,350.2,1.0,CCCCCCCCC(C)Cl,carroll15
13063,13483,2-Chlorododecane,372.7,1.0,CCCCCCCCCCC(C)Cl,carroll15
13064,13484,5-Chlorododecane,372.6,1.0,CCCCCCCC(Cl)CCCC,carroll15
13065,13485,5-Chlorotridecane,383.2,1.0,CCCCCCCCC(Cl)CCCC,carroll15
13066,13486,"2-Chloro-2,3-dimethylbutane",288.1,1.0,CC(C)C(C)(C)Cl,carroll15
13067,13487,3-Chloro-3-methylpentane,282.6,1.0,CCC(C)(Cl)CC,carroll15
13068,13488,2-Chloro-2-methylpentane,294.0,1.0,CCCC(C)(C)Cl,carroll15
13069,13489,"2-Chloro-2,4-dimethylpentane",302.9,1.0,CC(C)CC(C)(C)Cl,carroll15
13070,13490,3-Chloro-3-methylhexane,306.7,1.0,CCCC(C)(Cl)CC,carroll15
13071,13491,"2-Chloro-2,3-dimethylpentane",302.9,1.0,CCC(C)C(C)(C)Cl,carroll15
13072,13492,"2-Chloro-2,3,3-trimethylbutane",297.5,1.0,CC(C)(C)C(C)(C)Cl,carroll15
13073,13493,3-Chloro-3-ethylpentane,306.7,1.0,CCC(Cl)(CC)CC,carroll15
13074,13494,"2-Chloro-2,4,4-trimethylpentane",311.5,1.0,CC(C)(C)CC(C)(C)Cl,carroll15
13075,13495,"3-Chloro-2,3-dimethylhexane",316.7,1.0,CCCC(C)(Cl)C(C)C,carroll15
13076,13496,3-Chloro-3-methylheptane,320.3,1.0,CCCCC(C)(Cl)CC,carroll15
13077,13497,2-Chloro-2-methylheptane,320.3,1.0,CCCCCC(C)(C)Cl,carroll15
13078,13498,"3-Chloro-2,2,3-trimethylhexane",324.8,1.0,CCCC(C)(Cl)C(C)(C)C,carroll15
13079,13499,3-Chloro-3-ethylheptane,333.1,1.0,CCCCC(Cl)(CC)CC,carroll15
13080,13500,3-Chloro-3-methyloctane,333.1,1.0,CCCCCC(C)(Cl)CC,carroll15
13081,13501,"6-Chloro-2,6-dimethyloctane",342.0,1.0,CCC(C)(Cl)CCCC(C)C,carroll15
13082,13502,2-Chloro-2-methylnonane,345.3,1.0,CCCCCCCC(C)(C)Cl,carroll15
13083,13503,3-Chloro-3-methylnonane,345.3,1.0,CCCCCCC(C)(Cl)CC,carroll15
13084,13504,"1-Chloro-2,3-dimethylbutane",294.0,1.0,CC(C)C(C)CCl,carroll15
13085,13505,1-Chloro-4-methylpentane,298.2,1.0,CC(C)CCCCl,carroll15
13086,13506,3-(Chloromethyl)heptane,325.7,1.0,CCCCC(CC)CCl,carroll15
13087,13507,1-Chlorononane,347.2,1.0,CCCCCCCCCCl,carroll15
13088,13508,"1-Chloro-3,7-dimethyloctane",346.9,1.0,CC(C)CCCC(C)CCCl,carroll15
13089,13509,1-Chlorotridecane,387.0,1.0,CCCCCCCCCCCCCCl,carroll15
13090,13510,1-Chloropentadecane,403.8,1.0,CCCCCCCCCCCCCCCCl,carroll15
13091,13511,1-Chloroeicosane,437.2,1.0,CCCCCCCCCCCCCCCCCCCCCl,carroll15
13092,13512,2-Chlorobutane,258.2,1.0,CCC(C)Cl,carroll15
13093,13513,2-Chloro-3-methylbutane,278.6,1.0,CC(C)C(C)Cl,carroll15
13094,13514,2-Chloropentane,274.2,1.0,CCCC(C)Cl,carroll15
13095,13515,"3-Chloro-2,2-dimethylbutane",288.1,1.0,CC(Cl)C(C)(C)C,carroll15
13096,13516,"4-Chloro-2,2-dimethylpentane",302.9,1.0,CC(Cl)CC(C)(C)C,carroll15
13097,13517,2-Chloro-6-methylheptane,322.0,1.0,CC(C)CCCC(C)Cl,carroll15
13098,13518,2-Chlorooctane,325.7,1.0,CCCCCCC(C)Cl,carroll15
13099,13519,5-Chloroundecane,361.7,1.0,CCCCCCC(Cl)CCCC,carroll15
13100,13520,2-Chloro-2-methylbutane,276.5,1.0,CCC(C)(C)Cl,carroll15
13101,13521,"3-Chloro-2,3-dimethylpentane",302.9,1.0,CCC(C)(Cl)C(C)C,carroll15
13102,13522,2-Chloro-2-methylhexane,306.7,1.0,CCCCC(C)(C)Cl,carroll15
13103,13523,"2-Chloro-2,5-dimethylhexane",316.7,1.0,CC(C)CCC(C)(C)Cl,carroll15
13104,13524,4-Chloro-4-methylheptane,320.3,1.0,CCCC(C)(Cl)CCC,carroll15
13105,13525,"3-Chloro-3-ethyl-2,2-dimethylpentane",324.8,1.0,CCC(Cl)(CC)C(C)(C)C,carroll15
13106,13526,2-Chloro-2-methyloctane,333.1,1.0,CCCCCCC(C)(C)Cl,carroll15
13107,13527,4-Chloro-4-methyloctane,333.1,1.0,CCCCC(C)(Cl)CCC,carroll15