,compound,flashpoint,pure substance,smiles,source
0,pentane,233.0,1,CCCCC,carroll11
1,hexane,247.0,1,CCCCCC,carroll11
2,heptane,269.0,1,CCCCCCC,carroll11
3,octane,286.0,1,CCCCCCCC,carroll11
4,nonane,304.0,1,CCCCCCCCC,carroll11
5,decane,319.0,1,CCCCCCCCCC,carroll11
6,undecane,333.0,1,CCCCCCCCCCC,carroll11
7,dodecane,344.0,1,CCCCCCCCCCCC,carroll11
8,tridecane,367.0,1,CCCCCCCCCCCCC,carroll11
9,tetradecane,373.0,1,CCCCCCCCCCCCCC,carroll11
10,pentadecane,388.0,1,CCCCCCCCCCCCCCC,carroll11
11,hexadecane,408.0,1,CCCCCCCCCCCCCCCC,carroll11
12,heptadecane,421.0,1,CCCCCCCCCCCCCCCCC,carroll11
13,2-methylbutane,222.0,1,CC(C)CC,carroll11
14,2-methylpentane,241.0,1,CC(C)CCC,carroll11
15,2-methylheptane,277.0,1,CC(C)CCCCC,carroll11
16,2-methyloctane,297.0,1,CC(C)CCCCCC,carroll11
17,2-methylnonane,311.0,1,CC(C)CCCCCCC,carroll11
18,2-methyldecane,323.0,1,CC(C)CCCCCCCC,carroll11
19,2-methylundecane,334.0,1,CC(C)CCCCCCCCC,carroll11
20,2-methyldodecane,344.0,1,CC(C)CCCCCCCCCC,carroll11
21,cyclopentane,236.0,1,C1CCCC1,carroll11
22,"2,2-dimethylbutane",244.0,1,CC(C)(CC)C,carroll11
23,"2,3-dimethylbutane",244.0,1,CC(C)C(C)C,carroll11
24,methylcyclopentane,250.0,1,CC1CCCC1,carroll11
25,"2,2-dimethylpentane",250.0,1,CC(C)(CCC)C,carroll11
26,"2,2,3-trimethylbutane",249.0,1,CC(C)(C(C)C)C,carroll11
27,"2,4-dimethylpentane",261.0,1,CC(C)CC(C)C,carroll11
28,cyclohexane,255.0,1,C1CCCCC1,carroll11
29,"3,3-dimethylpentane",254.0,1,CC(CC)(CC)C,carroll11
30,"1,1-dimethylcyclopentane",257.0,1,CC1(CCCC1)C,carroll11
31,"2,3-dimethylpentane",258.0,1,CC(C)C(CC)C,carroll11
32,3-methylpentane,241.0,1,CC(CC)CC,carroll11
33,3-methylhexane,258.0,1,CC(CC)CCC,carroll11
34,3-methylheptane,279.0,1,CC(CC)CCCC,carroll11
35,3-methyloctane,297.0,1,CC(CC)CCCCC,carroll11
36,3-methylnonane,314.0,1,CC(CC)CCCCCC,carroll11
37,3-ethylpentane,261.0,1,C(C)C(CC)CC,carroll11
38,"2,2,4-trimethylpentane",266.0,1,CC(C)(CC(C)C)C,carroll11
39,"cis-1,2-dimethylcyclopentane",269.0,1,C[C@H]1[C@H](CCC1)C,carroll11
40,methylcyclohexane,269.0,1,CC1CCCCC1,carroll11
41,ethylcyclopentane,269.0,1,C(C)C1CCCC1,carroll11
42,"2,2-dimethylhexane",270.0,1,CC(C)(CCCC)C,carroll11
43,"2,2,3,3-tetramethylbutane",273.0,1,CC(C)(C(C)(C)C)C,carroll11
44,"2,5-dimethylhexane",271.0,1,CC(C)CCC(C)C,carroll11
45,"2,2,3-trimethylpentane",270.0,1,CC(C)(C(CC)C)C,carroll11
46,"3,3-dimethylhexane",272.0,1,CC(CC)(CCC)C,carroll11
47,"2,3,4-trimethylpentane",273.0,1,CC(C)C(C(C)C)C,carroll11
48,"2,3,3-trimethylpentane",278.0,1,CC(C)C(CC)(C)C,carroll11
49,3-ethyl-2-methylpentane,276.0,1,C(C)C(C(C)C)CC,carroll11
50,"2,3-dimethylhexane",278.0,1,CC(C)C(CCC)C,carroll11
51,"3,4-dimethylhexane",279.0,1,CC(CC)C(CC)C,carroll11
52,4-methylheptane,278.0,1,CC(CCC)CCC,carroll11
53,3-ethyl-3-methylpentane,276.0,1,C(C)C(CC)(CC)C,carroll11
54,3-ethylhexane,278.0,1,C(C)C(CC)CCC,carroll11
55,cycloheptane,279.0,1,C1CCCCCC1,carroll11
56,"trans-1,4-dimethylcyclohexane",279.0,1,C[C@@H]1CC[C@H](CC1)C,carroll11
57,"cis-1,3-dimethylcyclohexane",279.0,1,C[C@@H]1C[C@@H](CCC1)C,carroll11
58,"1,1-dimethylcyclohexane",280.0,1,CC1(CCCCC1)C,carroll11
59,"2,2,4,4-tetramethylpentane",279.0,1,CC(C)(CC(C)(C)C)C,carroll11
60,1-ethyl-1-methylcyclopentane,279.0,1,C(C)C1(CCCC1)C,carroll11
61,"2,2,5-trimethylhexane",286.0,1,CC(C)(CCC(C)C)C,carroll11
62,"trans-1,3-dimethylcyclohexane",281.0,1,C[C@@H]1C[C@H](CCC1)C,carroll11
63,"cis-1,4-dimethylcyclohexane",279.0,1,C[C@@H]1CC[C@@H](CC1)C,carroll11
64,isopropylcyclopentane,287.0,1,C(C)(C)C1CCCC1,carroll11
65,"2,2,4-trimethylhexane",286.0,1,CC(C)(CC(CC)C)C,carroll11
66,"cis-1,2-dimethylcyclohexane",285.0,1,C[C@H]1[C@H](CCCC1)C,carroll11
67,"2,4,4-trimethylhexane",288.0,1,CC(C)CC(CC)(C)C,carroll11
68,"2,3,5-trimethylhexane",288.0,1,CC(C)C(CC(C)C)C,carroll11
69,propylcyclopentane,289.0,1,C(CC)C1CCCC1,carroll11
70,ethylcyclohexane,291.0,1,C(C)C1CCCCC1,carroll11
71,"2,2,3,4-tetramethylpentane",284.0,1,CC(C)(C(C(C)C)C)C,carroll11
72,"2,4-dimethylheptane",288.0,1,CC(C)CC(CCC)C,carroll11
73,"2,2-dimethylheptane",297.0,1,CC(C)(CCCCC)C,carroll11
74,"3-ethyl-2,2-dimethylpentane",286.0,1,C(C)C(C(C)(C)C)CC,carroll11
75,"2,2,3-trimethylhexane",288.0,1,CC(C)(C(CCC)C)C,carroll11
76,"4,4-dimethylheptane",288.0,1,CC(CCC)(CCC)C,carroll11
77,"2,5-dimethylheptane",288.0,1,CC(C)CCC(CC)C,carroll11
78,"2,6-dimethylheptane",299.0,1,CC(C)CCCC(C)C,carroll11
79,"3,5-dimethylheptane",288.0,1,CC(CC)CC(CC)C,carroll11
80,"3-ethyl-2,4-dimethylpentane",288.0,1,C(C)C(C(C)C)C(C)C,carroll11
81,"2,2,5,5-tetramethylhexane",289.0,1,CC(C)(CCC(C)(C)C)C,carroll11
82,"2,3,3-trimethylhexane",288.0,1,CC(C)C(CCC)(C)C,carroll11
83,"2,3,4-trimethylhexane",288.0,1,CC(C)C(C(CC)C)C,carroll11
84,"2,3,3,4-tetramethylpentane",284.0,1,CC(C)C(C(C)C)(C)C,carroll11
85,"2,3-dimethylheptane",288.0,1,CC(C)C(CCCC)C,carroll11
86,"2,2,3,3-tetramethylpentane",289.0,1,CC(C)(C(CC)(C)C)C,carroll11
87,4-ethylheptane,288.0,1,C(C)C(CCC)CCC,carroll11
88,3-ethyl-4-methylhexane,288.0,1,C(C)C(CC)C(CC)C,carroll11
89,"3,4-dimethylheptane",288.0,1,CC(CC)C(CCC)C,carroll11
90,"3,3,4-trimethylhexane",288.0,1,CC(CC)(C(CC)C)C,carroll11
91,"3-ethyl-2,3-dimethylpentane",288.0,1,C(C)C(C(C)C)(CC)C,carroll11
92,4-methyloctane,295.0,1,CC(CCC)CCCC,carroll11
93,"3,3-diethylpentane",294.0,1,C(C)C(CC)(CC)CC,carroll11
94,"2,4,6-trimethylheptane",304.0,1,CC(C)CC(CC(C)C)C,carroll11
95,cyclooctane,301.0,1,C1CCCCCCC1,carroll11
96,"2,2,4,4-tetramethylhexane",304.0,1,CC(C)(CC(CC)(C)C)C,carroll11
97,"2,2-dimethyloctane",304.0,1,CC(C)(CCCCCC)C,carroll11
98,"2,2,3,4-tetramethylhexane",304.0,1,CC(C)(C(C(CC)C)C)C,carroll11
99,isopropylcyclohexane,308.0,1,C(C)(C)C1CCCCC1,carroll11
100,"3,3,5-trimethylheptane",304.0,1,CC(CC)(CC(CC)C)C,carroll11
101,"2,3,4,5-tetramethylhexane",304.0,1,CC(C)C(C(C(C)C)C)C,carroll11
102,propylcyclohexane,304.0,1,C(CC)C1CCCCC1,carroll11
103,butylcyclopentane,305.0,1,C(CCC)C1CCCC1,carroll11
104,3-ethyl-5-methylheptane,304.0,1,C(C)C(CC)CC(CC)C,carroll11
105,"2,6-dimethyloctane",307.0,1,CC(C)CCCC(CC)C,carroll11
106,"3-ethyl-2,2-dimethylhexane",311.0,1,C(C)C(C(C)(C)C)CCC,carroll11
107,"3,5-dimethyloctane",314.0,1,CC(CC)CC(CCC)C,carroll11
108,"2,2,3,3-tetramethylhexane",304.0,1,CC(C)(C(CCC)(C)C)C,carroll11
109,"3,3-dimethyloctane",314.0,1,CC(CC)(CCCCC)C,carroll11
110,"2,3,4,4-tetramethylhexane",304.0,1,CC(C)C(C(CC)(C)C)C,carroll11
111,4-propylheptane,308.0,1,C(CC)C(CCC)CCC,carroll11
112,4-ethyloctane,314.0,1,C(C)C(CCC)CCCC,carroll11
113,"3,4,5-trimethylheptane",304.0,1,CC(CC)C(C(CC)C)C,carroll11
114,"2,3-dimethyloctane",309.0,1,CC(C)C(CCCCC)C,carroll11
115,3-ethyl-3-methylheptane,314.0,1,C(C)C(CC)(CCCC)C,carroll11
116,"2,3,3,4-tetramethylhexane",304.0,1,CC(C)C(C(CC)C)(C)C,carroll11
117,5-methylnonane,310.0,1,CC(CCCC)CCCC,carroll11
118,4-methylnonane,311.0,1,CC(CCC)CCCCC,carroll11
119,4-ethyl-3-methylheptane,314.0,1,C(C)C(C(CC)C)CCC,carroll11
120,"3-ethyl-2,3,4-trimethylpentane",304.0,1,C(C)C(C(C)C)(C(C)C)C,carroll11
121,"3,3,4,4-tetramethylhexane",304.0,1,CC(CC)(C(CC)(C)C)C,carroll11
122,tert-butylcyclohexane,313.0,1,C(C)(C)(C)C1CCCCC1,carroll11
123,cyclononane,316.0,1,C1CCCCCCCC1,carroll11
124,butylcyclohexane,321.0,1,C(CCC)C1CCCCC1,carroll11
125,trans-decalin,326.0,1,C1CCC[C@@H]2CCCC[C@@H]12,carroll11
126,cis-decalin,330.0,1,C1CCC[C@@H]2CCCC[C@H]12,carroll11
127,cyclodecane,332.0,1,C1CCCCCCCCC1,carroll11
128,pentylcyclohexane,336.0,1,C(CCCC)C1CCCCC1,carroll11
129,bicyclohexyl,365.0,1,C1(CCCCC1)C1CCCCC1,carroll11
130,"2,2,4,4,6,8,8-heptamethylnonane",368.0,1,CC(C)(CC(CC(CC(C)(C)C)C)(C)C)C,carroll11
131,1-pentene,222.0,1,C=CCCC,carroll11
132,1-hexene,247.0,1,C=CCCCC,carroll11
133,1-heptene,264.0,1,C=CCCCCC,carroll11
134,1-nonene,298.0,1,C=CCCCCCCC,carroll11
135,1-decene,311.0,1,C=CCCCCCCCC,carroll11
136,1-undecene,327.0,1,C=CCCCCCCCCC,carroll11
137,1-dodecene,346.0,1,C=CCCCCCCCCCC,carroll11
138,1-tridecene,365.0,1,C=CCCCCCCCCCCC,carroll11
139,1-tetradecene,370.0,1,C=CCCCCCCCCCCCC,carroll11
140,1-pentadecene,386.0,1,C=CCCCCCCCCCCCCC,carroll11
141,1-hexadecene,402.0,1,C=CCCCCCCCCCCCCCC,carroll11
142,1-heptadecene,414.0,1,C=CCCCCCCCCCCCCCCC,carroll11
143,1-octadecene,427.0,1,C=CCCCCCCCCCCCCCCCC,carroll11
144,cis-2-pentene,227.0,1,C\C=C/CC,carroll11
145,trans-2-pentene,228.0,1,C\C=C\CC,carroll11
146,cis-3-hexene,248.0,1,CC\C=C/CC,carroll11
147,trans-3-hexene,248.0,1,CC\C=C\CC,carroll11
148,trans-2-hexene,248.0,1,C\C=C\CCC,carroll11
149,cis-2-hexene,248.0,1,C\C=C/CCC,carroll11
150,cis-3-heptene,264.0,1,CC\C=C/CCC,carroll11
151,trans-3-heptene,266.0,1,CC\C=C\CCC,carroll11
152,trans-2-heptene,267.0,1,C\C=C\CCCC,carroll11
153,cis-2-heptene,267.0,1,C\C=C/CCCC,carroll11
154,trans-4-octene,281.0,1,CCC\C=C\CCC,carroll11
155,trans-3-octene,282.0,1,CC\C=C\CCCC,carroll11
156,cis-4-octene,290.0,1,CCC\C=C/CCC,carroll11
157,cis-3-octene,287.0,1,CC\C=C/CCCC,carroll11
158,trans-2-octene,287.0,1,C\C=C\CCCCC,carroll11
159,2-methyl-1-butene,226.0,1,CC(=C)CC,carroll11
160,2-methyl-2-butene,228.0,1,CC(C)=CC,carroll11
161,cyclopentene,243.0,1,C1=CCCC1,carroll11
162,4-methyl-1-pentene,241.0,1,CC(CC=C)C,carroll11
163,3-methyl-1-pentene,240.0,1,CC(C=C)CC,carroll11
164,cis-4-methyl-2-pentene,240.0,1,CC(\C=C/C)C,carroll11
165,trans-4-methyl-2-pentene,246.0,1,CC(/C=C/C)C,carroll11
166,2-methyl-1-pentene,246.0,1,CC(=C)CCC,carroll11
167,2-ethyl-1-butene,247.0,1,C(C)C(=C)CC,carroll11
168,"2,3-dimethyl-2-butene",253.0,1,CC(C)=C(C)C,carroll11
169,methylenecyclopentane,255.0,1,C=C1CCCC1,carroll11
170,1-methylcyclopentene,254.0,1,CC1=CCCC1,carroll11
171,"2,3,3-trimethyl-1-butene",256.0,1,CC(=C)C(C)(C)C,carroll11
172,cyclohexene,256.0,1,C1=CCCCC1,carroll11
173,3-methyl-1-hexene,255.0,1,CC(C=C)CCC,carroll11
174,"2,3-dimethyl-1-pentene",256.0,1,CC(=C)C(CC)C,carroll11
175,3-ethyl-1-pentene,256.0,1,C(C)C(C=C)CC,carroll11
176,5-methyl-1-hexene,263.0,1,CC(CCC=C)C,carroll11
177,4-methyl-1-hexene,258.0,1,CC(CC=C)CC,carroll11
178,2-methyl-1-hexene,265.0,1,CC(=C)CCCC,carroll11
179,2-ethyl-1-pentene,263.0,1,C(C)C(=C)CCC,carroll11
180,3-ethyl-2-pentene,267.0,1,C(C)C(=CC)CC,carroll11
181,2-norbornene,259.0,1,C12C=CC(CC1)C2,carroll11
182,"2,4,4-trimethyl-1-pentene",269.0,1,CC(=C)CC(C)(C)C,carroll11
183,4-methylcyclohexene,272.0,1,CC1CC=CCC1,carroll11
184,methylenecyclohexane,271.0,1,C=C1CCCCC1,carroll11
185,3-methylcyclohexene,270.0,1,CC1C=CCCC1,carroll11
186,"2,4,4-trimethyl-2-pentene",272.0,1,CC(C)=CC(C)(C)C,carroll11
187,1-methylcyclohexene,272.0,1,CC1=CCCCC1,carroll11
188,3-ethyl-1-hexene,274.0,1,C(C)C(C=C)CCC,carroll11
189,4-methyl-1-heptene,275.0,1,CC(CC=C)CCC,carroll11
190,2-methyl-1-heptene,283.0,1,CC(=C)CCCCC,carroll11
191,2-methyl-2-heptene,282.0,1,CC(C)=CCCCC,carroll11
192,allylcyclopentane,285.0,1,C(C=C)C1CCCC1,carroll11
193,vinylcyclohexane,294.0,1,C(=C)C1CCCCC1,carroll11
194,7-methyl-1-octene,291.0,1,CC(CCCCC=C)C,carroll11
195,2-carene,311.0,1,C12C=C(CCC1C2(C)C)C,carroll11
196,isoprene,225.0,1,C=CC(C)=C,carroll11
197,"2,3-dimethyl-1,3-butadiene",251.0,1,CC(=C)C(=C)C,carroll11
198,"4-methyl-1,3-pentadiene",255.0,1,CC(=CC=C)C,carroll11
199,"1,6-heptadiene",263.0,1,C=CCCCC=C,carroll11
200,"1,7-octadiene",278.0,1,C=CCCCCC=C,carroll11
201,"2,5-dimethyl-2,4-hexadiene",297.0,1,CC(C)=CC=C(C)C,carroll11
202,"1,8-nonadiene",299.0,1,C=CCCCCCC=C,carroll11
203,"1,3-cyclohexadiene",257.0,1,C1=CC=CCC1,carroll11
204,"1,4-cyclohexadiene",262.0,1,C1=CCC=CC1,carroll11
205,4-vinyl-1-cyclohexene,289.0,1,C(=C)C1CC=CCC1,carroll11
206,"1,5-cyclooctadiene",308.0,1,C1=CCCC=CCC1,carroll11
207,"2,5-norbornadiene",262.0,1,C12C=CC(C=C1)C2,carroll11
208,5-ethylidene-2-norbornene,302.0,1,C(C)=C1C2C=CC(C1)C2,carroll11
209,"1,3,5,7-cyclooctatetraene",295.0,1,C1=CC=CC=CC=C1,carroll11
210,1-pentyne,239.0,1,C#CCCC,carroll11
211,1-hexyne,253.0,1,C#CCCCC,carroll11
212,1-heptyne,271.0,1,C#CCCCCC,carroll11
213,1-octyne,289.0,1,C#CCCCCCC,carroll11
214,1-nonyne,306.0,1,C#CCCCCCCC,carroll11
215,1-decyne,321.0,1,C#CCCCCCCCC,carroll11
216,1-undecyne,338.0,1,C#CCCCCCCCCC,carroll11
217,1-dodecyne,352.0,1,C#CCCCCCCCCCC,carroll11
218,1-tridecyne,366.0,1,C#CCCCCCCCCCCC,carroll11
219,2-pentyne,243.0,1,CC#CCC,carroll11
220,2-hexyne,263.0,1,CC#CCCC,carroll11
221,2-heptyne,281.0,1,CC#CCCCC,carroll11
222,2-octyne,297.0,1,CC#CCCCCC,carroll11
223,2-nonyne,312.0,1,CC#CCCCCCC,carroll11
224,2-decyne,326.0,1,CC#CCCCCCCC,carroll11
225,2-dodecyne,351.0,1,CC#CCCCCCCCCC,carroll11
226,3-hexyne,259.0,1,CCC#CCC,carroll11
227,3-heptyne,278.0,1,CCC#CCCC,carroll11
228,3-nonyne,311.0,1,CCC#CCCCCC,carroll11
229,4-nonyne,308.0,1,CCCC#CCCCC,carroll11
230,4-octyne,291.0,1,CCCC#CCCC,carroll11
231,3-decyne,325.0,1,CCC#CCCCCCC,carroll11
232,4-decyne,325.0,1,CCCC#CCCCCC,carroll11
233,4-undecyne,339.0,1,CCCC#CCCCCCC,carroll11
234,5-undecyne,339.0,1,CCCCC#CCCCCC,carroll11
235,"3,3-dimethyl-1-butyne",239.0,1,CC(C#C)(C)C,carroll11
236,4-methyl-1-pentyne,249.0,1,CC(CC#C)C,carroll11
237,"4,4-dimethyl-2-pentyne",263.0,1,CC(C#CC)(C)C,carroll11
238,5-methyl-1-hexyne,266.0,1,CC(CCC#C)C,carroll11
239,"1,6-heptadiyne",282.0,1,C#CCCCC#C,carroll11
240,"1,7-octadiyne",296.0,1,C#CCCCCC#C,carroll11
241,"1,8-nonadiyne",315.0,1,C#CCCCCCC#C,carroll11
242,benzene,262.0,1,C1=CC=CC=C1,carroll11
243,toluene,280.0,1,CC1=CC=CC=C1,carroll11
244,ethylbenzene,294.0,1,C(C)C1=CC=CC=C1,carroll11
245,propylbenzene,303.0,1,C(CC)C1=CC=CC=C1,carroll11
246,butylbenzene,323.0,1,C(CCC)C1=CC=CC=C1,carroll11
247,pentylbenzene,339.0,1,C(CCCC)C1=CC=CC=C1,carroll11
248,hexylbenzene,356.0,1,C(CCCCC)C1=CC=CC=C1,carroll11
249,heptylbenzene,368.0,1,C(CCCCCC)C1=CC=CC=C1,carroll11
250,octylbenzene,380.0,1,C(CCCCCCC)C1=CC=CC=C1,carroll11
251,nonylbenzene,390.0,1,C(CCCCCCCC)C1=CC=CC=C1,carroll11
252,undecylbenzene,417.0,1,C(CCCCCCCCCC)C1=CC=CC=C1,carroll11
253,p-xylene,298.0,1,C1(=CC=C(C=C1)C)C,carroll11
254,m-xylene,298.0,1,C1(=CC(=CC=C1)C)C,carroll11
255,o-xylene,303.0,1,C=1(C(=CC=CC1)C)C,carroll11
256,cumene,304.0,1,C1(=CC=CC=C1)C(C)C,carroll11
257,p-ethyltoluene,309.0,1,C(C)C1=CC=C(C)C=C1,carroll11
258,m-ethyltoluene,311.0,1,C(C)C=1C=C(C)C=CC1,carroll11
259,o-ethyltoluene,312.0,1,C(C)C1=C(C)C=CC=C1,carroll11
260,"1,3,5-trimethylbenzene",317.0,1,CC1=CC(=CC(=C1)C)C,carroll11
261,"1,2,4-trimethylbenzene",319.0,1,CC1=C(C=C(C=C1)C)C,carroll11
262,tert-butylbenzene,317.0,1,C(C)(C)(C)C1=CC=CC=C1,carroll11
263,isobutylbenzene,323.0,1,C(C(C)C)C1=CC=CC=C1,carroll11
264,m-isopropyltoluene,320.0,1,C(C)(C)C=1C=C(C)C=CC1,carroll11
265,"1,2,3-trimethylbenzene",324.0,1,CC1=C(C(=CC=C1)C)C,carroll11
266,p-isopropyltoluene,320.0,1,C(C)(C)C1=CC=C(C)C=C1,carroll11
267,o-isopropyltoluene,323.0,1,C(C)(C)C1=C(C)C=CC=C1,carroll11
268,m-diethylbenzene,324.0,1,C(C)C1=CC(=CC=C1)CC,carroll11
269,m-propyltoluene,325.0,1,C(CC)C=1C=C(C)C=CC1,carroll11
270,p-diethylbenzene,328.0,1,C(C)C1=CC=C(C=C1)CC,carroll11
271,o-diethylbenzene,328.0,1,C(C)C1=C(C=CC=C1)CC,carroll11
272,neopentylbenzene,323.0,1,C(C(C)(C)C)C1=CC=CC=C1,carroll11
273,"2-ethyl-1,4-dimethylbenzene",329.0,1,C(C)C1=C(C=CC(=C1)C)C,carroll11
274,"1-ethyl-2,4-dimethylbenzene",330.0,1,C(C)C1=C(C=C(C=C1)C)C,carroll11
275,"4-ethyl-1,2-dimethylbenzene",331.0,1,C(C)C1=CC(=C(C=C1)C)C,carroll11
276,1-ethyl-3-isopropylbenzene,336.0,1,C(C)C1=CC(=CC=C1)C(C)C,carroll11
277,"1-ethyl-2,3-dimethylbenzene",338.0,1,C(C)C1=C(C(=CC=C1)C)C,carroll11
278,1-phenyl-2-methylbutane,337.0,1,C1(=CC=CC=C1)CC(CC)C,carroll11
279,isopentylbenzene,335.0,1,C(CC(C)C)C1=CC=CC=C1,carroll11
280,"1,2,3,5-tetramethylbenzene",336.0,1,CC1=C(C(=CC(=C1)C)C)C,carroll11
281,"1,3-diisopropylbenzene",349.0,1,C(C)(C)C1=CC(=CC=C1)C(C)C,carroll11
282,"1,2,3,4-tetramethylbenzene",341.0,1,CC1=C(C(=C(C=C1)C)C)C,carroll11
283,2-phenyl-2-methylbutane,332.0,1,C1(=CC=CC=C1)C(C)(CC)C,carroll11
284,"1,2-dimethyl-3-propylbenzene",345.0,1,CC1=C(C(=CC=C1)CCC)C,carroll11
285,"1,4-diisopropylbenzene",349.0,1,C(C)(C)C1=CC=C(C=C1)C(C)C,carroll11
286,"1,2,3,4-tetrahydronaphthalene",344.0,1,C1CCCC2=CC=CC=C12,carroll11
287,cyclohexylbenzene,371.0,1,C1(CCCCC1)C1=CC=CC=C1,carroll11
288,(1-methylheptyl)benzene,373.0,1,CC(CCCCCC)C1=CC=CC=C1,carroll11
289,diphenylmethane,400.0,1,C1(=CC=CC=C1)CC1=CC=CC=C1,carroll11
290,ethylformate,254.0,1,C(C)OC=O,carroll11
291,propylformate,270.0,1,C(CC)OC=O,carroll11
292,butylformate,291.0,1,C(CCC)OC=O,carroll11
293,pentylformate,299.0,1,C(CCCC)OC=O,carroll11
294,hexylformate,317.0,1,C(CCCCC)OC=O,carroll11
295,heptylformate,333.0,1,C(CCCCCC)OC=O,carroll11
296,octylformate,342.0,1,C(CCCCCCC)OC=O,carroll11
297,nonylformate,361.0,1,C(CCCCCCCC)OC=O,carroll11
298,decylformate,373.0,1,C(CCCCCCCCC)OC=O,carroll11
299,isopropylformate,259.0,1,C(C)(C)OC=O,carroll11
300,tert-butylformate,264.0,1,C(C)(C)(C)OC=O,carroll11
301,isopentylformate,295.0,1,C(CC(C)C)OC=O,carroll11
302,isobutylformate,277.0,1,C(C(C)C)OC=O,carroll11
303,cyclohexylformate,324.0,1,C1(CCCCC1)C(=O)[O-],carroll11
304,methylacetate,260.0,1,COC(C)=O,carroll11
305,ethylacetate,269.0,1,C(C)OC(C)=O,carroll11
306,propylacetate,283.0,1,C(CC)OC(C)=O,carroll11
307,butylacetate,298.0,1,C(CCC)OC(C)=O,carroll11
308,pentylacetate,312.0,1,C(CCCC)OC(C)=O,carroll11
309,hexylacetate,328.0,1,C(CCCCC)OC(C)=O,carroll11
310,heptylacetate,340.0,1,C(CCCCCC)OC(C)=O,carroll11
311,octylacetate,355.0,1,C(CCCCCCC)OC(C)=O,carroll11
312,nonylacetate,364.0,1,C(CCCCCCCC)OC(C)=O,carroll11
313,decylacetate,377.0,1,C(CCCCCCCCC)OC(C)=O,carroll11
314,undecylacetate,384.0,1,C(CCCCCCCCCC)OC(C)=O,carroll11
315,dodecylacetate,393.0,1,C(CCCCCCCCCCC)OC(C)=O,carroll11
316,isopropylacetate,275.0,1,C(C)(C)OC(C)=O,carroll11
317,tert-butylacetate,277.0,1,C(C)(C)(C)OC(C)=O,carroll11
318,sec-butylacetate,289.0,1,C(C)(CC)OC(C)=O,carroll11
319,isobutylacetate,291.0,1,C(C(C)C)OC(C)=O,carroll11
320,2-pentylacetate,305.0,1,C(CCCC)CC(=O)[O-],carroll11
321,isopentylacetate,309.0,1,C(CC(C)C)OC(C)=O,carroll11
322,tert-pentylacetate,298.0,1,C(C)(C)(CC)OC(C)=O,carroll11
323,cyclohexylacetate,331.0,1,C1(CCCCC1)CC(=O)[O-],carroll11
324,cyclodecylacetate,379.0,1,C1(CCCCCCCCC1)CC(=O)[O-],carroll11
325,methylpropanoate,271.0,1,COC(CC)=O,carroll11
326,ethylpropanoate,285.0,1,C(C)OC(CC)=O,carroll11
327,tert-butylpropanoate,293.0,1,C(C)(C)(C)OC(CC)=O,carroll11
328,propylpropanoate,295.0,1,C(CC)OC(CC)=O,carroll11
329,butylpropanoate,311.0,1,C(CCC)OC(CC)=O,carroll11
330,isopentylpropanoate,319.0,1,C(CC(C)C)OC(CC)=O,carroll11
331,pentylpropanoate,326.0,1,C(CCCC)OC(CC)=O,carroll11
332,hexylpropanoate,338.0,1,C(CCCCC)OC(CC)=O,carroll11
333,cyclohexylpropanoate,341.0,1,C1(CCCCC1)OC(CC)=O,carroll11
334,ethylbutanoate,293.0,1,C(C)OC(CCC)=O,carroll11
335,isopropylbutanoate,297.0,1,C(C)(C)OC(CCC)=O,carroll11
336,propylbutanoate,308.0,1,C(CC)OC(CCC)=O,carroll11
337,isobutylbutanoate,319.0,1,C(C(C)C)OC(CCC)=O,carroll11
338,butylbutanoate,322.0,1,C(CCC)OC(CCC)=O,carroll11
339,isopentylbutanoate,332.0,1,C(CC(C)C)OC(CCC)=O,carroll11
340,methylpentanoate,295.0,1,COC(CCCC)=O,carroll11
341,ethylpentanoate,308.0,1,C(C)OC(CCCC)=O,carroll11
342,methylhexanoate,314.0,1,COC(CCCCC)=O,carroll11
343,methylheptanoate,325.0,1,COC(CCCCCC)=O,carroll11
344,methyloctanoate,342.0,1,COC(CCCCCCC)=O,carroll11
345,methyl2-methylpropanoate,276.0,1,COC(C(C)C)=O,carroll11
346,ethyl2-methylpropanoate,286.0,1,C(C)OC(C(C)C)=O,carroll11
347,methylcyclopropanecarboxylate,291.0,1,COC(=O)C1CC1,carroll11
348,propyl2-methylpropanoate,303.0,1,C(CC)OC(C(C)C)=O,carroll11
349,isobutyl2-methylpropanoate,311.0,1,C(C(C)C)OC(C(C)C)=O,carroll11
350,methylcyclohexanecarboxylate,333.0,1,COC(=O)C1CCCCC1,carroll11
351,4-methyl-4-vinylbutyrolactone,348.0,1,CC1(CCC(=O)O1)C=C,carroll11
352,isopropylmethylether,226.0,1,C(C)(C)OC,carroll11
353,diethylether,233.0,1,C(C)OCC,carroll11
354,propyleneoxide,236.0,1,C1C(C)O1,carroll11
355,tert-butylmethylether,245.0,1,C(C)(C)(C)OC,carroll11
356,isobutylmethylether,244.0,1,C(C(C)C)OC,carroll11
357,2-methoxybutane,244.0,1,COC(C)CC,carroll11
358,ethylpropylether,248.0,1,C(C)OCCC,carroll11
359,tetrahydrofuran,252.0,1,O1CCCC1,carroll11
360,diisopropylether,245.0,1,C(C)(C)OC(C)C,carroll11
361,butylmethylether,263.0,1,C(CCC)OC,carroll11
362,2-methyltetrahydrofuran,261.0,1,CC1OCCC1,carroll11
363,methyltert-pentylether,266.0,1,COC(C)(C)CC,carroll11
364,butylethylether,268.0,1,C(CCC)OCC,carroll11