,compound,flashpoint,pure substance,smiles,source
2692,Trichlorosilane,245.15,1.0,Cl[SiH](Cl)Cl,chen14
2693,Methyltrichlorosilane,276.15,1.0,C[Si](Cl)(Cl)Cl,chen14
2694,Vinyltrichlorosilane,294.15,1.0,C(=C)[Si](Cl)(Cl)Cl,chen14
2695,Dichloromethylmethyldichlorosilane,301.15,1.0,ClC(Cl)[Si](Cl)(Cl)C,chen14
2696,Ethyltrichlorosilane,263.15,1.0,C(C)[Si](Cl)(Cl)Cl,chen14
2697,Dimethylchlorosilane,245.15,1.0,C[SiH](Cl)C,chen14
2698,Ethylsilane,213.15,1.0,C(C)[SiH3],chen14
2699,"Trichloro(3,3,3-trifluoropropyl)silane",288.15,1.0,Cl[Si](CCC(F)(F)F)(Cl)Cl,chen14
2700,Allyltrichlorosilane,304.15,1.0,C(C=C)[Si](Cl)(Cl)Cl,chen14
2701,3-Chloropropyltrichlorosilane,357.15,1.0,ClCCC[Si](Cl)(Cl)Cl,chen14
2702,n-Propyltrichlorosilane,310.15,1.0,C(CC)[Si](Cl)(Cl)Cl,chen14
2703,Chloromethyldimethylchlorosilane,295.15,1.0,ClC[Si](Cl)(C)C,chen14
2704,Trimethyl bromosilane,270.15,1.0,C[Si](Br)(C)C,chen14
2705,Trimethylchlorosilane,255.15,1.0,C[Si](Cl)(C)C,chen14
2706,Trimethylfluorosilane,238.15,1.0,C[Si](F)(C)C,chen14
2707,Trimethoxysilane,264.15,1.0,CO[SiH](OC)OC,chen14
2708,2-Cyanoethylmethyldichlorosilane,333.15,1.0,C(#N)CC[Si](Cl)(Cl)C,chen14
2709,Allylmethyldichlorosilane,300.15,1.0,C(C=C)C[SiH](Cl)Cl,chen14
2710,t-Butyltrichlorosilane,294.15,1.0,C(C)(C)(C)[Si](Cl)(Cl)Cl,chen14
2711,Isobutyltrichlorosilane,310.15,1.0,C(C(C)C)[Si](Cl)(Cl)Cl,chen14
2712,n-Butyltrichlorosilane,327.15,1.0,C(CCC)[Si](Cl)(Cl)Cl,chen14
2713,Trimethylsilylisothiocyanate,308.15,1.0,C[Si](C)(C)N=C=S,chen14
2714,n-Propylmethyldichlorosilane,300.15,1.0,C(CC)[Si](Cl)(Cl)C,chen14
2715,Bromomethyltrimethylsilane,289.15,1.0,BrC[Si](C)(C)C,chen14
2716,ETHYLDIMETHYLCHLOROSILANE,269.15,1.0,C(C)[Si](Cl)(C)C,chen14
2717,Methoxytrimethylsilane,243.15,1.0,CO[Si](C)(C)C,chen14
2718,Dimethyldimethoxysilane,265.15,1.0,C[Si](OC)(OC)C,chen14
2719,Methyltrimethoxysilane,284.15,1.0,C[Si](OC)(OC)OC,chen14
2720,Tetramethoxysilane,294.15,1.0,CO[Si](OC)(OC)OC,chen14
2721,Tetramethylsilane,245.15,1.0,C[Si](C)(C)C,chen14
2722,Diethylsilane,253.15,1.0,C(C)[SiH2]CC,chen14
2723,"(N,N-Dimethylamino)dimethylsilane",260.15,1.0,CN(C)[SiH](C)C,chen14
2724,Tetraisocyanatosilane,323.15,1.0,N(=C=O)[Si](N=C=O)(N=C=O)N=C=O,chen14
2725,Cyclopentyltrichlorosilane,350.15,1.0,C1(CCCC1)[Si](Cl)(Cl)Cl,chen14
2726,Trimethylsilyltrifluoroacetate,273.15,1.0,C[Si](C)(C)OC(C(F)(F)F)=O,chen14
2727,Cyclopentyldichlorosilane,316.15,1.0,C1(CCCC1)[SiH](Cl)Cl,chen14
2728,3-Chloro-2-methylpropylmethyldichlorosilane,363.15,1.0,ClCC(C[Si](Cl)(Cl)C)C,chen14
2729,Methylvinyldimethoxysilane,277.15,1.0,CC=C[SiH](OC)OC,chen14
2730,Vinyltrimethoxysilane,296.15,1.0,C(=C)[Si](OC)(OC)OC,chen14
2731,Trimethylvinylsilane,239.15,1.0,CC(=C(C)C)[SiH3],chen14
2732,Diethylmethylchlorosilane,288.15,1.0,C(C)[Si](Cl)(C)CC,chen14
2733,Chloromethyldimethylethoxysilane,299.15,1.0,ClC[Si](OCC)(C)C,chen14
2734,Ethoxytrimethylsilane,246.15,1.0,C(C)O[Si](C)(C)C,chen14
2735,Ethyltrimethoxysilane,300.15,1.0,C(C)[Si](OC)(OC)OC,chen14
2736,"(N,N-Dimethylamino)trimethylsilane",254.5,1.0,CN(C)[Si](C)(C)C,chen14
2737,Pentamethyldisiloxane,254.15,1.0,C[SiH](O[Si](C)(C)C)C,chen14
2738,Phenylsilane,281.15,1.0,C1(=CC=CC=C1)[SiH3],chen14
2739,1-Hexenyltrichlorosilane,333.15,1.0,C(=CCCCC)[Si](Cl)(Cl)Cl,chen14
2740,Cyclohexyltrichlorosilane,358.15,1.0,C1(CCCCC1)[Si](Cl)(Cl)Cl,chen14
2741,Bis(chloromethyl)tetramethyldisiloxane,346.15,1.0,ClC[Si](O[Si](C)(C)C)(C)CCl,chen14
2742,Propargyloxytrimethylsilane,300.15,1.0,C(C#C)O[Si](C)(C)C,chen14
2743,Divinyldimethylsilane,281.15,1.0,C(=C)[Si](C)(C)C=C,chen14
2744,n-Hexyltrichlorosilane,358.15,1.0,C(CCCCC)[Si](Cl)(Cl)Cl,chen14
2745,Hexyldichlorosilane,337.15,1.0,C(CCCCC)[SiH](Cl)Cl,chen14
2746,"1,1 -Dimethyl-1-sila-2-oxacyclohexane",287.15,1.0,C[Si]1(OCCCC1)C,chen14
2747,Acetoxymethyltrimethylsilane,293.15,1.0,C(C)(=O)OC[Si](C)(C)C,chen14
2748,Allyltrimethylsilane,280.15,1.0,C(C=C)[Si](C)(C)C,chen14
2749,Triethylchlorosilane,303.15,1.0,C(C)[Si](Cl)(CC)CC,chen14
2750,t-Butyldimethylchlorosilane,295.15,1.0,C(C)(C)(C)[Si](Cl)(C)C,chen14
2751,3-Chloropropylmethyldimethoxysilane,318.15,1.0,ClCCC[Si](OC)(OC)C,chen14
2752,Trimethyl-n-propoxysilane,283.15,1.0,C[Si](OCCC)(C)C,chen14
2753,t-Butyldimethylsilanol,318.15,1.0,C(C)(C)(C)[Si](O)(C)C,chen14
2754,Dimethyldiethoxysilane,284.15,1.0,C[Si](OCC)(OCC)C,chen14
2755,Triethylsilane,270.15,1.0,C(C)[SiH](CC)CC,chen14
2756,Hexylsilane,285.15,1.0,C(CCCCC)[SiH3],chen14
2757,t-Butyld imethyl silane,251.15,1.0,C(C)(C)(C)[SiH](C)C,chen14
2758,Bis(dimethylamino)dimethylsilane,266.15,1.0,CN(C)[Si](C)(C)N(C)C,chen14
2759,Hexamethylcyclotrisiloxane,305.15,1.0,C[Si]1(O[Si](O[Si](O1)(C)C)(C)C)C,chen14
2760,Hexamethyldisilthiane,299.15,1.0,C[Si](S[Si](C)(C)C)(C)C,chen14
2761,Hexamethyldisilazane,281.15,1.0,C[Si](N[Si](C)(C)C)(C)C,chen14
2762,Tris(dimethylamino)silane,298.15,1.0,CN(C)[SiH](N(C)C)N(C)C,chen14
2763,Hexamethyltrisiloxane,293.15,1.0,C[Si](O[SiH2]O[Si](C)(C)C)(C)C,chen14
2764,Phenylmethyldichlorosilane,340.15,1.0,C1(=CC=CC=C1)C[SiH](Cl)Cl,chen14
2765,Phenylmethylchlorosilane,355.15,1.0,C1(=CC=CC=C1)C[SiH2]Cl,chen14
2766,Methyltriacetoxysilane,358.15,1.0,C[Si](OC(C)=O)(OC(C)=O)OC(C)=O,chen14
2767,Trivinylmethylsilane,288.15,1.0,C(=C)C(C=C)(C=C)[SiH3],chen14
2768,Cyclohexylmethyldichlorosilane,355.15,1.0,C1(CCCCC1)C[SiH](Cl)Cl,chen14
2769,"1-(Trimethylsiloxy)-1,3-butadiene",298.15,1.0,C[Si](OC=CC=C)(C)C,chen14
2770,2-Chloromethyl-3-trimethylsilyl-1-propene,316.15,1.0,ClCC(=C)C[Si](C)(C)C,chen14
2771,n-Heptyltrichlorosilane,337.15,1.0,C(CCCCCC)[Si](Cl)(Cl)Cl,chen14
2772,n-Hexylmethyldichlorosilane,358.15,1.0,C(CCCCC)[Si](Cl)(Cl)C,chen14
2773,Vinylmethyldiethoxysilane,289.15,1.0,C(=C)C[SiH](OCC)OCC,chen14
2774,N-(Trimethylsilyl)morpholine,300.15,1.0,C[Si](N1CCOCC1)(C)C,chen14
2775,t-Butoxytrimethylsilane,287.15,1.0,C(C)(C)(C)O[Si](C)(C)C,chen14
2776,(1-Methoxy-2-propoxy)trimethylsilane,293.15,1.0,COCC(C)O[Si](C)(C)C,chen14
2777,Methyltriethoxysilane,297.15,1.0,C[Si](OCC)(OCC)OCC,chen14
2778,(Diethylamino)trimethylsilane,283.15,1.0,C(C)N(CC)[Si](C)(C)C,chen14
2779,Bis(trimethylsilyl)methane,285.15,1.0,C[Si](C)(C)C[Si](C)(C)C,chen14
2780,Heptamethyldisilazane,300.15,1.0,C[Si](N([Si](C)(C)C)C)(C)C,chen14
2781,Bis(trimethylsiloxy)methylsilane,296.15,1.0,C[Si](OC(O[Si](C)(C)C)[SiH3])(C)C,chen14
2782,Tetravinylsilane,291.15,1.0,C(=C)[Si](C=C)(C=C)C=C,chen14
2783,Cyclopentadienyltrimethylsilane,302.15,1.0,C1(C=CC=C1)[Si](C)(C)C,chen14
2784,(Cyclopentenyloxy)trimethylsilane,311.15,1.0,C1(=CCCC1)O[Si](C)(C)C,chen14
2785,"(2,4-Pentadienyl)trimethylsilane",291.15,1.0,C(C=CC=C)[Si](C)(C)C,chen14
2786,n-Octyltrichlorosilane,369.15,1.0,C(CCCCCCC)[Si](Cl)(Cl)Cl,chen14
2787,n-Heptylmethyldichlorosilane,339.15,1.0,C(CCCCCC)[Si](Cl)(Cl)C,chen14
2788,Tetramethyldivinyldisiloxane,292.15,1.0,C[Si](O[Si](C=C)(C=C)C)(C)C,chen14
2789,Triethylacetoxysilane,314.15,1.0,C(C)C(C(=O)O[SiH3])(CC)CC,chen14
2790,Vinyltriethoxysilane,307.15,1.0,C(=C)[Si](OCC)(OCC)OCC,chen14
2791,"1,3-Divinyltetramethyldisilazane",307.15,1.0,C(=C)[Si](N[Si](C=C)(C)C)(C)C,chen14
2792,Diethyldiethoxysilane,316.15,1.0,C(C)[Si](OCC)(OCC)CC,chen14
2793,Tetraethoxysilane,323.15,1.0,C(C)O[Si](OCC)(OCC)OCC,chen14
2794,Tetraethylsilane,305.15,1.0,C(C)[Si](CC)(CC)CC,chen14
2795,Aminoethylaminopropyltrimethoxysilane,269.15,1.0,NCCNCCC[Si](OC)(OC)OC,chen14
2796,Tetramethyldiethoxysiloxane,311.15,1.0,CC(C(O[Si]([O])OCC)(C)C)C,chen14
2797,Octamethyltrisiloxane,303.15,1.0,C[Si](O[Si](O[Si](C)(C)C)(C)C)(C)C,chen14
2798,Octamethylcyclotetrasiloxane,330.15,1.0,C[Si]1(O[Si](O[Si](O[Si](O1)(C)C)(C)C)(C)C)C,chen14
2799,Octamethylcyclotetrasilazane,339.15,1.0,C[Si]1(N[Si](N[Si](N[Si](N1)(C)C)(C)C)(C)C)C,chen14
2800,Tetrakisdimethylsiloxysilane,340.15,1.0,C[SiH](O[Si](O[SiH](C)C)(O[SiH](C)C)O[SiH](C)C)C,chen14
2801,p-Chlorophenyltrimethylsilane,322.15,1.0,ClC1=CC=C(C=C1)[Si](C)(C)C,chen14
2802,Phenyltrimethoxysilane,358.15,1.0,C1(=CC=CC=C1)[Si](OC)(OC)OC,chen14
2803,Trimethylphenylsilane,313.15,1.0,C[Si](C1=CC=CC=C1)(C)C,chen14
2804,Cyclohexylmethyldimethoxysilane,343.15,1.0,C1(CCCCC1)C[SiH](OC)OC,chen14
2805,Hexyltrimethoxysilane,335.15,1.0,C(CCCCC)[Si](OC)(OC)OC,chen14
2806,Triisopropylsilane,310.15,1.0,C(C)(C)[SiH](C(C)C)C(C)C,chen14
2807,Tri-n-propylsilane,316.15,1.0,C(CC)[SiH](CCC)CCC,chen14
2808,Propyltris(dimethylsiloxy)silane,323.15,1.0,C(CC)[Si](O[SiH](C)C)(O[SiH](C)C)O[SiH](C)C,chen14
2809,Benzyltrimethylsilane,335.15,1.0,C(C1=CC=CC=C1)[Si](C)(C)C,chen14
2810,3-Methacryloxypropyltrimethoxysilane,365.15,1.0,C(C(=C)C)(=O)OCCC[Si](OC)(OC)OC,chen14
2811,1-Heptynyltrimethylsilane,315.15,1.0,C(#CCCCCC)[Si](C)(C)C,chen14
2812,n-Octyldimethylchlorosilane,370.15,1.0,C(CCCCCCC)[Si](Cl)(C)C,chen14
2813,Bis(diethylamino)dimethylsilane,308.15,1.0,C(C)N(CC)[Si](C)(C)N(CC)CC,chen14
2814,Decamethyltetrasiloxane,335.15,1.0,C[Si](O[Si](O[Si](O[Si](C)(C)C)(C)C)(C)C)(C)C,chen14
2815,Decamethylcyclopentasiloxane,350.15,1.0,C[Si]1(O[Si](O[Si](O[Si](O[Si](O1)(C)C)(C)C)(C)C)(C)C)C,chen14
2816,"2-(3,4-epoxycyclohexyl)ethyltrimethoxysilane",419.15,1.0,C1(CC2C(CC1)O2)CC[Si](OC)(OC)OC,chen14
2817,n-Decylmethyldichlorosilane,393.15,1.0,C(CCCCCCCCC)[Si](Cl)(Cl)C,chen14
2818,Vinyltriethylsilane,318.15,1.0,C(=C)[Si](CC)(CC)CC,chen14
2819,Diphenyldichlorosilane,415.15,1.0,C1(=CC=CC=C1)[Si](Cl)(Cl)C1=CC=CC=C1,chen14
2820,Phenyltriethoxysilane,393.15,1.0,C1(=CC=CC=C1)[Si](OCC)(OCC)OCC,chen14
2821,Diphenylsilane,371.15,1.0,C1(=CC=CC=C1)[SiH2]C1=CC=CC=C1,chen14
2822,"2,4,6,8-Tetravinyl-2,4,6,8-tetramethylcyclotetrasiloxane",385.15,1.0,C(=C)[Si]1(O[Si](O[Si](O[Si](O1)(C)C=C)(C)C=C)(C)C=C)C,chen14
2823,n-Dodecyltrichlorosilane,435.15,1.0,C(CCCCCCCCCCC)[Si](Cl)(Cl)Cl,chen14
2824,Tetra-n-propoxysilane,368.15,1.0,C(CC)O[Si](OCCC)(OCCC)OCCC,chen14
2825,Hexaethyldisiloxane,349.15,1.0,C(C)[Si](O[Si](CC)(CC)CC)(CC)CC,chen14
2826,Dodecamethylpentasiloxane,352.15,1.0,C[Si](O[Si](O[Si](O[Si](O[Si](C)(C)C)(C)C)(C)C)(C)C)(C)C,chen14
2827,Dodecamethylcyclohexasiloxane,366.15,1.0,C[Si]1(O[Si](O[Si](O[Si](O[Si](O[Si](O1)(C)C)(C)C)(C)C)(C)C)(C)C)C,chen14
2828,Methyldiphenylchlorosilane,411.15,1.0,C[Si](Cl)(C1=CC=CC=C1)C1=CC=CC=C1,chen14
2829,n-Dodecylmethyldichlorosilane,416.15,1.0,C(CCCCCCCCCCC)[Si](Cl)(Cl)C,chen14
2830,Diphenyldimethoxysilane,394.15,1.0,C1(=CC=CC=C1)[Si](OC)(OC)C1=CC=CC=C1,chen14
2831,Octyltriethoxysilane,373.15,1.0,C(CCCCCCC)[Si](OCC)(OCC)OCC,chen14
2832,Tetradecamethylhexasiloxane,375.15,1.0,C[Si](O[Si](O[Si](O[Si](O[Si](O[Si](C)(C)C)(C)C)(C)C)(C)C)(C)C)(C)C,chen14
2833,Hexadecamethylheptasiloxane,406.15,1.0,C[Si](O[Si](O[Si](O[Si](O[Si](O[Si](O[Si](C)(C)C)(C)C)(C)C)(C)C)(C)C)(C)C)(C)C,chen14
2834,n-Octadecyltrichlorosilane,466.15,1.0,C(CCCCCCCCCCCCCCCCC)[Si](Cl)(Cl)Cl,chen14
2835,Octadecamethyloctasiloxane,417.15,1.0,C[Si](O[Si](O[Si](O[Si](O[Si](O[Si](O[Si](O[Si](C)(C)C)(C)C)(C)C)(C)C)(C)C)(C)C)(C)C)(C)C,chen14
2836,Vinyltris(methoxyethoxy)silane,353.15,1.0,C(=C)[Si](OCCOC)(OCCOC)OCCOC,chen14
2837,Trimethyl(vinyloxy)silane,263.15,1.0,C[Si](OC=C)(C)C,chen14
2838,Trichloro(3-cyanopropyl) Silane,365.15,1.0,Cl[Si](CCCC#N)(Cl)Cl,chen14
2839,Trichloro(2-phenylethyl)silane,364.15,1.0,Cl[Si](CCC1=CC=CC=C1)(Cl)Cl,chen14
2840,"Chlorodimethyl(3,3,3-trifluoropropyl) silane",293.15,1.0,Cl[Si](CCC(F)(F)F)(C)C,chen14
2841,Vinylmethylbis (trimethylsiloxy) silane,324.15,1.0,C(=C)C[SiH](O[Si](C)(C)C)O[Si](C)(C)C,chen14
2842,Trichloro(Chloromethyl) silane,342.15,1.0,Cl[Si](CCl)(Cl)Cl,chen14
2843,Dimethyl(pentafluorophenyl) silane,313.15,1.0,C[SiH](C1=C(C(=C(C(=C1F)F)F)F)F)C,chen14
2844,Trichloro(p-chlorophenyl)silane,397.05,1.0,Cl[Si](C1=CC=C(C=C1)Cl)(Cl)Cl,chen14
2845,Trisilane,273.15,1.0,[SiH3][SiH2][SiH3],chen14
2846,Trichlorononylsilane,387.15,1.0,ClC(CCCCCCCC[SiH3])(Cl)Cl,chen14
2847,Dichloroethylsilane,263.75,1.0,ClC(C[SiH3])Cl,chen14
2848,Trichloro(dichlorophenyl)silane,419.15,1.0,Cl[Si](C1=C(C(=CC=C1)Cl)Cl)(Cl)Cl,chen14
2849,Tris(trimethylsilyl)silane,328.15,1.0,C[Si](C)(C)[SiH]([Si](C)(C)C)[Si](C)(C)C,chen14
2850,Tris(trimethylsiloxy)silane,323.15,1.0,C[Si](O[SiH](O[Si](C)(C)C)O[Si](C)(C)C)(C)C,chen14
2851,Hexadecyltrichlorosilane,427.15,1.0,C(CCCCCCCCCCCCCCC)[Si](Cl)(Cl)Cl,chen14
2852,Dichlorosilane,236.15,1.0,Cl[SiH2]Cl,chen14
2853,Dimethyldichlorosilane,257.15,1.0,C[Si](Cl)(Cl)C,chen14
2854,Bromomethyldimethylchlorosilane,314.15,1.0,BrC[Si](Cl)(C)C,chen14
2855,Trimethylsilane,204.15,1.0,C[SiH](C)C,chen14
2856,Dimethylvinylchlorosilane,268.15,1.0,CC(=C[SiH2]Cl)C,chen14
2857,"1,3-Dichlorotetramethyldisiloxane",288.15,1.0,Cl[Si](O[Si](Cl)(C)C)(C)C,chen14
2858,"1,1,3,3-Tetramethyldisiloxane",251.15,1.0,C[SiH](O[SiH](C)C)C,chen14
2859,Tetramethyldisilazane,284.15,1.0,CN([Si](C)(C)C)[SiH3],chen14
2860,Allyl Dimethylchlorosilane,278.15,1.0,C(C=C)[Si](Cl)(C)C,chen14
2861,sec-Amyltrichlorosilane,303.15,1.0,C(C)(CCC)[Si](Cl)(Cl)Cl,chen14
2862,n-Butylmethyldichlorosilane,303.15,1.0,C(CCC)[Si](Cl)(Cl)C,chen14
2863,Bis(dimethylamino)methylsilane,270.15,1.0,CN(C)C(N(C)C)[SiH3],chen14
2864,Phenyltrichlorosilane,364.15,1.0,C1(=CC=CC=C1)[Si](Cl)(Cl)Cl,chen14
2865,Phenyl trifluorosilane,268.15,1.0,C1(=CC=CC=C1)[Si](F)(F)F,chen14
2866,Dimethyldiacetoxysilane,310.15,1.0,C[Si](OC(C)=O)(OC(C)=O)C,chen14
2867,1-Trimethylsilylpropyne,270.15,1.0,C[Si](C#CC)(C)C,chen14
2868,Vinyldimethylethoxysilane,277.15,1.0,C(=C)[Si](OCC)(C)C,chen14
2869,Allyloxytrimethylsilane,273.15,1.0,C(C=C)O[Si](C)(C)C,chen14
2870,Allyltrimethoxysilane,319.15,1.0,C(C=C)[Si](OC)(OC)OC,chen14
2871,3-Chloropropyltrimethoxysilane,348.15,1.0,ClCCC[Si](OC)(OC)OC,chen14
2872,n-Propyltrimethoxysilane,298.15,1.0,C(CC)[Si](OC)(OC)OC,chen14
2873,Hexamethyldisiloxane,270.15,1.0,C[Si](O[Si](C)(C)C)(C)C,chen14
2874,Hexamethyldisilane,272.15,1.0,C[Si]([Si](C)(C)C)(C)C,chen14
2875,Vinyldiethylmethylsilane,288.15,1.0,C(=C)[Si](C)(CC)CC,chen14
2876,Isobutyltrimethoxysilane,315.15,1.0,C(C(C)C)[Si](OC)(OC)OC,chen14
2877,Phenyldimethylchlorosilane,334.15,1.0,C1(=CC=CC=C1)[Si](Cl)(C)C,chen14
2878,"(N,N-Dimethylamino)triethylsilane",299.15,1.0,CN(C)[Si](CC)(CC)CC,chen14
2879,Vinyltriacetoxysilane,361.15,1.0,C(=C)[Si](OC(C)=O)(OC(C)=O)OC(C)=O,chen14
2880,Ethyltriacetoxysilane,377.15,1.0,C(C)[Si](OC(C)=O)(OC(C)=O)OC(C)=O,chen14
2881,3-(Trimethylsilyl)cyclopentene,299.15,1.0,C[Si](C1C=CCC1)(C)C,chen14
2882,Vinyltriethylsilane,298.15,1.0,C(=C)[Si](CC)(CC)CC,chen14
2883,n-Octylsilane,309.15,1.0,C(CCCCCCC)[SiH3],chen14
2884,Methyl phenyldimethoxysilane,349.15,1.0,C[Si](OC)(OC)C1=CC=CC=C1,chen14
2885,2-Cyanoethyltriethoxysilane,359.15,1.0,C(#N)CC[Si](OCC)(OCC)OCC,chen14
2886,3-Glycidoxypropyltrimethoxysilane,383.15,1.0,C(C1CO1)OCCC[Si](OC)(OC)OC,chen14
2887,Di-t-butylmethylchlorosilane,342.15,1.0,C(C)(C)(C)[Si](Cl)(C)C(C)(C)C,chen14
2888,Tri-n-propylchlorosilane,349.15,1.0,C(CC)[Si](Cl)(CCC)CCC,chen14
2889,(Diisopropylamino)trimethylsilane,301.15,1.0,C(C)(C)N(C(C)C)[Si](C)(C)C,chen14
2890,1-Chlorononamethyltetrasiloxane,347.15,1.0,Cl[Si](O[Si](O[Si](O[Si](C)(C)C)(C)C)(C)C)(C)C,chen14
2891,Tristrimethylsiloxymethylsilane,336.15,1.0,C[Si](OC(O[Si](C)(C)C)(O[Si](C)(C)C)[SiH3])(C)C,chen14
2892,Diphenylmethylsilane,393.15,1.0,C1(=CC=CC=C1)C(C1=CC=CC=C1)[SiH3],chen14
2893,Trimethyl[(1-methylethenyl)oxy]silane,272.15,1.0,C[Si](OC(=C)C)(C)C,chen14
2894,"Dichloromethyl-3,3,3-trifluoropropylsilane",288.15,1.0,ClC(Cl)[SiH2]CCC(F)(F)F,chen14
2895,[2-(chloromethoxy)ethyl]trimethylsilane,319.15,1.0,ClCOCC[Si](C)(C)C,chen14
2896,Iodotrimethylsilane,288.15,1.0,I[Si](C)(C)C,chen14
2897,Triphenylsilane,416.35,1.0,C1(=CC=CC=C1)[SiH](C1=CC=CC=C1)C1=CC=CC=C1,chen14
2898,[3-(mercapto)propyl]triethoxysilane,360.93,1.0,SCCC[Si](OCC)(OCC)OCC,chen14
2899,Hexadecamethylheptasiloxane,406.15,1.0,C[Si](O[Si](O[Si](O[Si](O[Si](O[Si](O[Si](C)(C)C)(C)C)(C)C)(C)C)(C)C)(C)C)(C)C,chen14
2900,Gamma-aminopropylethoxysilane,369.26,1.0,NCCC[SiH2]OCC,chen14
2901,Dichlorodiethylsilane,297.15,1.0,Cl[Si](CC)(CC)Cl,chen14
2902,Dimethylchlorosilane,245.15,1.0,C[SiH](Cl)C,chen14