,Unnamed: 0,compound,flashpoint,pure substance,smiles,source
11607,12027,Cyclopentanamine,284.6,1.0,NC1CCCC1,didier14
11608,12028,Ethylbenzene,296.1,1.0,CCc1ccccc1,didier14
11609,12029,"Benzenamine, N-methyl-",351.0,1.0,CNc1ccccc1,didier14
11610,12030,Diphenyl ether,388.1,1.0,c1ccc(Oc2ccccc2)cc1,didier14
11611,12031,2-Ethylhexanol,346.0,1.0,CCCCC(CC)CO,didier14
11612,12032,"1,4-Diethylbenzene",330.0,1.0,CCc1ccc(CC)cc1,didier14
11613,12033,"1-Pentanol, 2-methyl-",323.1,1.0,CCCC(C)CO,didier14
11614,12034,Ethyl propionate,285.0,1.0,CCOC(=O)CC,didier14
11615,12035,"Ethane, 1,1-diethoxy-",286.1,1.0,CCOC(C)OCC,didier14
11616,12036,"2,4-Dimethylphenol",368.1,1.0,Cc1ccc(O)c(C)c1,didier14
11617,12037,3-Heptanone,310.1,1.0,CCCCC(=O)CC,didier14
11618,12038,"1,4-Dimethylbenzene",299.0,1.0,Cc1ccc(C)cc1,didier14
11619,12039,p-Toluidine,360.0,1.0,Cc1ccc(N)cc1,didier14
11620,12040,Isobutyl acrylate,304.3,1.0,C=CC(=O)OCC(C)C,didier14
11621,12041,"Pentane, 3,3-diethyl-",294.0,1.0,CCC(CC)(CC)CC,didier14
11622,12042,"1,3-Butadiene",197.2,1.0,C=CC=C,didier14
11623,12043,1-Propanethiol,253.2,1.0,CCCS,didier14
11624,12044,Propanenitrile,279.1,1.0,CCC#N,didier14
11625,12045,"Heptane, 2,2-dimethyl-",292.1,1.0,CCCCCC(C)(C)C,didier14
11626,12046,"1,2-Ethanediamine",311.0,1.0,NCCN,didier14
11627,12047,"Octane, 2,7-dimethyl-",310.9,1.0,CC(C)CCCCC(C)C,didier14
11628,12048,1-Phenylhexane,356.1,1.0,CCCCCCc1ccccc1,didier14
11629,12049,"Benzene, heptyl-",370.6,1.0,CCCCCCCc1ccccc1,didier14
11630,12050,2-Pentanone,280.0,1.0,CCCC(C)=O,didier14
11631,12051,Butyric acid,345.1,1.0,CCCC(=O)O,didier14
11632,12052,"2-Pentanol, 4-methyl-",314.0,1.0,CC(C)CC(C)O,didier14
11633,12053,Diisopropylamine,266.1,1.0,CC(C)NC(C)C,didier14
11634,12054,Isopropyl ether,245.0,1.0,CC(C)OC(C)C,didier14
11635,12055,"1,3-Dimethylbenzene",298.1,1.0,Cc1cccc(C)c1,didier14
11636,12056,"Phenol, 3-methyl-",359.1,1.0,Cc1cccc(O)c1,didier14
11637,12057,m-Toluidine,359.0,1.0,Cc1cccc(N)c1,didier14
11638,12058,"Pyridine, 2,6-dimethyl-",306.0,1.0,Cc1cccc(C)n1,didier14
11639,12059,Mesitylene,317.6,1.0,Cc1cc(C)cc(C)c1,didier14
11640,12060,"Cyclohexane, methyl-",269.1,1.0,CC1CCCCC1,didier14
11641,12061,Toluene,279.1,1.0,Cc1ccccc1,didier14
11642,12062,"Pyridine, 4-methyl-",312.1,1.0,Cc1ccncc1,didier14
11643,12063,Cyclohexanamine,299.6,1.0,NC1CCCCC1,didier14
11644,12064,Phenol,352.1,1.0,Oc1ccccc1,didier14
11645,12065,"Pyridine, 3-methyl-",309.1,1.0,Cc1cccnc1,didier14
11646,12066,"Pyridine, 2-methyl-",299.1,1.0,Cc1ccccn1,didier14
11647,12067,"Butanoic acid, butyl ester",323.1,1.0,CCCCOC(=O)CCC,didier14
11648,12068,Valeric acid,359.1,1.0,CCCCC(=O)O,didier14
11649,12069,Propyl acetate,283.7,1.0,CCCOC(C)=O,didier14
11650,12070,Pentane,224.2,1.0,CCCCC,didier14
11651,12071,1-Pentene,222.0,1.0,C=CCCC,didier14
11652,12072,1-Chlorobutane,263.8,1.0,CCCCCl,didier14
11653,12073,Butanenitrile,291.1,1.0,CCCC#N,didier14
11654,12074,"1,3-Diaminopropane",322.1,1.0,NCCCN,didier14
11655,12075,Butanethiol,274.1,1.0,CCCCS,didier14
11656,12076,"Ethanol, 2-methoxy-",312.1,1.0,COCCO,didier14
11657,12077,"2-Hexanone, 5-methyl-",308.1,1.0,CC(=O)CCC(C)C,didier14
11658,12078,Isobutyl acetate,291.0,1.0,CC(=O)OCC(C)C,didier14
11659,12079,2-Heptanone,312.1,1.0,CCCCCC(C)=O,didier14
11660,12080,Amylamine,280.1,1.0,CCCCCN,didier14
11661,12081,Valeraldehyde,285.1,1.0,CCCCC=O,didier14
11662,12082,1-Pentanethiol,291.1,1.0,CCCCCS,didier14
11663,12083,"1,2-Dimethoxyethane",271.5,1.0,COCCOC,didier14
11664,12084,Pyridine,293.1,1.0,c1ccncc1,didier14
11665,12085,2-Octanone,329.1,1.0,CCCCCCC(C)=O,didier14
11666,12086,Heptanoic acid,388.1,1.0,CCCCCCC(=O)O,didier14
11667,12087,Pimelic acid,423.1,1.0,O=C(O)CCCCCC(=O)O,didier14
11668,12088,1-Hexanamine,300.1,1.0,CCCCCCN,didier14
11669,12089,Hexyl alcohol,333.1,1.0,CCCCCCO,didier14
11670,12090,1-Hexanethiol,305.6,1.0,CCCCCCS,didier14
11671,12091,n-Butylvinylether,272.0,1.0,C=COCCCC,didier14
11672,12092,Octane,287.1,1.0,CCCCCCCC,didier14
11673,12093,1-Octene,284.6,1.0,C=CCCCCCC,didier14
11674,12094,Heptaldehyde,308.1,1.0,CCCCCCC=O,didier14
11675,12095,Nonane,304.1,1.0,CCCCCCCCC,didier14
11676,12096,1-Octanol,359.7,1.0,CCCCCCCCO,didier14
11677,12097,"Ethanol, 2-(2-ethoxyethoxy)-",363.1,1.0,CCOCCOCCO,didier14
11678,12098,"1-Butanamine, N-butyl-",315.0,1.0,CCCCNCCCC,didier14
11679,12099,Undecane,339.1,1.0,CCCCCCCCCCC,didier14
11680,12100,Acetic acid octyl ester,356.1,1.0,CCCCCCCCOC(C)=O,didier14
11681,12101,Decyl alcohol,377.1,1.0,CCCCCCCCCCO,didier14
11682,12102,Decanal,358.1,1.0,CCCCCCCCCC=O,didier14
11683,12103,1-Dodecene,346.1,1.0,C=CCCCCCCCCCC,didier14
11684,12104,1-Undecanol,386.1,1.0,CCCCCCCCCCCO,didier14
11685,12105,Undecanal,369.1,1.0,CCCCCCCCCCC=O,didier14
11686,12106,1-Dodecanol,400.0,1.0,CCCCCCCCCCCCO,didier14
11687,12107,1-Tetradecanol,421.1,1.0,CCCCCCCCCCCCCCO,didier14
11688,12108,1-Octadecene,421.1,1.0,C=CCCCCCCCCCCCCCCCC,didier14
11689,12109,Triethylamine,262.1,1.0,CCN(CC)CC,didier14
11690,12110,"N,N-Dimethylaniline",348.1,1.0,CN(C)c1ccccc1,didier14
11691,12111,4-Heptanone,307.1,1.0,CCCC(=O)CCC,didier14
11692,12112,Propionaldehyde,243.2,1.0,CCC=O,didier14
11693,12113,"1-Butanol, 3-methyl-",316.0,1.0,CC(C)CCO,didier14
11694,12114,Butyraldehyde,262.1,1.0,CCCC=O,didier14
11695,12115,Butyl acetate,298.1,1.0,CCCCOC(C)=O,didier14
11696,12116,2-Octanol,344.1,1.0,CCCCCCC(C)O,didier14
11697,12117,Octanoic acid,400.1,1.0,CCCCCCCC(=O)O,didier14
11698,12118,"1,6-Hexanediamine",354.1,1.0,NCCCCCCN,didier14
11699,12119,1-Nonene,299.1,1.0,C=CCCCCCCC,didier14
11700,12120,Octanal,324.1,1.0,CCCCCCCC=O,didier14
11701,12121,Decane,322.9,1.0,CCCCCCCCCC,didier14
11702,12122,1-Nonanal,336.1,1.0,CCCCCCCCC=O,didier14
11703,12123,Dimethylamine,223.2,1.0,CNC,didier14
11704,12124,1-Pentadecene,385.1,1.0,C=CCCCCCCCCCCCCC,didier14
11705,12125,"1,2-Diethylbenzene",330.4,1.0,CCc1ccccc1CC,didier14
11706,12126,"1-Butanol, 2-methyl-",316.1,1.0,CCC(C)CO,didier14
11707,12127,sec-Butylamine,254.2,1.0,CCC(C)N,didier14
11708,12128,Ethyl acetate,269.0,1.0,CCOC(C)=O,didier14
11709,12129,"1,3-Diethylbenzene",329.0,1.0,CCc1cccc(CC)c1,didier14
11710,12130,Hexanoic acid,375.1,1.0,CCCCCC(=O)O,didier14
11711,12131,Dipropylamine,280.6,1.0,CCCNCCC,didier14
11712,12132,Lauric acid,437.0,1.0,CCCCCCCCCCCC(=O)O,didier14
11713,12133,1-Nonanol,369.1,1.0,CCCCCCCCCO,didier14
11714,12134,NONYL ACETATE,372.1,1.0,CCCCCCCCCOC(C)=O,didier14
11715,12135,"Hexanoicacid, 2-ethyl-",383.1,1.0,CCCCC(CC)C(=O)O,didier14
11716,12136,1-PROPOXY-2-PROPANOL,321.1,1.0,CCCOCC(C)O,didier14
11717,12137,"Heptane, 3-ethyl-",296.1,1.0,CCCCC(CC)CC,didier14
11718,12138,"Nonane, 5-methyl-",312.0,1.0,CCCCC(C)CCCC,didier14
11719,12139,1-Heptanethiol,323.6,1.0,CCCCCCCS,didier14
11720,12140,"Cyclopentane, ethyl-",273.1,1.0,CCC1CCCC1,didier14
11721,12141,"Cyclohexane, ethyl-",291.1,1.0,CCC1CCCCC1,didier14
11722,12142,"Cyclohexane, butyl-",325.6,1.0,CCCCC1CCCCC1,didier14
11723,12143,"Nonane, 4-methyl-",317.1,1.0,CCCCCC(C)CCC,didier14
11724,12144,"Octane, 3-methyl-",298.6,1.0,CCCCCC(C)CC,didier14
11725,12145,"Octane, 4-methyl-",296.1,1.0,CCCCC(C)CCC,didier14
11726,12146,"Ethanol, 2-propoxy-",322.1,1.0,CCCOCCO,didier14
11727,12147,"Octane, 2-methyl-",299.1,1.0,CCCCCCC(C)C,didier14
11728,12148,Decanoic acid,421.1,1.0,CCCCCCCCCC(=O)O,didier14
11729,12149,"1-Hexene, 3-methyl-",267.1,1.0,C=CC(C)CCC,didier14
11730,12150,"1,2,3,4-Tetramethylbenzene",347.1,1.0,Cc1ccc(C)c(C)c1C,didier14
11731,12151,5-Nonanone,338.1,1.0,CCCCC(=O)CCCC,didier14
11732,12152,1-Butoxy-2-propanol,332.1,1.0,CCCCOCC(C)O,didier14
11733,12153,"2-Butene, 2-methyl-",228.2,1.0,CC=C(C)C,didier14
11734,12154,"1,2,3-Trimethylbenzene",324.1,1.0,Cc1cccc(C)c1C,didier14
11735,12155,"2,3-Dimethylphenol",368.1,1.0,Cc1cccc(O)c1C,didier14
11736,12156,"Benzene, pentyl-",339.1,1.0,CCCCCc1ccccc1,didier14
11737,12157,2-Heptanol,332.1,1.0,CCCCCC(C)O,didier14
11738,12158,"Pentane, 1-chloro-",284.1,1.0,CCCCCCl,didier14
11739,12159,Hexadecane,407.1,1.0,CCCCCCCCCCCCCCCC,didier14
11740,12160,"1-Butene, 3,3-dimethyl-",241.2,1.0,C=CC(C)(C)C,didier14
11741,12161,"1-Butene, 3-methyl-",217.2,1.0,C=CC(C)C,didier14
11742,12162,"2-Butene, 2,3-dimethyl-",257.1,1.0,CC(C)=C(C)C,didier14
11743,12163,3-Methyl-2-butanone,272.1,1.0,CC(=O)C(C)C,didier14
11744,12164,"2-Pentanone, 3-methyl-",285.1,1.0,CCC(C)C(C)=O,didier14
11745,12165,"3-Pentanone, 2-methyl-",286.1,1.0,CCC(=O)C(C)C,didier14
11746,12166,Stearic acid,469.0,1.0,CCCCCCCCCCCCCCCCCC(=O)O,didier14
11747,12167,"2,6-Dimethylphenol",358.1,1.0,Cc1cccc(C)c1O,didier14
11748,12168,"Hexane, 3,4-dimethyl-",280.6,1.0,CCC(C)C(C)CC,didier14
11749,12169,3-Pentanol,303.1,1.0,CCC(O)CC,didier14
11750,12170,"1-Pentanol, 3-methyl-",331.1,1.0,CCC(C)CCO,didier14
11751,12171,"Hexane, 2,4-dimethyl-",276.1,1.0,CCC(C)CC(C)C,didier14
11752,12172,"Heptane, 4-methyl-",279.1,1.0,CCCC(C)CCC,didier14
11753,12173,"Heptane, 3-methyl-",279.1,1.0,CCCCC(C)CC,didier14
11754,12174,"Nonane, 3-methyl-",319.1,1.0,CCCCCCC(C)CC,didier14
11755,12175,2-Hexanone,296.1,1.0,CCCCC(C)=O,didier14
11756,12176,Allyl acetate,283.0,1.0,C=CCOC(C)=O,didier14
11757,12177,"Hexane, 2,5-dimethyl-",275.1,1.0,CC(C)CCC(C)C,didier14
11758,12178,"Heptane, 2-methyl-",279.1,1.0,CCCCCC(C)C,didier14
11759,12179,1-Hexene,247.2,1.0,C=CCCCC,didier14
11760,12180,1-Heptene,265.1,1.0,C=CCCCCC,didier14
11761,12181,"2,2-Dimethylbutyric acid",352.1,1.0,CCC(C)(C)C(=O)O,didier14
11762,12182,"2-Butanol, 3-methyl-",299.1,1.0,CC(C)C(C)O,didier14
11763,12183,Diethyl ether,228.2,1.0,CCOCC,didier14
11764,12184,2-Pentanol,307.1,1.0,CCCC(C)O,didier14
11765,12185,"1-Hexene, 2-methyl-",267.1,1.0,C=C(C)CCCC,didier14
11766,12186,"Hexane, 3-ethyl-",278.0,1.0,CCCC(CC)CC,didier14
11767,12187,m-Ethyltoluene,311.1,1.0,CCc1cccc(C)c1,didier14
11768,12188,"Cyclohexane, 1,4-dimethyl-, cis-",284.3,1.0,C[C@H]1CC[C@@H](C)CC1,didier14
11769,12189,Aniline,344.1,1.0,Nc1ccccc1,didier14
11770,12190,2-Hexanol,318.1,1.0,CCCCC(C)O,didier14
11771,12191,"Propane, 1-ethoxy-",253.2,1.0,CCCOCC,didier14
11772,12192,Amyl acetate,310.1,1.0,CCCCCOC(C)=O,didier14
11773,12193,Hexanenitrile,316.1,1.0,CCCCCC#N,didier14
11774,12194,Tridecane,363.1,1.0,CCCCCCCCCCCCC,didier14
11775,12195,Tetradecane,382.4,1.0,CCCCCCCCCCCCCC,didier14
11776,12196,1-Hexadecene,402.1,1.0,C=CCCCCCCCCCCCCCC,didier14
11777,12197,Heptadecane,421.1,1.0,CCCCCCCCCCCCCCCCC,didier14
11778,12198,Nonadecane,441.0,1.0,CCCCCCCCCCCCCCCCCCC,didier14
11779,12199,Ethanol,286.1,1.0,CCO,didier14
11780,12200,Benzoic acid,394.3,1.0,O=C(O)c1ccccc1,didier14
11781,12201,1-HEXANAL,300.0,1.0,CCCCCC=O,didier14
11782,12202,Isopropanol,285.1,1.0,CC(C)O,didier14
11783,12203,1-Propanol,297.6,1.0,CCCO,didier14
11784,12204,1-Butanol,310.5,1.0,CCCCO,didier14
11785,12205,1-Pentanol,322.1,1.0,CCCCCO,didier14
11786,12206,Benzene,262.0,1.0,c1ccccc1,didier14
11787,12207,"Pentane, 2,2,3,3-tetramethyl-",294.6,1.0,CCC(C)(C)C(C)(C)C,didier14
11788,12208,"3,3,5-Trimethylheptane",304.0,1.0,CCC(C)CC(C)(C)CC,didier14
11789,12209,Dimethyl sulfide,237.2,1.0,CSC,didier14
11790,12210,2-Chloropropane,238.2,1.0,CC(C)Cl,didier14
11791,12211,Isopropylamine,236.2,1.0,CC(C)N,didier14
11792,12212,2-Propanethiol,239.0,1.0,CC(C)S,didier14
11793,12213,"Ethane, 1,1-dichloro-",263.1,1.0,CC(Cl)Cl,didier14
11794,12214,tert-Butanol,284.3,1.0,CC(C)(C)O,didier14
11795,12215,"2-Butanol, 2-methyl-",292.1,1.0,CCC(C)(C)O,didier14
11796,12216,Pinacolone,282.1,1.0,CC(=O)C(C)(C)C,didier14
11797,12217,"1-Pentene, 3-methyl-",245.2,1.0,C=CC(C)CC,didier14
11798,12218,"3-Pentanol, 3-methyl-",297.1,1.0,CCC(C)(O)CC,didier14
11799,12219,"1,2-Dimethoxypropane",273.1,1.0,COCC(C)OC,didier14
11800,12220,2-Methyl-1-propanol,302.3,1.0,CC(C)CO,didier14
11801,12221,"Butane, 2-chloro-",258.1,1.0,CCC(C)Cl,didier14
11802,12222,sec-Butanol,296.1,1.0,CCC(C)O,didier14
11803,12223,Methyl acetate,260.1,1.0,COC(C)=O,didier14
11804,12224,2-Nonanone,345.5,1.0,CCCCCCCC(C)=O,didier14
11805,12225,"1,1':2',1''-Terphenyl",436.0,1.0,c1ccc(-c2ccccc2-c2ccccc2)cc1,didier14
11806,12226,"Nonane, 2-methyl-",314.0,1.0,CCCCCCCC(C)C,didier14
11807,12227,1-Decene,320.1,1.0,C=CCCCCCCCC,didier14
11808,12228,"Phenol, 2-ethyl-",358.1,1.0,CCc1ccccc1O,didier14
11809,12229,3-Nonanone,339.1,1.0,CCCCCCC(=O)CC,didier14
11810,12230,6-Undecanone,361.5,1.0,CCCCCC(=O)CCCCC,didier14
11811,12231,p-Terphenyl,480.0,1.0,c1ccc(-c2ccc(-c3ccccc3)cc2)cc1,didier14
11812,12232,"1,2-Dimethylbenzene",305.1,1.0,Cc1ccccc1C,didier14
11813,12233,"Benzenamine, 2-methyl-",358.1,1.0,Cc1ccccc1N,didier14
11814,12234,"1,2,4-TRIMETHYL BENZENE",318.6,1.0,Cc1ccc(C)c(C)c1,didier14
11815,12235,"1,2,4,5-Tetramethylbenzene",346.1,1.0,Cc1cc(C)c(C)cc1C,didier14
11816,12236,3-Pentanone,280.1,1.0,CCC(=O)CC,didier14
11817,12237,2-Ethyl-1-butanol,326.1,1.0,CCC(CC)CO,didier14
11818,12238,p-DIMETHYLAMINOBENZALDEHYDE,420.1,1.0,CN(C)c1ccc(C=O)cc1,didier14
11819,12239,p-DIISOPROPYLBENZENE,354.1,1.0,CC(C)c1ccc(C(C)C)cc1,didier14
11820,12240,3-METHYLUNDECANE,344.0,1.0,CCCCCCCCC(C)CC,didier14
11821,12241,n-PENTADECANOIC ACID,454.0,1.0,CCCCCCCCCCCCCCC(=O)O,didier14
11822,12242,DIETHYLETHANOLAMINE,321.1,1.0,CCN(CC)CCO,didier14
11823,12243,STYRENE,305.0,1.0,C=Cc1ccccc1,didier14
11824,12244,BENZYL CHLORIDE,333.1,1.0,ClCc1ccccc1,didier14
11825,12245,BENZYLAMINE,333.1,1.0,NCc1ccccc1,didier14
11826,12246,BENZONITRILE,344.1,1.0,N#Cc1ccccc1,didier14
11827,12247,BENZYL ALCOHOL,366.1,1.0,OCc1ccccc1,didier14
11828,12248,BENZALDEHYDE,335.1,1.0,O=Cc1ccccc1,didier14
11829,12249,BENZYL MERCAPTAN,343.1,1.0,SCc1ccccc1,didier14
11830,12250,NICOTINONITRILE,357.1,1.0,N#Cc1cccnc1,didier14
11831,12251,ANISOLE,325.1,1.0,COc1ccccc1,didier14
11832,12252,METHYL PHENYL SULFIDE,342.0,1.0,CSc1ccccc1,didier14
11833,12253,m-METHYLSTYRENE,324.1,1.0,C=Cc1cccc(C)c1,didier14
11834,12254,"1,4-DI-tert-BUTYLBENZENE",361.0,1.0,CC(C)(C)c1ccc(C(C)(C)C)cc1,didier14
11835,12255,DIPHENYLMETHANE,403.1,1.0,c1ccc(Cc2ccccc2)cc1,didier14
11836,12256,"1,3,5-TRIETHYLBENZENE",354.1,1.0,CCc1cc(CC)cc(CC)c1,didier14
11837,12257,TRIPROPYLAMINE,302.0,1.0,CCCN(CCC)CCC,didier14
11838,12258,TRIALLYLAMINE,304.0,1.0,C=CCN(CC=C)CC=C,didier14
11839,12259,TRI-n-BUTYLAMINE,359.3,1.0,CCCCN(CCCC)CCCC,didier14
11840,12260,2-ETHYLHEXYL ACETATE,344.1,1.0,CCCCC(CC)COC(C)=O,didier14
11841,12261,2-ETHYLHEXYL ACRYLATE,355.1,1.0,C=CC(=O)OCC(CC)CCCC,didier14
11842,12262,"1,2-DIPHENYLETHANE",402.0,1.0,c1ccc(CCc2ccccc2)cc1,didier14
11843,12263,trans-STILBENE,418.0,1.0,C(=C/c1ccccc1)\c1ccccc1,didier14
11844,12264,DIBENZYL ETHER,408.1,1.0,c1ccc(COCc2ccccc2)cc1,didier14
11845,12265,PHENETOLE,325.0,1.0,CCOc1ccccc1,didier14
11846,12266,ANETHOLE,362.1,1.0,CC=Cc1ccc(OC)cc1,didier14
11847,12267,n-BUTYLBENZENE,323.1,1.0,CCCCc1ccccc1,didier14
11848,12268,BENZYL FORMATE,355.0,1.0,O=COCc1ccccc1,didier14
11849,12269,n-DECYLBENZENE,380.0,1.0,CCCCCCCCCCc1ccccc1,didier14
11850,12270,TRIDECANAL,390.0,1.0,CCCCCCCCCCCCC=O,didier14
11851,12271,p-TOLUALDEHYDE,353.0,1.0,Cc1ccc(C=O)cc1,didier14
11852,12272,2-METHYL-1-UNDECANOL,392.0,1.0,CCCCCCCCCC(C)CO,didier14
11853,12273,VINYL PROPIONATE,274.0,1.0,C=COC(=O)CC,didier14
11854,12274,DIETHYL CARBONATE,298.1,1.0,CCOC(=O)OCC,didier14
11855,12275,BUTYRIC ANHYDRIDE,355.0,1.0,CCCC(=O)OC(=O)CCC,didier14
11856,12276,p-CHLOROTOLUENE,325.0,1.0,Cc1ccc(Cl)cc1,didier14
11857,12277,3-OCTANONE,316.1,1.0,CCCCCC(=O)CC,didier14
11858,12278,n-BUTANE,199.2,1.0,CCCC,didier14
11859,12279,1-BUTENE,193.2,1.0,C=CCC,didier14
11860,12280,ACROLEIN,247.2,1.0,C=CC=O,didier14
11861,12281,3-CHLOROPROPENE,241.2,1.0,C=CCCl,didier14
11862,12282,n-PROPYLAMINE,261.0,1.0,CCCN,didier14
11863,12283,ALLYLAMINE,244.3,1.0,C=CCN,didier14
11864,12284,ACRYLONITRILE,273.1,1.0,C=CC#N,didier14
11865,12285,"2,2,5,5-TETRAMETHYLHEXANE",289.0,1.0,CC(C)(C)CCC(C)(C)C,didier14
11866,12286,ALLYL ALCOHOL,294.0,1.0,C=CCO,didier14
11867,12287,"2,6-DIMETHYLHEPTANE",299.0,1.0,CC(C)CCCC(C)C,didier14
11868,12288,METHYL VINYL ETHER,217.2,1.0,C=COC,didier14
11869,12289,ACETALDOXIME,313.1,1.0,CC=NO,didier14
11870,12290,METHYL FORMATE,254.0,1.0,COC=O,didier14
11871,12291,"2,4,4-TRIMETHYL-1-PENTENE",267.1,1.0,C=C(C)CC(C)(C)C,didier14
11872,12292,"2,4,4-TRIMETHYL-2-PENTENE",272.1,1.0,CC(C)=CC(C)(C)C,didier14
11873,12293,1-METHYL-2-n-PROPYLBENZENE,326.0,1.0,CCCc1ccccc1C,didier14
11874,12294,1-METHYL-3-n-PROPYLBENZENE,325.0,1.0,CCCc1cccc(C)c1,didier14
11875,12295,1-METHYL-4-n-PROPYLBENZENE,326.0,1.0,CCCc1ccc(C)cc1,didier14
11876,12296,DI-tert-BUTYL SULFIDE,300.0,1.0,CC(C)(C)SC(C)(C)C,didier14
11877,12297,2-METHYLPENTANE,238.0,1.0,CCCC(C)C,didier14
11878,12298,trans-CROTONIC ACID,368.0,1.0,C/C=C/C(=O)O,didier14
11879,12299,DIMETHYLETHANOLAMINE,314.1,1.0,CN(C)CCO,didier14
11880,12300,VINYL ACETATE,265.0,1.0,C=COC(C)=O,didier14
11881,12301,"2,4-DIMETHYLPENTANE",261.0,1.0,CC(C)CC(C)C,didier14
11882,12302,n-NONYLBENZENE,372.0,1.0,CCCCCCCCCc1ccccc1,didier14
11883,12303,ISOPROPYL ACETATE,275.0,1.0,CC(=O)OC(C)C,didier14
11884,12304,1-METHYLVINYL ACETATE,283.0,1.0,C=C(C)OC(C)=O,didier14
11885,12305,ACETIC ANHYDRIDE,322.6,1.0,CC(=O)OC(C)=O,didier14
11886,12306,m-DIVINYLBENZENE,338.0,1.0,C=Cc1cccc(C=C)c1,didier14
11887,12307,ETHYL ISOVALERATE,298.1,1.0,CCOC(=O)CC(C)C,didier14
11888,12308,"3,5-XYLENOL",373.0,1.0,Cc1cc(C)cc(O)c1,didier14
11889,12309,"2,4,6-TRIMETHYLPYRIDINE",330.1,1.0,Cc1cc(C)nc(C)c1,didier14
11890,12310,"2,6-DIMETHYL-4-HEPTANOL",339.0,1.0,CC(C)CC(O)CC(C)C,didier14
11891,12311,MONOCHLOROBENZENE,305.0,1.0,Clc1ccccc1,didier14
11892,12312,PHENYL MERCAPTAN,346.1,1.0,Sc1ccccc1,didier14
11893,12313,5-HEXEN-2-ONE,296.1,1.0,C=CCCC(C)=O,didier14
11894,12314,n-BUTYLAMINE,261.0,1.0,CCCCN,didier14
11895,12315,VINYLACETONITRILE,296.1,1.0,C=CCC#N,didier14
11896,12316,DIVINYL ETHER,226.2,1.0,C=COC=C,didier14
11897,12317,ETHYL FORMATE,253.2,1.0,CCOC=O,didier14
11898,12318,DI-tert-BUTYL DISULFIDE,337.1,1.0,CC(C)(C)SSC(C)(C)C,didier14
11899,12319,TETRAMETHYLETHYLENEDIAMINE,283.1,1.0,CN(C)CCN(C)C,didier14
11900,12320,ISOPROPYL MYRISTATE,423.0,1.0,CCCCCCCCCCCCCC(=O)OC(C)C,didier14
11901,12321,VALERONITRILE,305.0,1.0,CCCCC#N,didier14
11902,12322,n-PROPYL FORMATE,270.0,1.0,CCCOC=O,didier14
11903,12323,ETHYLTHIOETHANOL,350.1,1.0,CCSC(C)O,didier14
11904,12324,DIETHYL DISULFIDE,313.1,1.0,CCSSCC,didier14
11905,12325,DIISOBUTYLAMINE,294.1,1.0,CC(C)CNCC(C)C,didier14
11906,12326,DI-n-PROPYL ETHER,294.1,1.0,CCCOCCC,didier14
11907,12327,DI-n-PROPYL SULFIDE,301.0,1.0,CCCSCCC,didier14
11908,12328,"3-METHYL-1,4-PENTADIENE",235.0,1.0,C=CC(C)C=C,didier14
11909,12329,TRI-n-OCTYLAMINE,457.0,1.0,CCCCCCCCN(CCCCCCCC)CCCCCCCC,didier14
11910,12330,n-HEPTYLAMINE,308.1,1.0,CCCCCCCN,didier14
11911,12331,1-HEPTANOL,345.0,1.0,CCCCCCCO,didier14
11912,12332,METHYL DODECANOATE,391.0,1.0,CCCCCCCCCCCC(=O)OC,didier14
11913,12333,n-OCTYLAMINE,333.0,1.0,CCCCCCCCN,didier14
11914,12334,n-OCTYL MERCAPTAN,341.1,1.0,CCCCCCCCS,didier14
11915,12335,1-TETRADECENE,370.0,1.0,C=CCCCCCCCCCCCC,didier14
11916,12336,DI-n-OCTYLAMINE,383.1,1.0,CCCCCCCCNCCCCCCCC,didier14
11917,12337,n-NONANOIC ACID,401.0,1.0,CCCCCCCCC(=O)O,didier14
11918,12338,n-HEPTYL ACETATE,340.0,1.0,CCCCCCCOC(C)=O,didier14
11919,12339,n-NONYLAMINE,335.1,1.0,CCCCCCCCCN,didier14
11920,12340,n-HEPTYL FORMATE,327.0,1.0,CCCCCCCOC=O,didier14
11921,12341,n-UNDECANOIC ACID,421.1,1.0,CCCCCCCCCCC(=O)O,didier14
11922,12342,2-PHENYL-1-PROPANOL,366.1,1.0,CC(CO)c1ccccc1,didier14
11923,12343,n-DODECANE,347.0,1.0,CCCCCCCCCCCC,didier14
11924,12344,DI-n-HEXYL ETHER,350.1,1.0,CCCCCCOCCCCCC,didier14
11925,12345,METHYL OLEATE,450.0,1.0,CCCCCCCC/C=C\CCCCCCCC(=O)OC,didier14
11926,12346,1-TRIDECANOL,394.0,1.0,CCCCCCCCCCCCCO,didier14
11927,12347,OLEIC ACID,462.0,1.0,CCCCCCCC/C=C\CCCCCCCC(=O)O,didier14
11928,12348,1-OCTADECANOL,450.0,1.0,CCCCCCCCCCCCCCCCCCO,didier14
11929,12349,n-EICOSANE,440.0,1.0,CCCCCCCCCCCCCCCCCCCC,didier14
11930,12350,ISOBUTENE,197.0,1.0,C=C(C)C,didier14
11931,12351,2-METHYLBUTYRIC ACID,348.0,1.0,CCC(C)C(=O)O,didier14
11932,12352,NEOHEPTANOIC ACID,366.0,1.0,CC(C)(C)CCC(=O)O,didier14
11933,12353,o-TOLUIC ACID,407.0,1.0,Cc1ccccc1C(=O)O,didier14
11934,12354,BENZOPHENONE,419.0,1.0,O=C(c1ccccc1)c1ccccc1,didier14
11935,12355,BENZYL BENZOATE,418.1,1.0,O=C(OCc1ccccc1)c1ccccc1,didier14