,compound,flashpoint,pure substance,smiles,source
12027,Cyclopentanamine,284.6,1.0,NC1CCCC1,didier14
12028,Ethylbenzene,296.1,1.0,CCc1ccccc1,didier14
12029,"Benzenamine, N-methyl-",351.0,1.0,CNc1ccccc1,didier14
12030,Diphenyl ether,388.1,1.0,c1ccc(Oc2ccccc2)cc1,didier14
12031,2-Ethylhexanol,346.0,1.0,CCCCC(CC)CO,didier14
12032,"1,4-Diethylbenzene",330.0,1.0,CCc1ccc(CC)cc1,didier14
12033,"1-Pentanol, 2-methyl-",323.1,1.0,CCCC(C)CO,didier14
12034,Ethyl propionate,285.0,1.0,CCOC(=O)CC,didier14
12035,"Ethane, 1,1-diethoxy-",286.1,1.0,CCOC(C)OCC,didier14
12036,"2,4-Dimethylphenol",368.1,1.0,Cc1ccc(O)c(C)c1,didier14
12037,3-Heptanone,310.1,1.0,CCCCC(=O)CC,didier14
12038,"1,4-Dimethylbenzene",299.0,1.0,Cc1ccc(C)cc1,didier14
12039,p-Toluidine,360.0,1.0,Cc1ccc(N)cc1,didier14
12040,Isobutyl acrylate,304.3,1.0,C=CC(=O)OCC(C)C,didier14
12041,"Pentane, 3,3-diethyl-",294.0,1.0,CCC(CC)(CC)CC,didier14
12042,"1,3-Butadiene",197.2,1.0,C=CC=C,didier14
12043,1-Propanethiol,253.2,1.0,CCCS,didier14
12044,Propanenitrile,279.1,1.0,CCC#N,didier14
12045,"Heptane, 2,2-dimethyl-",292.1,1.0,CCCCCC(C)(C)C,didier14
12046,"1,2-Ethanediamine",311.0,1.0,NCCN,didier14
12047,"Octane, 2,7-dimethyl-",310.9,1.0,CC(C)CCCCC(C)C,didier14
12048,1-Phenylhexane,356.1,1.0,CCCCCCc1ccccc1,didier14
12049,"Benzene, heptyl-",370.6,1.0,CCCCCCCc1ccccc1,didier14
12050,2-Pentanone,280.0,1.0,CCCC(C)=O,didier14
12051,Butyric acid,345.1,1.0,CCCC(=O)O,didier14
12052,"2-Pentanol, 4-methyl-",314.0,1.0,CC(C)CC(C)O,didier14
12053,Diisopropylamine,266.1,1.0,CC(C)NC(C)C,didier14
12054,Isopropyl ether,245.0,1.0,CC(C)OC(C)C,didier14
12055,"1,3-Dimethylbenzene",298.1,1.0,Cc1cccc(C)c1,didier14
12056,"Phenol, 3-methyl-",359.1,1.0,Cc1cccc(O)c1,didier14
12057,m-Toluidine,359.0,1.0,Cc1cccc(N)c1,didier14
12058,"Pyridine, 2,6-dimethyl-",306.0,1.0,Cc1cccc(C)n1,didier14
12059,Mesitylene,317.6,1.0,Cc1cc(C)cc(C)c1,didier14
12060,"Cyclohexane, methyl-",269.1,1.0,CC1CCCCC1,didier14
12061,Toluene,279.1,1.0,Cc1ccccc1,didier14
12062,"Pyridine, 4-methyl-",312.1,1.0,Cc1ccncc1,didier14
12063,Cyclohexanamine,299.6,1.0,NC1CCCCC1,didier14
12064,Phenol,352.1,1.0,Oc1ccccc1,didier14
12065,"Pyridine, 3-methyl-",309.1,1.0,Cc1cccnc1,didier14
12066,"Pyridine, 2-methyl-",299.1,1.0,Cc1ccccn1,didier14
12067,"Butanoic acid, butyl ester",323.1,1.0,CCCCOC(=O)CCC,didier14
12068,Valeric acid,359.1,1.0,CCCCC(=O)O,didier14
12069,Propyl acetate,283.7,1.0,CCCOC(C)=O,didier14
12070,Pentane,224.2,1.0,CCCCC,didier14
12071,1-Pentene,222.0,1.0,C=CCCC,didier14
12072,1-Chlorobutane,263.8,1.0,CCCCCl,didier14
12073,Butanenitrile,291.1,1.0,CCCC#N,didier14
12074,"1,3-Diaminopropane",322.1,1.0,NCCCN,didier14
12075,Butanethiol,274.1,1.0,CCCCS,didier14
12076,"Ethanol, 2-methoxy-",312.1,1.0,COCCO,didier14
12077,"2-Hexanone, 5-methyl-",308.1,1.0,CC(=O)CCC(C)C,didier14
12078,Isobutyl acetate,291.0,1.0,CC(=O)OCC(C)C,didier14
12079,2-Heptanone,312.1,1.0,CCCCCC(C)=O,didier14
12080,Amylamine,280.1,1.0,CCCCCN,didier14
12081,Valeraldehyde,285.1,1.0,CCCCC=O,didier14
12082,1-Pentanethiol,291.1,1.0,CCCCCS,didier14
12083,"1,2-Dimethoxyethane",271.5,1.0,COCCOC,didier14
12084,Pyridine,293.1,1.0,c1ccncc1,didier14
12085,2-Octanone,329.1,1.0,CCCCCCC(C)=O,didier14
12086,Heptanoic acid,388.1,1.0,CCCCCCC(=O)O,didier14
12087,Pimelic acid,423.1,1.0,O=C(O)CCCCCC(=O)O,didier14
12088,1-Hexanamine,300.1,1.0,CCCCCCN,didier14
12089,Hexyl alcohol,333.1,1.0,CCCCCCO,didier14
12090,1-Hexanethiol,305.6,1.0,CCCCCCS,didier14
12091,n-Butylvinylether,272.0,1.0,C=COCCCC,didier14
12092,Octane,287.1,1.0,CCCCCCCC,didier14
12093,1-Octene,284.6,1.0,C=CCCCCCC,didier14
12094,Heptaldehyde,308.1,1.0,CCCCCCC=O,didier14
12095,Nonane,304.1,1.0,CCCCCCCCC,didier14
12096,1-Octanol,359.7,1.0,CCCCCCCCO,didier14
12097,"Ethanol, 2-(2-ethoxyethoxy)-",363.1,1.0,CCOCCOCCO,didier14
12098,"1-Butanamine, N-butyl-",315.0,1.0,CCCCNCCCC,didier14
12099,Undecane,339.1,1.0,CCCCCCCCCCC,didier14
12100,Acetic acid octyl ester,356.1,1.0,CCCCCCCCOC(C)=O,didier14
12101,Decyl alcohol,377.1,1.0,CCCCCCCCCCO,didier14
12102,Decanal,358.1,1.0,CCCCCCCCCC=O,didier14
12103,1-Dodecene,346.1,1.0,C=CCCCCCCCCCC,didier14
12104,1-Undecanol,386.1,1.0,CCCCCCCCCCCO,didier14
12105,Undecanal,369.1,1.0,CCCCCCCCCCC=O,didier14
12106,1-Dodecanol,400.0,1.0,CCCCCCCCCCCCO,didier14
12107,1-Tetradecanol,421.1,1.0,CCCCCCCCCCCCCCO,didier14
12108,1-Octadecene,421.1,1.0,C=CCCCCCCCCCCCCCCCC,didier14
12109,Triethylamine,262.1,1.0,CCN(CC)CC,didier14
12110,"N,N-Dimethylaniline",348.1,1.0,CN(C)c1ccccc1,didier14
12111,4-Heptanone,307.1,1.0,CCCC(=O)CCC,didier14
12112,Propionaldehyde,243.2,1.0,CCC=O,didier14
12113,"1-Butanol, 3-methyl-",316.0,1.0,CC(C)CCO,didier14
12114,Butyraldehyde,262.1,1.0,CCCC=O,didier14
12115,Butyl acetate,298.1,1.0,CCCCOC(C)=O,didier14
12116,2-Octanol,344.1,1.0,CCCCCCC(C)O,didier14
12117,Octanoic acid,400.1,1.0,CCCCCCCC(=O)O,didier14
12118,"1,6-Hexanediamine",354.1,1.0,NCCCCCCN,didier14
12119,1-Nonene,299.1,1.0,C=CCCCCCCC,didier14
12120,Octanal,324.1,1.0,CCCCCCCC=O,didier14
12121,Decane,322.9,1.0,CCCCCCCCCC,didier14
12122,1-Nonanal,336.1,1.0,CCCCCCCCC=O,didier14
12123,Dimethylamine,223.2,1.0,CNC,didier14
12124,1-Pentadecene,385.1,1.0,C=CCCCCCCCCCCCCC,didier14
12125,"1,2-Diethylbenzene",330.4,1.0,CCc1ccccc1CC,didier14
12126,"1-Butanol, 2-methyl-",316.1,1.0,CCC(C)CO,didier14
12127,sec-Butylamine,254.2,1.0,CCC(C)N,didier14
12128,Ethyl acetate,269.0,1.0,CCOC(C)=O,didier14
12129,"1,3-Diethylbenzene",329.0,1.0,CCc1cccc(CC)c1,didier14
12130,Hexanoic acid,375.1,1.0,CCCCCC(=O)O,didier14
12131,Dipropylamine,280.6,1.0,CCCNCCC,didier14
12132,Lauric acid,437.0,1.0,CCCCCCCCCCCC(=O)O,didier14
12133,1-Nonanol,369.1,1.0,CCCCCCCCCO,didier14
12134,NONYL ACETATE,372.1,1.0,CCCCCCCCCOC(C)=O,didier14
12135,"Hexanoicacid, 2-ethyl-",383.1,1.0,CCCCC(CC)C(=O)O,didier14
12136,1-PROPOXY-2-PROPANOL,321.1,1.0,CCCOCC(C)O,didier14
12137,"Heptane, 3-ethyl-",296.1,1.0,CCCCC(CC)CC,didier14
12138,"Nonane, 5-methyl-",312.0,1.0,CCCCC(C)CCCC,didier14
12139,1-Heptanethiol,323.6,1.0,CCCCCCCS,didier14
12140,"Cyclopentane, ethyl-",273.1,1.0,CCC1CCCC1,didier14
12141,"Cyclohexane, ethyl-",291.1,1.0,CCC1CCCCC1,didier14
12142,"Cyclohexane, butyl-",325.6,1.0,CCCCC1CCCCC1,didier14
12143,"Nonane, 4-methyl-",317.1,1.0,CCCCCC(C)CCC,didier14
12144,"Octane, 3-methyl-",298.6,1.0,CCCCCC(C)CC,didier14
12145,"Octane, 4-methyl-",296.1,1.0,CCCCC(C)CCC,didier14
12146,"Ethanol, 2-propoxy-",322.1,1.0,CCCOCCO,didier14
12147,"Octane, 2-methyl-",299.1,1.0,CCCCCCC(C)C,didier14
12148,Decanoic acid,421.1,1.0,CCCCCCCCCC(=O)O,didier14
12149,"1-Hexene, 3-methyl-",267.1,1.0,C=CC(C)CCC,didier14
12150,"1,2,3,4-Tetramethylbenzene",347.1,1.0,Cc1ccc(C)c(C)c1C,didier14
12151,5-Nonanone,338.1,1.0,CCCCC(=O)CCCC,didier14
12152,1-Butoxy-2-propanol,332.1,1.0,CCCCOCC(C)O,didier14
12153,"2-Butene, 2-methyl-",228.2,1.0,CC=C(C)C,didier14
12154,"1,2,3-Trimethylbenzene",324.1,1.0,Cc1cccc(C)c1C,didier14
12155,"2,3-Dimethylphenol",368.1,1.0,Cc1cccc(O)c1C,didier14
12156,"Benzene, pentyl-",339.1,1.0,CCCCCc1ccccc1,didier14
12157,2-Heptanol,332.1,1.0,CCCCCC(C)O,didier14
12158,"Pentane, 1-chloro-",284.1,1.0,CCCCCCl,didier14
12159,Hexadecane,407.1,1.0,CCCCCCCCCCCCCCCC,didier14
12160,"1-Butene, 3,3-dimethyl-",241.2,1.0,C=CC(C)(C)C,didier14
12161,"1-Butene, 3-methyl-",217.2,1.0,C=CC(C)C,didier14
12162,"2-Butene, 2,3-dimethyl-",257.1,1.0,CC(C)=C(C)C,didier14
12163,3-Methyl-2-butanone,272.1,1.0,CC(=O)C(C)C,didier14
12164,"2-Pentanone, 3-methyl-",285.1,1.0,CCC(C)C(C)=O,didier14
12165,"3-Pentanone, 2-methyl-",286.1,1.0,CCC(=O)C(C)C,didier14
12166,Stearic acid,469.0,1.0,CCCCCCCCCCCCCCCCCC(=O)O,didier14
12167,"2,6-Dimethylphenol",358.1,1.0,Cc1cccc(C)c1O,didier14
12168,"Hexane, 3,4-dimethyl-",280.6,1.0,CCC(C)C(C)CC,didier14
12169,3-Pentanol,303.1,1.0,CCC(O)CC,didier14
12170,"1-Pentanol, 3-methyl-",331.1,1.0,CCC(C)CCO,didier14
12171,"Hexane, 2,4-dimethyl-",276.1,1.0,CCC(C)CC(C)C,didier14
12172,"Heptane, 4-methyl-",279.1,1.0,CCCC(C)CCC,didier14
12173,"Heptane, 3-methyl-",279.1,1.0,CCCCC(C)CC,didier14
12174,"Nonane, 3-methyl-",319.1,1.0,CCCCCCC(C)CC,didier14
12175,2-Hexanone,296.1,1.0,CCCCC(C)=O,didier14
12176,Allyl acetate,283.0,1.0,C=CCOC(C)=O,didier14
12177,"Hexane, 2,5-dimethyl-",275.1,1.0,CC(C)CCC(C)C,didier14
12178,"Heptane, 2-methyl-",279.1,1.0,CCCCCC(C)C,didier14
12179,1-Hexene,247.2,1.0,C=CCCCC,didier14
12180,1-Heptene,265.1,1.0,C=CCCCCC,didier14
12181,"2,2-Dimethylbutyric acid",352.1,1.0,CCC(C)(C)C(=O)O,didier14
12182,"2-Butanol, 3-methyl-",299.1,1.0,CC(C)C(C)O,didier14
12183,Diethyl ether,228.2,1.0,CCOCC,didier14
12184,2-Pentanol,307.1,1.0,CCCC(C)O,didier14
12185,"1-Hexene, 2-methyl-",267.1,1.0,C=C(C)CCCC,didier14
12186,"Hexane, 3-ethyl-",278.0,1.0,CCCC(CC)CC,didier14
12187,m-Ethyltoluene,311.1,1.0,CCc1cccc(C)c1,didier14
12188,"Cyclohexane, 1,4-dimethyl-, cis-",284.3,1.0,C[C@H]1CC[C@@H](C)CC1,didier14
12189,Aniline,344.1,1.0,Nc1ccccc1,didier14
12190,2-Hexanol,318.1,1.0,CCCCC(C)O,didier14
12191,"Propane, 1-ethoxy-",253.2,1.0,CCCOCC,didier14
12192,Amyl acetate,310.1,1.0,CCCCCOC(C)=O,didier14
12193,Hexanenitrile,316.1,1.0,CCCCCC#N,didier14
12194,Tridecane,363.1,1.0,CCCCCCCCCCCCC,didier14
12195,Tetradecane,382.4,1.0,CCCCCCCCCCCCCC,didier14
12196,1-Hexadecene,402.1,1.0,C=CCCCCCCCCCCCCCC,didier14
12197,Heptadecane,421.1,1.0,CCCCCCCCCCCCCCCCC,didier14
12198,Nonadecane,441.0,1.0,CCCCCCCCCCCCCCCCCCC,didier14
12199,Ethanol,286.1,1.0,CCO,didier14
12200,Benzoic acid,394.3,1.0,O=C(O)c1ccccc1,didier14
12201,1-HEXANAL,300.0,1.0,CCCCCC=O,didier14
12202,Isopropanol,285.1,1.0,CC(C)O,didier14
12203,1-Propanol,297.6,1.0,CCCO,didier14
12204,1-Butanol,310.5,1.0,CCCCO,didier14
12205,1-Pentanol,322.1,1.0,CCCCCO,didier14
12206,Benzene,262.0,1.0,c1ccccc1,didier14
12207,"Pentane, 2,2,3,3-tetramethyl-",294.6,1.0,CCC(C)(C)C(C)(C)C,didier14
12208,"3,3,5-Trimethylheptane",304.0,1.0,CCC(C)CC(C)(C)CC,didier14
12209,Dimethyl sulfide,237.2,1.0,CSC,didier14
12210,2-Chloropropane,238.2,1.0,CC(C)Cl,didier14
12211,Isopropylamine,236.2,1.0,CC(C)N,didier14
12212,2-Propanethiol,239.0,1.0,CC(C)S,didier14
12213,"Ethane, 1,1-dichloro-",263.1,1.0,CC(Cl)Cl,didier14
12214,tert-Butanol,284.3,1.0,CC(C)(C)O,didier14
12215,"2-Butanol, 2-methyl-",292.1,1.0,CCC(C)(C)O,didier14
12216,Pinacolone,282.1,1.0,CC(=O)C(C)(C)C,didier14
12217,"1-Pentene, 3-methyl-",245.2,1.0,C=CC(C)CC,didier14
12218,"3-Pentanol, 3-methyl-",297.1,1.0,CCC(C)(O)CC,didier14
12219,"1,2-Dimethoxypropane",273.1,1.0,COCC(C)OC,didier14
12220,2-Methyl-1-propanol,302.3,1.0,CC(C)CO,didier14
12221,"Butane, 2-chloro-",258.1,1.0,CCC(C)Cl,didier14
12222,sec-Butanol,296.1,1.0,CCC(C)O,didier14
12223,Methyl acetate,260.1,1.0,COC(C)=O,didier14
12224,2-Nonanone,345.5,1.0,CCCCCCCC(C)=O,didier14
12225,"1,1':2',1''-Terphenyl",436.0,1.0,c1ccc(-c2ccccc2-c2ccccc2)cc1,didier14
12226,"Nonane, 2-methyl-",314.0,1.0,CCCCCCCC(C)C,didier14
12227,1-Decene,320.1,1.0,C=CCCCCCCCC,didier14
12228,"Phenol, 2-ethyl-",358.1,1.0,CCc1ccccc1O,didier14
12229,3-Nonanone,339.1,1.0,CCCCCCC(=O)CC,didier14
12230,6-Undecanone,361.5,1.0,CCCCCC(=O)CCCCC,didier14
12231,p-Terphenyl,480.0,1.0,c1ccc(-c2ccc(-c3ccccc3)cc2)cc1,didier14
12232,"1,2-Dimethylbenzene",305.1,1.0,Cc1ccccc1C,didier14
12233,"Benzenamine, 2-methyl-",358.1,1.0,Cc1ccccc1N,didier14
12234,"1,2,4-TRIMETHYL BENZENE",318.6,1.0,Cc1ccc(C)c(C)c1,didier14
12235,"1,2,4,5-Tetramethylbenzene",346.1,1.0,Cc1cc(C)c(C)cc1C,didier14
12236,3-Pentanone,280.1,1.0,CCC(=O)CC,didier14
12237,2-Ethyl-1-butanol,326.1,1.0,CCC(CC)CO,didier14
12238,p-DIMETHYLAMINOBENZALDEHYDE,420.1,1.0,CN(C)c1ccc(C=O)cc1,didier14
12239,p-DIISOPROPYLBENZENE,354.1,1.0,CC(C)c1ccc(C(C)C)cc1,didier14
12240,3-METHYLUNDECANE,344.0,1.0,CCCCCCCCC(C)CC,didier14
12241,n-PENTADECANOIC ACID,454.0,1.0,CCCCCCCCCCCCCCC(=O)O,didier14
12242,DIETHYLETHANOLAMINE,321.1,1.0,CCN(CC)CCO,didier14
12243,STYRENE,305.0,1.0,C=Cc1ccccc1,didier14
12244,BENZYL CHLORIDE,333.1,1.0,ClCc1ccccc1,didier14
12245,BENZYLAMINE,333.1,1.0,NCc1ccccc1,didier14
12246,BENZONITRILE,344.1,1.0,N#Cc1ccccc1,didier14
12247,BENZYL ALCOHOL,366.1,1.0,OCc1ccccc1,didier14
12248,BENZALDEHYDE,335.1,1.0,O=Cc1ccccc1,didier14
12249,BENZYL MERCAPTAN,343.1,1.0,SCc1ccccc1,didier14
12250,NICOTINONITRILE,357.1,1.0,N#Cc1cccnc1,didier14
12251,ANISOLE,325.1,1.0,COc1ccccc1,didier14
12252,METHYL PHENYL SULFIDE,342.0,1.0,CSc1ccccc1,didier14
12253,m-METHYLSTYRENE,324.1,1.0,C=Cc1cccc(C)c1,didier14
12254,"1,4-DI-tert-BUTYLBENZENE",361.0,1.0,CC(C)(C)c1ccc(C(C)(C)C)cc1,didier14
12255,DIPHENYLMETHANE,403.1,1.0,c1ccc(Cc2ccccc2)cc1,didier14
12256,"1,3,5-TRIETHYLBENZENE",354.1,1.0,CCc1cc(CC)cc(CC)c1,didier14
12257,TRIPROPYLAMINE,302.0,1.0,CCCN(CCC)CCC,didier14
12258,TRIALLYLAMINE,304.0,1.0,C=CCN(CC=C)CC=C,didier14
12259,TRI-n-BUTYLAMINE,359.3,1.0,CCCCN(CCCC)CCCC,didier14
12260,2-ETHYLHEXYL ACETATE,344.1,1.0,CCCCC(CC)COC(C)=O,didier14
12261,2-ETHYLHEXYL ACRYLATE,355.1,1.0,C=CC(=O)OCC(CC)CCCC,didier14
12262,"1,2-DIPHENYLETHANE",402.0,1.0,c1ccc(CCc2ccccc2)cc1,didier14
12263,trans-STILBENE,418.0,1.0,C(=C/c1ccccc1)\c1ccccc1,didier14
12264,DIBENZYL ETHER,408.1,1.0,c1ccc(COCc2ccccc2)cc1,didier14
12265,PHENETOLE,325.0,1.0,CCOc1ccccc1,didier14
12266,ANETHOLE,362.1,1.0,CC=Cc1ccc(OC)cc1,didier14
12267,n-BUTYLBENZENE,323.1,1.0,CCCCc1ccccc1,didier14
12268,BENZYL FORMATE,355.0,1.0,O=COCc1ccccc1,didier14
12269,n-DECYLBENZENE,380.0,1.0,CCCCCCCCCCc1ccccc1,didier14
12270,TRIDECANAL,390.0,1.0,CCCCCCCCCCCCC=O,didier14
12271,p-TOLUALDEHYDE,353.0,1.0,Cc1ccc(C=O)cc1,didier14
12272,2-METHYL-1-UNDECANOL,392.0,1.0,CCCCCCCCCC(C)CO,didier14
12273,VINYL PROPIONATE,274.0,1.0,C=COC(=O)CC,didier14
12274,DIETHYL CARBONATE,298.1,1.0,CCOC(=O)OCC,didier14
12275,BUTYRIC ANHYDRIDE,355.0,1.0,CCCC(=O)OC(=O)CCC,didier14
12276,p-CHLOROTOLUENE,325.0,1.0,Cc1ccc(Cl)cc1,didier14
12277,3-OCTANONE,316.1,1.0,CCCCCC(=O)CC,didier14
12278,n-BUTANE,199.2,1.0,CCCC,didier14
12279,1-BUTENE,193.2,1.0,C=CCC,didier14
12280,ACROLEIN,247.2,1.0,C=CC=O,didier14
12281,3-CHLOROPROPENE,241.2,1.0,C=CCCl,didier14
12282,n-PROPYLAMINE,261.0,1.0,CCCN,didier14
12283,ALLYLAMINE,244.3,1.0,C=CCN,didier14
12284,ACRYLONITRILE,273.1,1.0,C=CC#N,didier14
12285,"2,2,5,5-TETRAMETHYLHEXANE",289.0,1.0,CC(C)(C)CCC(C)(C)C,didier14
12286,ALLYL ALCOHOL,294.0,1.0,C=CCO,didier14
12287,"2,6-DIMETHYLHEPTANE",299.0,1.0,CC(C)CCCC(C)C,didier14
12288,METHYL VINYL ETHER,217.2,1.0,C=COC,didier14
12289,ACETALDOXIME,313.1,1.0,CC=NO,didier14
12290,METHYL FORMATE,254.0,1.0,COC=O,didier14
12291,"2,4,4-TRIMETHYL-1-PENTENE",267.1,1.0,C=C(C)CC(C)(C)C,didier14
12292,"2,4,4-TRIMETHYL-2-PENTENE",272.1,1.0,CC(C)=CC(C)(C)C,didier14
12293,1-METHYL-2-n-PROPYLBENZENE,326.0,1.0,CCCc1ccccc1C,didier14
12294,1-METHYL-3-n-PROPYLBENZENE,325.0,1.0,CCCc1cccc(C)c1,didier14
12295,1-METHYL-4-n-PROPYLBENZENE,326.0,1.0,CCCc1ccc(C)cc1,didier14
12296,DI-tert-BUTYL SULFIDE,300.0,1.0,CC(C)(C)SC(C)(C)C,didier14
12297,2-METHYLPENTANE,238.0,1.0,CCCC(C)C,didier14
12298,trans-CROTONIC ACID,368.0,1.0,C/C=C/C(=O)O,didier14
12299,DIMETHYLETHANOLAMINE,314.1,1.0,CN(C)CCO,didier14
12300,VINYL ACETATE,265.0,1.0,C=COC(C)=O,didier14
12301,"2,4-DIMETHYLPENTANE",261.0,1.0,CC(C)CC(C)C,didier14
12302,n-NONYLBENZENE,372.0,1.0,CCCCCCCCCc1ccccc1,didier14
12303,ISOPROPYL ACETATE,275.0,1.0,CC(=O)OC(C)C,didier14
12304,1-METHYLVINYL ACETATE,283.0,1.0,C=C(C)OC(C)=O,didier14
12305,ACETIC ANHYDRIDE,322.6,1.0,CC(=O)OC(C)=O,didier14
12306,m-DIVINYLBENZENE,338.0,1.0,C=Cc1cccc(C=C)c1,didier14
12307,ETHYL ISOVALERATE,298.1,1.0,CCOC(=O)CC(C)C,didier14
12308,"3,5-XYLENOL",373.0,1.0,Cc1cc(C)cc(O)c1,didier14
12309,"2,4,6-TRIMETHYLPYRIDINE",330.1,1.0,Cc1cc(C)nc(C)c1,didier14
12310,"2,6-DIMETHYL-4-HEPTANOL",339.0,1.0,CC(C)CC(O)CC(C)C,didier14
12311,MONOCHLOROBENZENE,305.0,1.0,Clc1ccccc1,didier14
12312,PHENYL MERCAPTAN,346.1,1.0,Sc1ccccc1,didier14
12313,5-HEXEN-2-ONE,296.1,1.0,C=CCCC(C)=O,didier14
12314,n-BUTYLAMINE,261.0,1.0,CCCCN,didier14
12315,VINYLACETONITRILE,296.1,1.0,C=CCC#N,didier14
12316,DIVINYL ETHER,226.2,1.0,C=COC=C,didier14
12317,ETHYL FORMATE,253.2,1.0,CCOC=O,didier14
12318,DI-tert-BUTYL DISULFIDE,337.1,1.0,CC(C)(C)SSC(C)(C)C,didier14
12319,TETRAMETHYLETHYLENEDIAMINE,283.1,1.0,CN(C)CCN(C)C,didier14
12320,ISOPROPYL MYRISTATE,423.0,1.0,CCCCCCCCCCCCCC(=O)OC(C)C,didier14
12321,VALERONITRILE,305.0,1.0,CCCCC#N,didier14
12322,n-PROPYL FORMATE,270.0,1.0,CCCOC=O,didier14
12323,ETHYLTHIOETHANOL,350.1,1.0,CCSC(C)O,didier14
12324,DIETHYL DISULFIDE,313.1,1.0,CCSSCC,didier14
12325,DIISOBUTYLAMINE,294.1,1.0,CC(C)CNCC(C)C,didier14
12326,DI-n-PROPYL ETHER,294.1,1.0,CCCOCCC,didier14
12327,DI-n-PROPYL SULFIDE,301.0,1.0,CCCSCCC,didier14
12328,"3-METHYL-1,4-PENTADIENE",235.0,1.0,C=CC(C)C=C,didier14
12329,TRI-n-OCTYLAMINE,457.0,1.0,CCCCCCCCN(CCCCCCCC)CCCCCCCC,didier14
12330,n-HEPTYLAMINE,308.1,1.0,CCCCCCCN,didier14
12331,1-HEPTANOL,345.0,1.0,CCCCCCCO,didier14
12332,METHYL DODECANOATE,391.0,1.0,CCCCCCCCCCCC(=O)OC,didier14
12333,n-OCTYLAMINE,333.0,1.0,CCCCCCCCN,didier14
12334,n-OCTYL MERCAPTAN,341.1,1.0,CCCCCCCCS,didier14
12335,1-TETRADECENE,370.0,1.0,C=CCCCCCCCCCCCC,didier14
12336,DI-n-OCTYLAMINE,383.1,1.0,CCCCCCCCNCCCCCCCC,didier14
12337,n-NONANOIC ACID,401.0,1.0,CCCCCCCCC(=O)O,didier14
12338,n-HEPTYL ACETATE,340.0,1.0,CCCCCCCOC(C)=O,didier14
12339,n-NONYLAMINE,335.1,1.0,CCCCCCCCCN,didier14
12340,n-HEPTYL FORMATE,327.0,1.0,CCCCCCCOC=O,didier14
12341,n-UNDECANOIC ACID,421.1,1.0,CCCCCCCCCCC(=O)O,didier14
12342,2-PHENYL-1-PROPANOL,366.1,1.0,CC(CO)c1ccccc1,didier14
12343,n-DODECANE,347.0,1.0,CCCCCCCCCCCC,didier14
12344,DI-n-HEXYL ETHER,350.1,1.0,CCCCCCOCCCCCC,didier14
12345,METHYL OLEATE,450.0,1.0,CCCCCCCC/C=C\CCCCCCCC(=O)OC,didier14
12346,1-TRIDECANOL,394.0,1.0,CCCCCCCCCCCCCO,didier14
12347,OLEIC ACID,462.0,1.0,CCCCCCCC/C=C\CCCCCCCC(=O)O,didier14
12348,1-OCTADECANOL,450.0,1.0,CCCCCCCCCCCCCCCCCCO,didier14
12349,n-EICOSANE,440.0,1.0,CCCCCCCCCCCCCCCCCCCC,didier14
12350,ISOBUTENE,197.0,1.0,C=C(C)C,didier14
12351,2-METHYLBUTYRIC ACID,348.0,1.0,CCC(C)C(=O)O,didier14
12352,NEOHEPTANOIC ACID,366.0,1.0,CC(C)(C)CCC(=O)O,didier14
12353,o-TOLUIC ACID,407.0,1.0,Cc1ccccc1C(=O)O,didier14
12354,BENZOPHENONE,419.0,1.0,O=C(c1ccccc1)c1ccccc1,didier14
12355,BENZYL BENZOATE,418.1,1.0,O=C(OCc1ccccc1)c1ccccc1,didier14
12356,DIPHENYLAMINE,426.0,1.0,c1ccc(Nc2ccccc2)cc1,didier14
12357,3-PHENYL-1-PROPANOL,373.1,1.0,OCCCc1ccccc1,didier14
12358,n-DODECYLBENZENE,414.0,1.0,CCCCCCCCCCCCc1ccccc1,didier14
12359,n-TRIDECYLBENZENE,438.0,1.0,CCCCCCCCCCCCCc1ccccc1,didier14
12360,2-ETHYLHEXANAL,317.1,1.0,CCCCC(C=O)CC,didier14
12361,"2,6,8-TRIMETHYL-4-NONANONE",356.0,1.0,CC(C)CC(=O)CC(C)CC(C)C,didier14
12362,PROPIONIC ANHYDRIDE,336.0,1.0,CCC(=O)OC(=O)CC,didier14
12363,trans-CROTONALDEHYDE,281.1,1.0,C/C=C/C=O,didier14
12364,ISOPENTYL ACETATE,298.1,1.0,CC(=O)OCCC(C)C,didier14
12365,DIALLYLAMINE,284.1,1.0,C=CCNCC=C,didier14
12366,n-DODECYLAMINE,382.0,1.0,CCCCCCCCCCCCN,didier14
12367,METHACRYLONITRILE,286.0,1.0,C=C(C)C#N,didier14
12368,"2,6-DI-tert-BUTYL-p-CRESOL",390.1,1.0,Cc1cc(C(C)(C)C)c(O)c(C(C)(C)C)c1,didier14
12369,4-METHYL-1-HEPTENE,275.0,1.0,C=CCC(C)CCC,didier14
12370,7-METHYL-1-OCTENE,291.0,1.0,C=CCCCCC(C)C,didier14
12371,DINONYLPHENOL,535.0,1.0,CCCCCCCCCc1cccc(O)c1CCCCCCCCC,didier14
12372,METHYL t-PENTYL SULFIDE,302.0,1.0,CCC(C)(C)SC,didier14
12373,"2,2,3,3-TETRAMETHYLHEXANE",302.0,1.0,CCCC(C)(C)C(C)(C)C,didier14
12374,n-BUTYL BENZOATE,379.1,1.0,CCCCOC(=O)c1ccccc1,didier14
12375,CINNAMIC ACID,445.0,1.0,O=C(O)C=Cc1ccccc1,didier14
12376,BENZYL ACETATE,363.1,1.0,CC(=O)OCc1ccccc1,didier14
12377,PHENYLACETONITRILE,374.1,1.0,N#CCc1ccccc1,didier14
12378,p-tert-OCTYLPHENOL,406.0,1.0,CC(C)(C)CC(C)(C)c1ccc(O)cc1,didier14
12379,ETHYL ACRYLATE,282.1,1.0,C=CC(=O)OCC,didier14
12380,n-BUTYL ACRYLATE,312.0,1.0,C=CC(=O)OCCCC,didier14
12381,tert-OCTYL MERCAPTAN,304.0,1.0,CC(C)(C)CC(C)(C)S,didier14
12382,MESITYL OXIDE,301.0,1.0,CC(=O)C=C(C)C,didier14
12383,ETHYL t-BUTYL SULFIDE,282.0,1.0,CCSC(C)(C)C,didier14
12384,n-HEXYL ACETATE,310.1,1.0,CCCCCCOC(C)=O,didier14
12385,DI-n-BUTYL ETHER,298.1,1.0,CCCCOCCCC,didier14
12386,n-DECYL MERCAPTAN,371.1,1.0,CCCCCCCCCCS,didier14
12387,1-NONADECANOL,458.0,1.0,CCCCCCCCCCCCCCCCCCCO,didier14
12388,1-HEPTADECANOL,441.0,1.0,CCCCCCCCCCCCCCCCCO,didier14
12389,n-NONYL MERCAPTAN,351.1,1.0,CCCCCCCCCS,didier14