,compound,flashpoint,pure substance,smiles,source
389,1-METHYL-3-(METHYLETHOXY)BENZENE,339.0,1,Cc1cccc(OC(C)C)c1,didier14
390,3-METHYLHEXANAL,303.0,1,CCCC(C)CC=O,didier14
391,"trans-1,3-PENTADIENE",230.0,1,C=C/C=C/C,didier14
392,trans-2-DECENE,319.0,1,C/C=C/CCCCCCC,didier14
393,n-TETRADECYLAMINE,406.0,1,CCCCCCCCCCCCCCN,didier14
394,n-DECYLAMINE,358.1,1,CCCCCCCCCCN,didier14
395,"trans-1,3-HEXADIENE",254.2,1,C=C/C=C/CC,didier14
396,ETHYL METHYL DISULFIDE,299.0,1,CCSSC,didier14
397,cis-2-DECENE,320.0,1,C/C=C\CCCCCCC,didier14
398,DIAMYLAMINE,325.1,1,CCCCCNCCCCC,didier14
399,"2,6-DIMETHYLOCTANE",307.0,1,CCC(C)CCCC(C)C,didier14
400,2-PENTANETHIOL,282.5,1,CCCC(C)S,didier14
401,2-BUTYL-1-DECANOL,422.0,1,CCCCCCCCC(CO)CCCC,didier14
402,n-PENTADECYLBENZENE,456.0,1,CCCCCCCCCCCCCCCc1ccccc1,didier14
403,n-OCTYLBENZENE,380.1,1,CCCCCCCCc1ccccc1,didier14
404,n-PROPYL METHACRYLATE,304.0,1,C=C(C)C(=O)OCCC,didier14
405,2-METHYL-DODECAN-1-OL,404.0,1,CCCCCCCCCCC(C)CO,didier14
406,n-PROPYL BENZOATE,371.1,1,CCCOC(=O)c1ccccc1,didier14
407,1-TRIDECENE,352.1,1,C=CCCCCCCCCCCC,didier14
408,DINONYL ETHER,430.0,1,CCCCCCCCCOCCCCCCCCC,didier14
409,CETYL METHACRYLATE,452.0,1,C=C(C)C(=O)OCCCCCCCCCCCCCCCC,didier14
410,NONYLPHENOL,411.0,1,CCCCCCCCCc1ccccc1O,didier14
411,3-ETHYL HEPTANAL,328.0,1,CCCCC(CC)CC=O,didier14
412,4-HYDROXYSTYRENE,377.0,1,C=Cc1ccc(O)cc1,didier14
413,8-METHYL-1-NONENE,316.0,1,C=CCCCCCC(C)C,didier14
414,DI-n-OCTYL SULFIDE,428.0,1,CCCCCCCCSCCCCCCCC,didier14
415,2-ETHYL-m-XYLENE,331.0,1,CCc1c(C)cccc1C,didier14
416,PYRIMIDINE,304.1,1,c1cncnc1,didier14
417,2-METHYL-1-NONENE,315.0,1,C=C(C)CCCCCCC,didier14
418,sec-BUTYL ACRYLATE,299.6,1,C=CC(=O)OC(C)CC,didier14
419,2-METHYLOCTANOIC ACID,391.0,1,CCCCCCC(C)C(=O)O,didier14
420,ETHYL PROPYL DISULFIDE,324.0,1,CCCSSCC,didier14
421,1-METHYL-3-HYDROXY-6-ISOPROPYL BENZENE,378.0,1,Cc1cc(O)ccc1C(C)C,didier14
422,1-METHYL-3-HYDROXY-5-ISOPROPYL BENZENE,383.1,1,Cc1cc(O)cc(C(C)C)c1,didier14
423,2-METHYL-1-TRIDECANOL,422.0,1,CCCCCCCCCCCC(C)CO,didier14
424,3-(METHYLMERCAPTO)PROPANAL,334.1,1,CSCCC=O,didier14
425,sec-BUTYL-tert-BUTYL ETHER,276.0,1,CCC(C)OC(C)(C)C,didier14
426,ISOBUTYL-tert-BUTYL ETHER,276.0,1,CC(C)COC(C)(C)C,didier14
427,VINYL PIVALATE,282.1,1,C=COC(=O)C(C)(C)C,didier14
428,3-ETHYL-1-HEXENE,274.0,1,C=CC(CC)CCC,didier14
429,2-ETHYL-1-PENTENE,263.0,1,C=C(CC)CCC,didier14
430,1-EICOSENE,440.0,1,C=CCCCCCCCCCCCCCCCCCC,didier14
431,p-ETHYLSTYRENE,334.0,1,C=Cc1ccc(CC)cc1,didier14
432,5-METHYL-1-HEXENE,257.0,1,C=CCCC(C)C,didier14
433,3-ETHYL-1-HEPTANOL,363.0,1,CCCCC(CC)CCO,didier14
434,DIETHYL SULFIDE,263.1,1,CCSCC,didier14
435,1-HEXADECANOL,427.1,1,CCCCCCCCCCCCCCCCO,didier14
436,ETHYL n-OCTYL SULFIDE,366.0,1,CCCCCCCCSCC,didier14
437,"N,N-DIETHYLHYDROXYLAMINE",318.1,1,CCN(O)CC,didier14
438,4-METHYL-1-HEXENE,258.0,1,C=CCC(C)CC,didier14
439,4-METHYL-1-OCTANOL,358.0,1,CCCCC(C)CCCO,didier14
440,6-METHYL-1-OCTANOL,360.0,1,CCC(C)CCCCCO,didier14
441,METHYL n-PROPYL SULFIDE,270.0,1,CCCSC,didier14
442,"1,2,3,5-TETRAETHYLBENZENE",376.0,1,CCc1cc(CC)c(CC)c(CC)c1,didier14
443,2-BUTYL-OCTAN-1-OL,382.1,1,CCCCCCC(CO)CCCC,didier14
444,"2,4-DIMETHYLOCTANE",304.0,1,CCCCC(C)CC(C)C,didier14
445,3-ETHYL-1-PENTENE,256.0,1,C=CC(CC)CC,didier14
446,trans-2-HEXENE,246.0,1,C/C=C/CCC,didier14
447,"1,2,3-TRIETHYLBENZENE",352.0,1,CCc1cccc(CC)c1CC,didier14
448,trans-2-EICOSENE,420.0,1,C/C=C/CCCCCCCCCCCCCCCCC,didier14
449,"2,2,4,4,6,8,8-HEPTAMETHYLNONANE",368.1,1,CC(CC(C)(C)C)CC(C)(C)CC(C)(C)C,didier14
450,n-OCTADECYLBENZENE,480.0,1,CCCCCCCCCCCCCCCCCCc1ccccc1,didier14
451,4-NONANONE,335.0,1,CCCCCC(=O)CCC,didier14
452,2-METHYLHEXANOIC ACID,375.0,1,CCCCC(C)C(=O)O,didier14
453,2-METHYL-1-OCTENE,296.0,1,C=C(C)CCCCCC,didier14
454,NEOPENTANE,201.0,1,CC(C)(C)C,didier14
455,"2,2,3-TRIMETHYLBUTANE",249.0,1,CC(C)C(C)(C)C,didier14
456,6-METHYL-1-HEPTENE,276.0,1,C=CCCCC(C)C,didier14
457,cis-CROTONIC ACID,352.0,1,C/C=C\C(=O)O,didier14
458,n-HEPTADECANOIC ACID,469.0,1,CCCCCCCCCCCCCCCCC(=O)O,didier14
459,n-BUTYL NONANOATE,361.0,1,CCCCCCCCC(=O)OCCCC,didier14
460,n-EICOSANIC ACID,490.0,1,CCCCCCCCCCCCCCCCCCCC(=O)O,didier14
461,tert-BUTYL CHLORIDE,268.1,1,CC(C)(C)Cl,didier14
462,sec-BUTYL MERCAPTAN,250.2,1,CCC(C)S,didier14
463,"2,3-DIMETHYL-1,3-BUTADIENE",251.2,1,C=C(C)C(=C)C,didier14
464,1-(4-ETHYLPHENYL)-2-(4-ETHYLPHENYL)ETHANE,409.0,1,CCc1ccc(CCc2ccc(CC)cc2)cc1,didier14
465,2-BUTYL-NONAN-1-OL,404.0,1,CCCCCCCC(CO)CCCC,didier14
466,"cis,trans-2,4-HEXADIENE",266.1,1,C/C=C\C=C\C,didier14
467,"trans,trans-2,4-HEXADIENE",266.1,1,C/C=C/C=C/C,didier14
468,TRIPHENYLMETHANE,449.0,1,c1ccc(C(c2ccccc2)c2ccccc2)cc1,didier14
469,"1,2,3,5-TETRAMETHYLBENZENE",336.5,1,Cc1cc(C)c(C)c(C)c1,didier14
470,o-CYMENE,326.1,1,Cc1ccccc1C(C)C,didier14
471,o-TOLUALDEHYDE,340.1,1,Cc1ccccc1C=O,didier14
472,UNDECYL MERCAPTAN,381.0,1,CCCCCCCCCCCS,didier14
473,m-CYMENE,323.1,1,Cc1cccc(C(C)C)c1,didier14
474,ISOBUTYLBENZENE,325.1,1,CC(C)Cc1ccccc1,didier14
475,BENZYL ETHYL ETHER,332.0,1,CCOCc1ccccc1,didier14
476,PROPYL CHLORIDE,255.4,1,CCCCl,didier14
477,METHYL ETHYL ETHER,236.0,1,CCOC,didier14
478,"2,2,4-TRIMETHYLPENTANE",261.0,1,CC(C)CC(C)(C)C,didier14
479,tert-BUTYL ACETATE,287.2,1,CC(=O)OC(C)(C)C,didier14
480,ETHYL CHLOROFORMATE,275.1,1,CCOC(=O)Cl,didier14
481,DIISOPENTYLSULFIDE,352.0,1,CC(C)CCSCCC(C)C,didier14
482,DI-n-BUTYL SULFIDE,331.0,1,CCCCSCCCC,didier14
483,n-TETRADECANOIC ACID,446.0,1,CCCCCCCCCCCCCC(=O)O,didier14
484,n-DECYL FORMATE,367.0,1,CCCCCCCCCCOC=O,didier14
485,n-NONYL FORMATE,353.0,1,CCCCCCCCCOC=O,didier14
486,8-METHYL-1-NONANOL,377.6,1,CC(C)CCCCCCCO,didier14
487,METHYL n-PROPYL ETHER,232.0,1,CCCOC,didier14
488,2-CHLOROPROPENE,239.2,1,C=C(C)Cl,didier14
489,"3,3-DIMETHYLPENTANE",254.0,1,CCC(C)(C)CC,didier14
490,"3,3-DIMETHYLHEXANE",272.0,1,CCCC(C)(C)CC,didier14
491,2-METHYL-1-BUTENE,221.0,1,C=C(C)CC,didier14
492,"2,3-DIMETHYL-1-BUTENE",255.2,1,C=C(C)C(C)C,didier14
493,"2,3-DIMETHYLPENTANE",258.0,1,CCC(C)C(C)C,didier14
494,n-HEXADECANOIC ACID,461.0,1,CCCCCCCCCCCCCCCC(=O)O,didier14
495,ETHYL n-HEXYL ETHER,303.0,1,CCCCCCOCC,didier14
496,o-ETHYLANILINE,364.1,1,CCc1ccccc1N,didier14
497,"2,6-DIETHYLANILINE",396.1,1,CCc1cccc(CC)c1N,didier14
498,"2,3-DIMETHYLHEXANE",278.5,1,CCCC(C)C(C)C,didier14
499,tert-BUTYL METHACRYLATE,300.1,1,C=C(C)C(=O)OC(C)(C)C,didier14
500,TRIPHENYLETHYLENE,474.0,1,C(=C(c1ccccc1)c1ccccc1)c1ccccc1,didier14
501,3-METHYLHEXANE,269.0,1,CCCC(C)CC,didier14
502,3-HEXANONE,287.1,1,CCCC(=O)CC,didier14
503,sec-BUTYL FORMATE,274.0,1,CCC(C)OC=O,didier14
504,4-OCTANONE,318.1,1,CCCCC(=O)CCC,didier14
505,cis-2-BUTENE,203.0,1,C/C=C\C,didier14
506,"2,2-DIMETHYLPENTANE",258.1,1,CCCC(C)(C)C,didier14
507,"2,2-DIMETHYLHEXANE",269.0,1,CCCCC(C)(C)C,didier14
508,3-METHYLBUTYRALDEHYDE,268.0,1,CC(C)CC=O,didier14
509,n-BUTYL VALERATE,336.0,1,CCCCOC(=O)CCCC,didier14
510,2-METHYLHEXANE,250.0,1,CCCCC(C)C,didier14
511,"1,4-PENTADIENE",218.0,1,C=CCC=C,didier14
512,"1,5-HEXADIENE",227.2,1,C=CCCC=C,didier14
513,"1,4-HEXADIENE",248.2,1,C=CCC=CC,didier14
514,n-BUTYL FORMATE,291.0,1,CCCCOC=O,didier14
515,DIALLYL SULFIDE,319.1,1,C=CCSCC=C,didier14
516,n-OCTADECANE,438.1,1,CCCCCCCCCCCCCCCCCC,didier14
517,2-METHYL-2-AMINOBUTANE,257.0,1,CCC(C)(C)N,didier14
518,"2,3,3-TRIMETHYL-1-BUTENE",256.1,1,C=C(C)C(C)(C)C,didier14
519,"2,2,3,3-TETRAMETHYLBUTANE",278.0,1,CC(C)(C)C(C)(C)C,didier14
520,METHYL ISOPROPYL ETHER,225.0,1,COC(C)C,didier14
521,p-CUMYLPHENOL,433.0,1,CC(C)(c1ccccc1)c1ccc(O)cc1,didier14
522,2-PHENYLETHANOL,369.0,1,OCCc1ccccc1,didier14
523,LINOLEIC ACID,467.0,1,CCCCC/C=C\C/C=C\CCCCCCCC(=O)O,didier14
524,PENTAETHYLBENZENE,393.0,1,CCc1cc(CC)c(CC)c(CC)c1CC,didier14
525,2-METHYL-3-ETHYLPENTANE,275.0,1,CCC(CC)C(C)C,didier14
526,o-METHYLSTYRENE,320.1,1,C=Cc1ccccc1C,didier14
527,"1,1-DIPHENYLETHANE",402.0,1,CC(c1ccccc1)c1ccccc1,didier14
528,DI-tert-BUTYL ETHER,270.0,1,CC(C)(C)OC(C)(C)C,didier14
529,"N,N-DIETHYLMETHYLAMINE",250.0,1,CCN(C)CC,didier14
530,3-ETHYLPENTANE,261.0,1,CCC(CC)CC,didier14
531,2-PHENYL-2-PROPANOL,360.1,1,CC(C)(O)c1ccccc1,didier14
532,"1,2,3-TRIMETHYL-4-ETHYLBENZENE",346.0,1,CCc1ccc(C)c(C)c1C,didier14
533,"1,2,4-TRIMETHYL-3-ETHYLBENZENE",346.0,1,CCc1c(C)ccc(C)c1C,didier14
534,m-ETHYLPHENOL,367.1,1,CCc1cccc(O)c1,didier14
535,m-TOLUALDEHYDE,351.1,1,Cc1cccc(C=O)c1,didier14
536,TRIAMYLAMINE,376.0,1,CCCCCN(CCCCC)CCCCC,didier14
537,p-METHYLSTYRENE,319.0,1,C=Cc1ccc(C)cc1,didier14
538,2-METHYL-2-PENTENAL,304.1,1,CCC=C(C)C=O,didier14
539,2-METHYL-1-HEXANOL,333.0,1,CCCCC(C)CO,didier14
540,ETHYL ISOAMYL KETONE,318.0,1,CCC(=O)CCC(C)C,didier14
541,trans-2-BUTENE,201.0,1,C/C=C/C,didier14
542,DIMETHYL DISULFIDE,280.0,1,CSSC,didier14
543,2-METHYL-2-PENTENE,246.0,1,CCC=C(C)C,didier14
544,METHYL ISOBUTYL ETHER,243.0,1,COCC(C)C,didier14
545,ETHYL ISOPROPYL ETHER,228.0,1,CCOC(C)C,didier14
546,ETHYL ISOBUTYL ETHER,259.0,1,CCOCC(C)C,didier14
547,cis-2-PENTENE,226.0,1,C/C=C\CC,didier14
548,"2,5-DIMETHYL-1,5-HEXADIENE",280.0,1,C=C(C)CCC(=C)C,didier14
549,5-METHYL-1-HEXANOL,340.0,1,CC(C)CCCCO,didier14
550,METHYL n-BUTYL ETHER,263.1,1,CCCCOC,didier14
551,DIISOBUTYL ETHER,281.1,1,CC(C)COCC(C)C,didier14
552,METHYL n-PENTYL ETHER,271.0,1,CCCCCOC,didier14
553,n-BUTYL ETHYL ETHER,277.1,1,CCCCOCC,didier14
554,2-NONANOL,355.4,1,CCCCCCCC(C)O,didier14
555,DI-n-PROPYL DISULFIDE,339.1,1,CCCSSCCC,didier14
556,n-HEXYL FORMATE,317.0,1,CCCCCCOC=O,didier14
557,n-PENTADECANE,387.0,1,CCCCCCCCCCCCCCC,didier14
558,1-PENTADECANOL,424.0,1,CCCCCCCCCCCCCCCO,didier14
559,DI-n-OCTYL ETHER,385.1,1,CCCCCCCCOCCCCCCCC,didier14
560,n-HENEICOSANE,450.0,1,CCCCCCCCCCCCCCCCCCCCC,didier14
561,1-EICOSANOL,467.0,1,CCCCCCCCCCCCCCCCCCCCO,didier14
562,n-DOCOSANE,458.0,1,CCCCCCCCCCCCCCCCCCCCCC,didier14
563,n-PENTACOSANE,475.0,1,CCCCCCCCCCCCCCCCCCCCCCCCC,didier14
564,n-HEXACOSANE,475.0,1,CCCCCCCCCCCCCCCCCCCCCCCCCC,didier14
565,TETRAPHENYLMETHANE,525.0,1,c1ccc(C(c2ccccc2)(c2ccccc2)c2ccccc2)cc1,didier14
566,"1,1,2,2-TETRAPHENYLETHANE",448.0,1,c1ccc(C(c2ccccc2)C(c2ccccc2)c2ccccc2)cc1,didier14
567,TETRAPHENYLETHYLENE,538.0,1,c1ccc(C(=C(c2ccccc2)c2ccccc2)c2ccccc2)cc1,didier14
568,4-ISOBUTYLSTYRENE,373.0,1,C=Cc1ccc(CC(C)C)cc1,didier14
569,tert-BUTYL ETHYL ETHER,254.0,1,CCOC(C)(C)C,didier14
570,n-PENTYL FORMATE,300.0,1,CCCCCOC=O,didier14
571,n-TRIDECANOIC ACID,438.0,1,CCCCCCCCCCCCC(=O)O,didier14
572,n-TRICOSANE,467.0,1,CCCCCCCCCCCCCCCCCCCCCCC,didier14
573,FORMIC ACID,321.1,1,O=CO,didier14
574,n-PROPYL ISOBUTYRATE,302.0,1,CCCOC(=O)C(C)C,didier14
575,cis-STILBENE,394.0,1,C(=C\c1ccccc1)\c1ccccc1,didier14
576,2-ETHYL-2-HEXENAL,341.1,1,CCCC=C(C=O)CC,didier14
577,n-NONADECANOIC ACID,483.0,1,CCCCCCCCCCCCCCCCCCC(=O)O,didier14
578,n-TETRACOSANE,475.0,1,CCCCCCCCCCCCCCCCCCCCCCCC,didier14
579,ISOPENTYL ISOVALERATE,345.0,1,CC(C)CCOC(=O)CC(C)C,didier14
580,sec-BUTENYL ACETATE,288.0,1,C=C(CC)OC(C)=O,didier14
581,n-UNDECYLBENZENE,417.0,1,CCCCCCCCCCCc1ccccc1,didier14
582,4-METHYL-trans-2-PENTENE,239.0,1,C/C=C/C(C)C,didier14
583,ACETONE,255.0,1,CC(C)=O,didier14
584,1-HEPTADECENE,408.0,1,C=CCCCCCCCCCCCCCCC,didier14
585,METHYL sec-BUTYL ETHER,244.0,1,CCC(C)OC,didier14
586,DI-sec-BUTYL ETHER,288.0,1,CCC(C)OC(C)CC,didier14
587,ISOPROPYL ACRYLATE,281.0,1,C=CC(=O)OC(C)C,didier14
588,4-METHYL-1-PENTENE,234.0,1,C=CCC(C)C,didier14
589,4-METHYL-cis-2-PENTENE,237.0,1,C/C=C\C(C)C,didier14
590,VINYL FORMATE,254.0,1,C=COC=O,didier14
591,DI-n-PENTYL ETHER,330.1,1,CCCCCOCCCCC,didier14
592,1-PHENYL-2-PROPANOL,358.1,1,CC(O)Cc1ccccc1,didier14
593,PENTAMETHYLBENZENE,364.1,1,Cc1cc(C)c(C)c(C)c1C,didier14
594,"2,3-DIMETHYLOCTANE",309.0,1,CCCCCC(C)C(C)C,didier14
595,trans-2-DODECENE,351.0,1,C/C=C/CCCCCCCCC,didier14
596,cis-2-DODECENE,351.0,1,C/C=C\CCCCCCCCC,didier14
597,UNDECYLAMINE,365.1,1,CCCCCCCCCCCN,didier14
598,p-tert-BUTYL ETHYLBENZENE,343.0,1,CCc1ccc(C(C)(C)C)cc1,didier14
599,1-(4-ETHYLPHENYL)-2-PHENYLETHANE,404.0,1,CCc1ccc(CCc2ccccc2)cc1,didier14
600,trans-2-PENTADECENE,396.0,1,C/C=C/CCCCCCCCCCCC,didier14
601,METHYL CHLORIDE,205.0,1,CCl,didier14
602,METHYL MERCAPTAN,217.0,1,CS,didier14
603,ETHYL CHLORIDE,223.2,1,CCCl,didier14
604,VINYL CHLORIDE,195.0,1,C=CCl,didier14
605,ETHYLAMINE,228.0,1,CCN,didier14
606,ETHYL MERCAPTAN,225.0,1,CCS,didier14
607,m-ETHYLSTYRENE,333.0,1,C=Cc1cccc(CC)c1,didier14
608,ISOBUTANE,190.2,1,CC(C)C,didier14
609,ACETYL CHLORIDE,278.0,1,CC(=O)Cl,didier14
610,o-ETHYLSTYRENE,331.0,1,C=Cc1ccccc1CC,didier14
611,tert-BUTYLAMINE,264.1,1,CC(C)(C)N,didier14
612,"2,2-DIMETHYLBUTANE",225.0,1,CCC(C)(C)C,didier14
613,"2,2-DIMETHYL-1-PROPANOL",300.0,1,CC(C)(C)CO,didier14
614,NEOPENTANOIC ACID,336.1,1,CC(C)(C)C(=O)O,didier14
615,2-ETHYL-1-BUTENE,247.2,1,C=C(CC)CC,didier14
616,tert-BUTYL FORMATE,264.1,1,CC(C)(C)OC=O,didier14
617,2-METHYL-1-PENTENE,241.0,1,C=C(C)CCC,didier14
618,"2,5-DIMETHYL-2,4-HEXADIENE",297.1,1,CC(C)=CC=C(C)C,didier14
619,cis-3-HEXENE,245.0,1,CC/C=C\CC,didier14
620,cis-3-HEPTENE,264.0,1,CC/C=C\CCC,didier14
621,cis-1-PROPENYLBENZENE,311.0,1,C/C=C\c1ccccc1,didier14
622,cis-2-HEXENE,247.0,1,C/C=C\CCC,didier14
623,alpha-METHYLBENZYL ALCOHOL FORMATE,349.0,1,CC(OC=O)c1ccccc1,didier14
624,2-METHYL OCTANAL,328.0,1,CCCCCCC(C)C=O,didier14
625,ISOPROPYL ISOBUTYL ETHER,268.0,1,CC(C)COC(C)C,didier14
626,ISOPENTANE,217.2,1,CCC(C)C,didier14
627,ISOPRENE,219.3,1,C=CC(=C)C,didier14
628,2-METHYLPROPANAL,266.0,1,CC(C)C=O,didier14
629,METHACROLEIN,275.1,1,C=C(C)C=O,didier14
630,METHYL ETHYL KETONE,267.0,1,CCC(C)=O,didier14
631,"1,1-DICHLOROPROPANE",280.0,1,CCC(Cl)Cl,didier14
632,PROPIONIC ACID,328.0,1,CCC(=O)O,didier14
633,ACRYLIC ACID,324.0,1,C=CC(=O)O,didier14
634,"2,3-DIMETHYLBUTANE",244.0,1,CC(C)C(C)C,didier14
635,METHACRYLIC ACID,340.0,1,C=C(C)C(=O)O,didier14
636,p-tert-AMYLPHENOL,384.0,1,CCC(C)(C)c1ccc(O)cc1,didier14
637,METHYL METHACRYLATE,284.1,1,C=C(C)C(=O)OC,didier14
638,METHYL ISOPROPENYL KETONE,294.1,1,C=C(C)C(C)=O,didier14
639,1-UNDECENE,327.0,1,C=CCCCCCCCCC,didier14
640,trans-1-PROPENYLBENZENE,325.1,1,C/C=C/c1ccccc1,didier14
641,4-ETHYL-m-XYLENE,330.0,1,CCc1ccc(C)cc1C,didier14
642,"1,2,4-TRIETHYLBENZENE",353.1,1,CCc1ccc(CC)c(CC)c1,didier14
643,HEXAMETHYLBENZENE,387.0,1,Cc1c(C)c(C)c(C)c(C)c1C,didier14
644,2-ETHYL BUTYRIC ACID,360.0,1,CCC(CC)C(=O)O,didier14
645,DIPHENYL DISULFIDE,436.0,1,c1ccc(SSc2ccccc2)cc1,didier14
646,THYMOL,374.1,1,Cc1ccc(C(C)C)c(O)c1,didier14
647,ETHYL tert-PENTYL ETHER,268.0,1,CCOC(C)(C)CC,didier14
648,m-TERPHENYL,464.0,1,c1ccc(-c2cccc(-c3ccccc3)c2)cc1,didier14
649,BIPHENYL,386.0,1,c1ccc(-c2ccccc2)cc1,didier14
650,2-METHYLHEXANAL,305.0,1,CCCCC(C)C=O,didier14
651,n-PROPYL ACRYLATE,293.0,1,C=CC(=O)OCCC,didier14
652,"trans-2-METHYL-1,3-PENTADIENE",253.2,1,C=C(C)/C=C/C,didier14
653,"N,N-DIMETHYL-n-BUTYLAMINE",270.1,1,CCCCN(C)C,didier14
654,3-ETHYL-o-XYLENE,338.1,1,CCc1cccc(C)c1C,didier14
655,5-ETHYL-m-XYLENE,326.0,1,CCc1cc(C)cc(C)c1,didier14
656,4-ETHYL-o-XYLENE,331.0,1,CCc1ccc(C)c(C)c1,didier14
657,2-PHENYLPROPIONALDEHYDE,342.0,1,CC(C=O)c1ccccc1,didier14
658,1-PHENYL-1-PROPANOL,363.1,1,CCC(O)c1ccccc1,didier14
659,METHYL BENZOATE,355.1,1,COC(=O)c1ccccc1,didier14
660,ETHYL BENZOATE,357.1,1,CCOC(=O)c1ccccc1,didier14
661,o-CHLOROTOLUENE,324.0,1,Cc1ccccc1Cl,didier14
662,"3,4-XYLENOL",376.0,1,Cc1ccc(O)cc1C,didier14
663,ALLYL METHACRYLATE,306.1,1,C=CCOC(=O)C(=C)C,didier14
664,3-METHYLPENTANE,241.0,1,CCC(C)CC,didier14
665,2-METHYLBUTYRALDEHYDE,271.0,1,CCC(C)C=O,didier14
666,METHYL ACRYLATE,270.0,1,C=CC(=O)OC,didier14
667,ETHYL METHACRYLATE,293.1,1,C=C(C)C(=O)OCC,didier14
668,ISOBUTYL ISOBUTYRATE,311.1,1,CC(C)COC(=O)C(C)C,didier14
669,ISOBUTYL METHACRYLATE,314.1,1,C=C(C)C(=O)OCC(C)C,didier14
670,n-BUTYL METHACRYLATE,322.0,1,C=C(C)C(=O)OCCCC,didier14
671,BENZOTRICHLORIDE,354.0,1,ClC(Cl)(Cl)c1ccccc1,didier14
672,p-tert-BUTYLPHENOL,386.0,1,CC(C)(C)c1ccc(O)cc1,didier14
673,CUMENE,304.1,1,CC(C)c1ccccc1,didier14
674,alpha-METHYLSTYRENE,313.1,1,C=C(C)c1ccccc1,didier14
675,ACETOPHENONE,355.4,1,CC(=O)c1ccccc1,didier14
676,BENZOYL CHLORIDE,345.0,1,O=C(Cl)c1ccccc1,didier14
677,m-DIISOPROPYLBENZENE,349.8,1,CC(C)c1cccc(C(C)C)c1,didier14
678,METHYL para-TOLUATE,363.7,1,COC(=O)c1ccc(C)cc1,didier14
679,p-CYMENE,320.0,1,Cc1ccc(C(C)C)cc1,didier14
680,p-CHLORONITROBENZENE,400.1,1,O=[N+]([O-])c1ccc(Cl)cc1,didier14
681,p-NITROANILINE,472.1,1,Nc1ccc([N+](=O)[O-])cc1,didier14
682,p-DINITROBENZENE,433.0,1,O=[N+]([O-])c1ccc([N+](=O)[O-])cc1,didier14
683,CYCLOPENTYLAMINE,290.1,1,NC1CCCC1,didier14
684,ETHYLBENZENE,288.1,1,CCc1ccccc1,didier14
685,N-METHYLCYCLOHEXYLAMINE,302.1,1,CNC1CCCCC1,didier14
686,N-METHYLANILINE,351.0,1,CNc1ccccc1,didier14
687,PHENYLHYDRAZINE,362.1,1,NNc1ccccc1,didier14
688,DICYCLOHEXYLAMINE,377.0,1,C1CCC(NC2CCCCC2)CC1,didier14
689,DIPHENYL ETHER,369.0,1,c1ccc(Oc2ccccc2)cc1,didier14
690,DI(2-ETHYLHEXYL)ADIPATE,466.0,1,CCCCC(CC)COC(=O)CCCCC(=O)OCC(CC)CCCC,didier14
691,n-PROPYLBENZENE,303.1,1,CCCc1ccccc1,didier14
692,N-ETHYLANILINE,358.1,1,CCNc1ccccc1,didier14
693,ACETANILIDE,446.1,1,CC(=O)Nc1ccccc1,didier14
694,4-METHOXYPHENYLACETIC ACID,437.0,1,COc1ccc(CC(=O)O)cc1,didier14
695,2-ETHYL-1-HEXANOL,346.0,1,CCCCC(CC)CO,didier14
696,p-DIETHYLBENZENE,329.1,1,CCc1ccc(CC)cc1,didier14
697,"1,4-CYCLOHEXANEDIMETHANOL",434.1,1,OCC1CCC(CO)CC1,didier14
698,2-METHYL-1-PENTANOL,319.0,1,CCCC(C)CO,didier14
699,METHYL CYANOACETATE,383.1,1,COC(=O)CC#N,didier14
700,ETHYL PROPIONATE,285.0,1,CCOC(=O)CC,didier14
701,ETHYLCHLOROACETATE,311.0,1,CCOC(=O)CCl,didier14
702,METHYL ACETOACETATE,343.0,1,COC(=O)CC(C)=O,didier14
703,DIETHYL MALONATE,366.1,1,CCOC(=O)CC(=O)OCC,didier14
704,ETHYL n-BUTYRATE,297.1,1,CCCC(=O)OCC,didier14
705,ETHYL CYANOACETATE,383.1,1,CCOC(=O)CC#N,didier14
706,METHYL DIETHANOLAMINE,399.8,1,CN(CCO)CCO,didier14
707,n-PROPYL n-BUTYRATE,305.0,1,CCCOC(=O)CCC,didier14
708,"2,4-XYLENOL",368.1,1,Cc1ccc(O)c(C)c1,didier14
709,DIBUTYL MALEATE,413.0,1,CCCCOC(=O)/C=C\C(=O)OCCCC,didier14
710,3-HEPTANONE,310.1,1,CCCCC(=O)CC,didier14
711,n-PROPYL PROPIONATE,292.1,1,CCCOC(=O)CC,didier14
712,p-XYLENE,298.1,1,Cc1ccc(C)cc1,didier14
713,p-CRESOL,368.0,1,Cc1ccc(O)cc1,didier14
714,p-DICHLOROBENZENE,339.0,1,Clc1ccc(Cl)cc1,didier14
715,p-CHLOROANILINE,386.0,1,Nc1ccc(Cl)cc1,didier14
716,p-CHLOROPHENOL,389.0,1,Oc1ccc(Cl)cc1,didier14
717,p-TOLUIDINE,360.0,1,Cc1ccc(N)cc1,didier14
718,p-PHENYLENEDIAMINE,428.7,1,Nc1ccc(N)cc1,didier14
719,ISOBUTYL ACRYLATE,304.3,1,C=CC(=O)OCC(C)C,didier14
720,DIMETHYL SUCCINATE,358.1,1,COC(=O)CCC(=O)OC,didier14
721,3-METHYL-3-ETHYLPENTANE,276.0,1,CCC(C)(CC)CC,didier14
722,"3,3-DIETHYLPENTANE",294.0,1,CCC(CC)(CC)CC,didier14
723,"2,4-DIMETHYL-3-ETHYLPENTANE",288.0,1,CCC(C(C)C)C(C)C,didier14
724,"1,3-BUTADIENE",197.2,1,C=CC=C,didier14
725,n-PROPYL MERCAPTAN,253.2,1,CCCS,didier14
726,"1,2-DICHLOROETHANE",286.0,1,ClCCCl,didier14
727,2-CHLOROETHANOL,313.7,1,OCCCl,didier14
728,"2,2,4,4-TETRAMETHYLPENTANE",276.0,1,CC(C)(C)CC(C)(C)C,didier14
729,PROPIONITRILE,275.0,1,CCC#N,didier14
730,"2,2-DIMETHYLHEPTANE",297.0,1,CCCCCC(C)(C)C,didier14
731,ETHYLENEDIAMINE,306.1,1,NCCN,didier14
732,ETHYLENE GLYCOL,383.1,1,OCCO,didier14
733,"2,7-DIMETHYLOCTANE",306.0,1,CC(C)CCCCC(C)C,didier14
734,GLYOXAL,262.0,1,O=CC=O,didier14
735,CHLOROMETHYL METHYL ETHER,255.0,1,COCCl,didier14
736,HEXYLENE GLYCOL,366.0,1,OCCCCCCO,didier14
737,n-HEXYLBENZENE,353.1,1,CCCCCCc1ccccc1,didier14
738,n-HEPTYLBENZENE,368.1,1,CCCCCCCc1ccccc1,didier14
739,2-PENTANONE,280.0,1,CCCC(C)=O,didier14
740,"1,3-BUTANEDIOL",382.0,1,CC(O)CCO,didier14
741,n-BUTYRIC ACID,345.0,1,CCCC(=O)O,didier14
742,PROPYLENE GLYCOL MONOMETHYL ETHER,305.0,1,COCC(C)O,didier14
743,1-NITROPROPANE,306.1,1,CCC[N+](=O)[O-],didier14
744,METHYL ISOBUTYL KETONE,286.1,1,CC(=O)CC(C)C,didier14
745,4-METHYL-2-PENTANOL,314.0,1,CC(C)CC(C)O,didier14
746,DIISOPROPYLAMINE,266.1,1,CC(C)NC(C)C,didier14
747,DIISOPROPYL ETHER,245.0,1,CC(C)OC(C)C,didier14
748,m-XYLENE,298.1,1,Cc1cccc(C)c1,didier14
749,m-CRESOL,368.0,1,Cc1cccc(O)c1,didier14
750,m-CHLOROANILINE,378.0,1,Nc1cccc(Cl)c1,didier14
751,m-CHLOROPHENOL,364.0,1,Oc1cccc(Cl)c1,didier14
752,m-TOLUIDINE,359.1,1,Cc1cccc(N)c1,didier14
753,m-PHENYLENEDIAMINE,411.1,1,Nc1cccc(N)c1,didier14
754,"1,3-BENZENEDIOL",400.0,1,Oc1cccc(O)c1,didier14
755,"2,6-DIMETHYLPYRIDINE",306.0,1,Cc1cccc(C)n1,didier14
756,DIMETHYLMALONATE,363.1,1,CC(C)(C(=O)[O-])C(=O)[O-],didier14