,compound,flashpoint,pure substance,smiles,source
0,Cyclopentanamine,284.6,1,NC1CCCC1,didier14
1,Ethylbenzene,296.1,1,CCc1ccccc1,didier14
2,"Benzenamine, N-methyl-",351.0,1,CNc1ccccc1,didier14
3,Diphenyl ether,388.1,1,c1ccc(Oc2ccccc2)cc1,didier14
4,2-Ethylhexanol,346.0,1,CCCCC(CC)CO,didier14
5,"1,4-Diethylbenzene",330.0,1,CCc1ccc(CC)cc1,didier14
6,"1-Pentanol, 2-methyl-",323.1,1,CCCC(C)CO,didier14
7,Ethyl propionate,285.0,1,CCOC(=O)CC,didier14
8,"Ethane, 1,1-diethoxy-",286.1,1,CCOC(C)OCC,didier14
9,"2,4-Dimethylphenol",368.1,1,Cc1ccc(O)c(C)c1,didier14
10,3-Heptanone,310.1,1,CCCCC(=O)CC,didier14
11,"1,4-Dimethylbenzene",299.0,1,Cc1ccc(C)cc1,didier14
12,p-Toluidine,360.0,1,Cc1ccc(N)cc1,didier14
13,Isobutyl acrylate,304.3,1,C=CC(=O)OCC(C)C,didier14
14,"Pentane, 3,3-diethyl-",294.0,1,CCC(CC)(CC)CC,didier14
15,"1,3-Butadiene",197.2,1,C=CC=C,didier14
16,1-Propanethiol,253.2,1,CCCS,didier14
17,Propanenitrile,279.1,1,CCC#N,didier14
18,"Heptane, 2,2-dimethyl-",292.1,1,CCCCCC(C)(C)C,didier14
19,"1,2-Ethanediamine",311.0,1,NCCN,didier14
20,"Octane, 2,7-dimethyl-",310.9,1,CC(C)CCCCC(C)C,didier14
21,1-Phenylhexane,356.1,1,CCCCCCc1ccccc1,didier14
22,"Benzene, heptyl-",370.6,1,CCCCCCCc1ccccc1,didier14
23,2-Pentanone,280.0,1,CCCC(C)=O,didier14
24,Butyric acid,345.1,1,CCCC(=O)O,didier14
25,"2-Pentanol, 4-methyl-",314.0,1,CC(C)CC(C)O,didier14
26,Diisopropylamine,266.1,1,CC(C)NC(C)C,didier14
27,Isopropyl ether,245.0,1,CC(C)OC(C)C,didier14
28,"1,3-Dimethylbenzene",298.1,1,Cc1cccc(C)c1,didier14
29,"Phenol, 3-methyl-",359.1,1,Cc1cccc(O)c1,didier14
30,m-Toluidine,359.0,1,Cc1cccc(N)c1,didier14
31,"Pyridine, 2,6-dimethyl-",306.0,1,Cc1cccc(C)n1,didier14
32,Mesitylene,317.6,1,Cc1cc(C)cc(C)c1,didier14
33,"Cyclohexane, methyl-",269.1,1,CC1CCCCC1,didier14
34,Toluene,279.1,1,Cc1ccccc1,didier14
35,"Pyridine, 4-methyl-",312.1,1,Cc1ccncc1,didier14
36,Cyclohexanamine,299.6,1,NC1CCCCC1,didier14
37,Phenol,352.1,1,Oc1ccccc1,didier14
38,"Pyridine, 3-methyl-",309.1,1,Cc1cccnc1,didier14
39,"Pyridine, 2-methyl-",299.1,1,Cc1ccccn1,didier14
40,"Butanoic acid, butyl ester",323.1,1,CCCCOC(=O)CCC,didier14
41,Valeric acid,359.1,1,CCCCC(=O)O,didier14
42,Propyl acetate,283.7,1,CCCOC(C)=O,didier14
43,Pentane,224.2,1,CCCCC,didier14
44,1-Pentene,222.0,1,C=CCCC,didier14
45,1-Chlorobutane,263.8,1,CCCCCl,didier14
46,Butanenitrile,291.1,1,CCCC#N,didier14
47,"1,3-Diaminopropane",322.1,1,NCCCN,didier14
48,Butanethiol,274.1,1,CCCCS,didier14
49,"Ethanol, 2-methoxy-",312.1,1,COCCO,didier14
50,"2-Hexanone, 5-methyl-",308.1,1,CC(=O)CCC(C)C,didier14
51,Isobutyl acetate,291.0,1,CC(=O)OCC(C)C,didier14
52,2-Heptanone,312.1,1,CCCCCC(C)=O,didier14
53,Amylamine,280.1,1,CCCCCN,didier14
54,Valeraldehyde,285.1,1,CCCCC=O,didier14
55,1-Pentanethiol,291.1,1,CCCCCS,didier14
56,"1,2-Dimethoxyethane",271.5,1,COCCOC,didier14
57,Pyridine,293.1,1,c1ccncc1,didier14
58,2-Octanone,329.1,1,CCCCCCC(C)=O,didier14
59,Heptanoic acid,388.1,1,CCCCCCC(=O)O,didier14
60,Pimelic acid,423.1,1,O=C(O)CCCCCC(=O)O,didier14
61,1-Hexanamine,300.1,1,CCCCCCN,didier14
62,Hexyl alcohol,333.1,1,CCCCCCO,didier14
63,1-Hexanethiol,305.6,1,CCCCCCS,didier14
64,n-Butylvinylether,272.0,1,C=COCCCC,didier14
65,Octane,287.1,1,CCCCCCCC,didier14
66,1-Octene,284.6,1,C=CCCCCCC,didier14
67,Heptaldehyde,308.1,1,CCCCCCC=O,didier14
68,Nonane,304.1,1,CCCCCCCCC,didier14
69,1-Octanol,359.7,1,CCCCCCCCO,didier14
70,"Ethanol, 2-(2-ethoxyethoxy)-",363.1,1,CCOCCOCCO,didier14
71,"1-Butanamine, N-butyl-",315.0,1,CCCCNCCCC,didier14
72,Undecane,339.1,1,CCCCCCCCCCC,didier14
73,Acetic acid octyl ester,356.1,1,CCCCCCCCOC(C)=O,didier14
74,Decyl alcohol,377.1,1,CCCCCCCCCCO,didier14
75,Decanal,358.1,1,CCCCCCCCCC=O,didier14
76,1-Dodecene,346.1,1,C=CCCCCCCCCCC,didier14
77,1-Undecanol,386.1,1,CCCCCCCCCCCO,didier14
78,Undecanal,369.1,1,CCCCCCCCCCC=O,didier14
79,1-Dodecanol,400.0,1,CCCCCCCCCCCCO,didier14
80,1-Tetradecanol,421.1,1,CCCCCCCCCCCCCCO,didier14
81,1-Octadecene,421.1,1,C=CCCCCCCCCCCCCCCCC,didier14
82,Triethylamine,262.1,1,CCN(CC)CC,didier14
83,"N,N-Dimethylaniline",348.1,1,CN(C)c1ccccc1,didier14
84,4-Heptanone,307.1,1,CCCC(=O)CCC,didier14
85,Propionaldehyde,243.2,1,CCC=O,didier14
86,"1-Butanol, 3-methyl-",316.0,1,CC(C)CCO,didier14
87,Butyraldehyde,262.1,1,CCCC=O,didier14
88,Butyl acetate,298.1,1,CCCCOC(C)=O,didier14
89,2-Octanol,344.1,1,CCCCCCC(C)O,didier14
90,Octanoic acid,400.1,1,CCCCCCCC(=O)O,didier14
91,"1,6-Hexanediamine",354.1,1,NCCCCCCN,didier14
92,1-Nonene,299.1,1,C=CCCCCCCC,didier14
93,Octanal,324.1,1,CCCCCCCC=O,didier14
94,Decane,322.9,1,CCCCCCCCCC,didier14
95,1-Nonanal,336.1,1,CCCCCCCCC=O,didier14
96,Dimethylamine,223.2,1,CNC,didier14
97,1-Pentadecene,385.1,1,C=CCCCCCCCCCCCCC,didier14
98,"1,2-Diethylbenzene",330.4,1,CCc1ccccc1CC,didier14
99,"1-Butanol, 2-methyl-",316.1,1,CCC(C)CO,didier14
100,sec-Butylamine,254.2,1,CCC(C)N,didier14
101,Ethyl acetate,269.0,1,CCOC(C)=O,didier14
102,"1,3-Diethylbenzene",329.0,1,CCc1cccc(CC)c1,didier14
103,Hexanoic acid,375.1,1,CCCCCC(=O)O,didier14
104,Dipropylamine,280.6,1,CCCNCCC,didier14
105,Lauric acid,437.0,1,CCCCCCCCCCCC(=O)O,didier14
106,1-Nonanol,369.1,1,CCCCCCCCCO,didier14
107,NONYL ACETATE,372.1,1,CCCCCCCCCOC(C)=O,didier14
108,"Hexanoicacid, 2-ethyl-",383.1,1,CCCCC(CC)C(=O)O,didier14
109,1-PROPOXY-2-PROPANOL,321.1,1,CCCOCC(C)O,didier14
110,"Heptane, 3-ethyl-",296.1,1,CCCCC(CC)CC,didier14
111,"Nonane, 5-methyl-",312.0,1,CCCCC(C)CCCC,didier14
112,1-Heptanethiol,323.6,1,CCCCCCCS,didier14
113,"Cyclopentane, ethyl-",273.1,1,CCC1CCCC1,didier14
114,"Cyclohexane, ethyl-",291.1,1,CCC1CCCCC1,didier14
115,"Cyclohexane, butyl-",325.6,1,CCCCC1CCCCC1,didier14
116,"Nonane, 4-methyl-",317.1,1,CCCCCC(C)CCC,didier14
117,"Octane, 3-methyl-",298.6,1,CCCCCC(C)CC,didier14
118,"Octane, 4-methyl-",296.1,1,CCCCC(C)CCC,didier14
119,"Ethanol, 2-propoxy-",322.1,1,CCCOCCO,didier14
120,"Octane, 2-methyl-",299.1,1,CCCCCCC(C)C,didier14
121,Decanoic acid,421.1,1,CCCCCCCCCC(=O)O,didier14
122,"1-Hexene, 3-methyl-",267.1,1,C=CC(C)CCC,didier14
123,"1,2,3,4-Tetramethylbenzene",347.1,1,Cc1ccc(C)c(C)c1C,didier14
124,5-Nonanone,338.1,1,CCCCC(=O)CCCC,didier14
125,1-Butoxy-2-propanol,332.1,1,CCCCOCC(C)O,didier14
126,"2-Butene, 2-methyl-",228.2,1,CC=C(C)C,didier14
127,"1,2,3-Trimethylbenzene",324.1,1,Cc1cccc(C)c1C,didier14
128,"2,3-Dimethylphenol",368.1,1,Cc1cccc(O)c1C,didier14
129,"Benzene, pentyl-",339.1,1,CCCCCc1ccccc1,didier14
130,2-Heptanol,332.1,1,CCCCCC(C)O,didier14
131,"Pentane, 1-chloro-",284.1,1,CCCCCCl,didier14
132,Hexadecane,407.1,1,CCCCCCCCCCCCCCCC,didier14
133,"1-Butene, 3,3-dimethyl-",241.2,1,C=CC(C)(C)C,didier14
134,"1-Butene, 3-methyl-",217.2,1,C=CC(C)C,didier14
135,"2-Butene, 2,3-dimethyl-",257.1,1,CC(C)=C(C)C,didier14
136,3-Methyl-2-butanone,272.1,1,CC(=O)C(C)C,didier14
137,"2-Pentanone, 3-methyl-",285.1,1,CCC(C)C(C)=O,didier14
138,"3-Pentanone, 2-methyl-",286.1,1,CCC(=O)C(C)C,didier14
139,Stearic acid,469.0,1,CCCCCCCCCCCCCCCCCC(=O)O,didier14
140,"2,6-Dimethylphenol",358.1,1,Cc1cccc(C)c1O,didier14
141,"Hexane, 3,4-dimethyl-",280.6,1,CCC(C)C(C)CC,didier14
142,3-Pentanol,303.1,1,CCC(O)CC,didier14
143,"1-Pentanol, 3-methyl-",331.1,1,CCC(C)CCO,didier14
144,"Hexane, 2,4-dimethyl-",276.1,1,CCC(C)CC(C)C,didier14
145,"Heptane, 4-methyl-",279.1,1,CCCC(C)CCC,didier14
146,"Heptane, 3-methyl-",279.1,1,CCCCC(C)CC,didier14
147,"Nonane, 3-methyl-",319.1,1,CCCCCCC(C)CC,didier14
148,2-Hexanone,296.1,1,CCCCC(C)=O,didier14
149,Allyl acetate,283.0,1,C=CCOC(C)=O,didier14
150,"Hexane, 2,5-dimethyl-",275.1,1,CC(C)CCC(C)C,didier14
151,"Heptane, 2-methyl-",279.1,1,CCCCCC(C)C,didier14
152,1-Hexene,247.2,1,C=CCCCC,didier14
153,1-Heptene,265.1,1,C=CCCCCC,didier14
154,"2,2-Dimethylbutyric acid",352.1,1,CCC(C)(C)C(=O)O,didier14
155,"2-Butanol, 3-methyl-",299.1,1,CC(C)C(C)O,didier14
156,Diethyl ether,228.2,1,CCOCC,didier14
157,2-Pentanol,307.1,1,CCCC(C)O,didier14
158,"1-Hexene, 2-methyl-",267.1,1,C=C(C)CCCC,didier14
159,"Hexane, 3-ethyl-",278.0,1,CCCC(CC)CC,didier14
160,m-Ethyltoluene,311.1,1,CCc1cccc(C)c1,didier14
161,"Cyclohexane, 1,4-dimethyl-, cis-",284.3,1,C[C@H]1CC[C@@H](C)CC1,didier14
162,Aniline,344.1,1,Nc1ccccc1,didier14
163,2-Hexanol,318.1,1,CCCCC(C)O,didier14
164,"Propane, 1-ethoxy-",253.2,1,CCCOCC,didier14
165,Amyl acetate,310.1,1,CCCCCOC(C)=O,didier14
166,Hexanenitrile,316.1,1,CCCCCC#N,didier14
167,Tridecane,363.1,1,CCCCCCCCCCCCC,didier14
168,Tetradecane,382.4,1,CCCCCCCCCCCCCC,didier14
169,1-Hexadecene,402.1,1,C=CCCCCCCCCCCCCCC,didier14
170,Heptadecane,421.1,1,CCCCCCCCCCCCCCCCC,didier14
171,Nonadecane,441.0,1,CCCCCCCCCCCCCCCCCCC,didier14
172,Ethanol,286.1,1,CCO,didier14
173,Benzoic acid,394.3,1,O=C(O)c1ccccc1,didier14
174,1-HEXANAL,300.0,1,CCCCCC=O,didier14
175,Isopropanol,285.1,1,CC(C)O,didier14
176,1-Propanol,297.6,1,CCCO,didier14
177,1-Butanol,310.5,1,CCCCO,didier14
178,1-Pentanol,322.1,1,CCCCCO,didier14
179,Benzene,262.0,1,c1ccccc1,didier14
180,"Pentane, 2,2,3,3-tetramethyl-",294.6,1,CCC(C)(C)C(C)(C)C,didier14
181,"3,3,5-Trimethylheptane",304.0,1,CCC(C)CC(C)(C)CC,didier14
182,Dimethyl sulfide,237.2,1,CSC,didier14
183,2-Chloropropane,238.2,1,CC(C)Cl,didier14
184,Isopropylamine,236.2,1,CC(C)N,didier14
185,2-Propanethiol,239.0,1,CC(C)S,didier14
186,"Ethane, 1,1-dichloro-",263.1,1,CC(Cl)Cl,didier14
187,tert-Butanol,284.3,1,CC(C)(C)O,didier14
188,"2-Butanol, 2-methyl-",292.1,1,CCC(C)(C)O,didier14
189,Pinacolone,282.1,1,CC(=O)C(C)(C)C,didier14
190,"1-Pentene, 3-methyl-",245.2,1,C=CC(C)CC,didier14
191,"3-Pentanol, 3-methyl-",297.1,1,CCC(C)(O)CC,didier14
192,"1,2-Dimethoxypropane",273.1,1,COCC(C)OC,didier14
193,2-Methyl-1-propanol,302.3,1,CC(C)CO,didier14
194,"Butane, 2-chloro-",258.1,1,CCC(C)Cl,didier14
195,sec-Butanol,296.1,1,CCC(C)O,didier14
196,Methyl acetate,260.1,1,COC(C)=O,didier14
197,2-Nonanone,345.5,1,CCCCCCCC(C)=O,didier14
198,"1,1':2',1''-Terphenyl",436.0,1,c1ccc(-c2ccccc2-c2ccccc2)cc1,didier14
199,"Nonane, 2-methyl-",314.0,1,CCCCCCCC(C)C,didier14
200,1-Decene,320.1,1,C=CCCCCCCCC,didier14
201,"Phenol, 2-ethyl-",358.1,1,CCc1ccccc1O,didier14
202,3-Nonanone,339.1,1,CCCCCCC(=O)CC,didier14
203,6-Undecanone,361.5,1,CCCCCC(=O)CCCCC,didier14
204,p-Terphenyl,480.0,1,c1ccc(-c2ccc(-c3ccccc3)cc2)cc1,didier14
205,"1,2-Dimethylbenzene",305.1,1,Cc1ccccc1C,didier14
206,"Benzenamine, 2-methyl-",358.1,1,Cc1ccccc1N,didier14
207,"1,2,4-TRIMETHYL BENZENE",318.6,1,Cc1ccc(C)c(C)c1,didier14
208,"1,2,4,5-Tetramethylbenzene",346.1,1,Cc1cc(C)c(C)cc1C,didier14
209,3-Pentanone,280.1,1,CCC(=O)CC,didier14
210,2-Ethyl-1-butanol,326.1,1,CCC(CC)CO,didier14
211,p-DIMETHYLAMINOBENZALDEHYDE,420.1,1,CN(C)c1ccc(C=O)cc1,didier14
212,p-DIISOPROPYLBENZENE,354.1,1,CC(C)c1ccc(C(C)C)cc1,didier14
213,3-METHYLUNDECANE,344.0,1,CCCCCCCCC(C)CC,didier14
214,n-PENTADECANOIC ACID,454.0,1,CCCCCCCCCCCCCCC(=O)O,didier14
215,DIETHYLETHANOLAMINE,321.1,1,CCN(CC)CCO,didier14
216,STYRENE,305.0,1,C=Cc1ccccc1,didier14
217,BENZYL CHLORIDE,333.1,1,ClCc1ccccc1,didier14
218,BENZYLAMINE,333.1,1,NCc1ccccc1,didier14
219,BENZONITRILE,344.1,1,N#Cc1ccccc1,didier14
220,BENZYL ALCOHOL,366.1,1,OCc1ccccc1,didier14
221,BENZALDEHYDE,335.1,1,O=Cc1ccccc1,didier14
222,BENZYL MERCAPTAN,343.1,1,SCc1ccccc1,didier14
223,NICOTINONITRILE,357.1,1,N#Cc1cccnc1,didier14
224,ANISOLE,325.1,1,COc1ccccc1,didier14
225,METHYL PHENYL SULFIDE,342.0,1,CSc1ccccc1,didier14
226,m-METHYLSTYRENE,324.1,1,C=Cc1cccc(C)c1,didier14
227,"1,4-DI-tert-BUTYLBENZENE",361.0,1,CC(C)(C)c1ccc(C(C)(C)C)cc1,didier14
228,DIPHENYLMETHANE,403.1,1,c1ccc(Cc2ccccc2)cc1,didier14
229,"1,3,5-TRIETHYLBENZENE",354.1,1,CCc1cc(CC)cc(CC)c1,didier14
230,TRIPROPYLAMINE,302.0,1,CCCN(CCC)CCC,didier14
231,TRIALLYLAMINE,304.0,1,C=CCN(CC=C)CC=C,didier14
232,TRI-n-BUTYLAMINE,359.3,1,CCCCN(CCCC)CCCC,didier14
233,2-ETHYLHEXYL ACETATE,344.1,1,CCCCC(CC)COC(C)=O,didier14
234,2-ETHYLHEXYL ACRYLATE,355.1,1,C=CC(=O)OCC(CC)CCCC,didier14
235,"1,2-DIPHENYLETHANE",402.0,1,c1ccc(CCc2ccccc2)cc1,didier14
236,trans-STILBENE,418.0,1,C(=C/c1ccccc1)\c1ccccc1,didier14
237,DIBENZYL ETHER,408.1,1,c1ccc(COCc2ccccc2)cc1,didier14
238,PHENETOLE,325.0,1,CCOc1ccccc1,didier14
239,ANETHOLE,362.1,1,CC=Cc1ccc(OC)cc1,didier14
240,n-BUTYLBENZENE,323.1,1,CCCCc1ccccc1,didier14
241,BENZYL FORMATE,355.0,1,O=COCc1ccccc1,didier14
242,n-DECYLBENZENE,380.0,1,CCCCCCCCCCc1ccccc1,didier14
243,TRIDECANAL,390.0,1,CCCCCCCCCCCCC=O,didier14
244,p-TOLUALDEHYDE,353.0,1,Cc1ccc(C=O)cc1,didier14
245,2-METHYL-1-UNDECANOL,392.0,1,CCCCCCCCCC(C)CO,didier14
246,VINYL PROPIONATE,274.0,1,C=COC(=O)CC,didier14
247,DIETHYL CARBONATE,298.1,1,CCOC(=O)OCC,didier14
248,BUTYRIC ANHYDRIDE,355.0,1,CCCC(=O)OC(=O)CCC,didier14
249,p-CHLOROTOLUENE,325.0,1,Cc1ccc(Cl)cc1,didier14
250,3-OCTANONE,316.1,1,CCCCCC(=O)CC,didier14
251,n-BUTANE,199.2,1,CCCC,didier14
252,1-BUTENE,193.2,1,C=CCC,didier14
253,ACROLEIN,247.2,1,C=CC=O,didier14
254,3-CHLOROPROPENE,241.2,1,C=CCCl,didier14
255,n-PROPYLAMINE,261.0,1,CCCN,didier14
256,ALLYLAMINE,244.3,1,C=CCN,didier14
257,ACRYLONITRILE,273.1,1,C=CC#N,didier14
258,"2,2,5,5-TETRAMETHYLHEXANE",289.0,1,CC(C)(C)CCC(C)(C)C,didier14
259,ALLYL ALCOHOL,294.0,1,C=CCO,didier14
260,"2,6-DIMETHYLHEPTANE",299.0,1,CC(C)CCCC(C)C,didier14
261,METHYL VINYL ETHER,217.2,1,C=COC,didier14
262,ACETALDOXIME,313.1,1,CC=NO,didier14
263,METHYL FORMATE,254.0,1,COC=O,didier14
264,"2,4,4-TRIMETHYL-1-PENTENE",267.1,1,C=C(C)CC(C)(C)C,didier14
265,"2,4,4-TRIMETHYL-2-PENTENE",272.1,1,CC(C)=CC(C)(C)C,didier14
266,1-METHYL-2-n-PROPYLBENZENE,326.0,1,CCCc1ccccc1C,didier14
267,1-METHYL-3-n-PROPYLBENZENE,325.0,1,CCCc1cccc(C)c1,didier14
268,1-METHYL-4-n-PROPYLBENZENE,326.0,1,CCCc1ccc(C)cc1,didier14
269,DI-tert-BUTYL SULFIDE,300.0,1,CC(C)(C)SC(C)(C)C,didier14
270,2-METHYLPENTANE,238.0,1,CCCC(C)C,didier14
271,trans-CROTONIC ACID,368.0,1,C/C=C/C(=O)O,didier14
272,DIMETHYLETHANOLAMINE,314.1,1,CN(C)CCO,didier14
273,VINYL ACETATE,265.0,1,C=COC(C)=O,didier14
274,"2,4-DIMETHYLPENTANE",261.0,1,CC(C)CC(C)C,didier14
275,n-NONYLBENZENE,372.0,1,CCCCCCCCCc1ccccc1,didier14
276,ISOPROPYL ACETATE,275.0,1,CC(=O)OC(C)C,didier14
277,1-METHYLVINYL ACETATE,283.0,1,C=C(C)OC(C)=O,didier14
278,ACETIC ANHYDRIDE,322.6,1,CC(=O)OC(C)=O,didier14
279,m-DIVINYLBENZENE,338.0,1,C=Cc1cccc(C=C)c1,didier14
280,ETHYL ISOVALERATE,298.1,1,CCOC(=O)CC(C)C,didier14
281,"3,5-XYLENOL",373.0,1,Cc1cc(C)cc(O)c1,didier14
282,"2,4,6-TRIMETHYLPYRIDINE",330.1,1,Cc1cc(C)nc(C)c1,didier14
283,"2,6-DIMETHYL-4-HEPTANOL",339.0,1,CC(C)CC(O)CC(C)C,didier14
284,MONOCHLOROBENZENE,305.0,1,Clc1ccccc1,didier14
285,PHENYL MERCAPTAN,346.1,1,Sc1ccccc1,didier14
286,5-HEXEN-2-ONE,296.1,1,C=CCCC(C)=O,didier14
287,n-BUTYLAMINE,261.0,1,CCCCN,didier14
288,VINYLACETONITRILE,296.1,1,C=CCC#N,didier14
289,DIVINYL ETHER,226.2,1,C=COC=C,didier14
290,ETHYL FORMATE,253.2,1,CCOC=O,didier14
291,DI-tert-BUTYL DISULFIDE,337.1,1,CC(C)(C)SSC(C)(C)C,didier14
292,TETRAMETHYLETHYLENEDIAMINE,283.1,1,CN(C)CCN(C)C,didier14
293,ISOPROPYL MYRISTATE,423.0,1,CCCCCCCCCCCCCC(=O)OC(C)C,didier14
294,VALERONITRILE,305.0,1,CCCCC#N,didier14
295,n-PROPYL FORMATE,270.0,1,CCCOC=O,didier14
296,ETHYLTHIOETHANOL,350.1,1,CCSC(C)O,didier14
297,DIETHYL DISULFIDE,313.1,1,CCSSCC,didier14
298,DIISOBUTYLAMINE,294.1,1,CC(C)CNCC(C)C,didier14
299,DI-n-PROPYL ETHER,294.1,1,CCCOCCC,didier14
300,DI-n-PROPYL SULFIDE,301.0,1,CCCSCCC,didier14
301,"3-METHYL-1,4-PENTADIENE",235.0,1,C=CC(C)C=C,didier14
302,TRI-n-OCTYLAMINE,457.0,1,CCCCCCCCN(CCCCCCCC)CCCCCCCC,didier14
303,n-HEPTYLAMINE,308.1,1,CCCCCCCN,didier14
304,1-HEPTANOL,345.0,1,CCCCCCCO,didier14
305,METHYL DODECANOATE,391.0,1,CCCCCCCCCCCC(=O)OC,didier14
306,n-OCTYLAMINE,333.0,1,CCCCCCCCN,didier14
307,n-OCTYL MERCAPTAN,341.1,1,CCCCCCCCS,didier14
308,1-TETRADECENE,370.0,1,C=CCCCCCCCCCCCC,didier14
309,DI-n-OCTYLAMINE,383.1,1,CCCCCCCCNCCCCCCCC,didier14
310,n-NONANOIC ACID,401.0,1,CCCCCCCCC(=O)O,didier14
311,n-HEPTYL ACETATE,340.0,1,CCCCCCCOC(C)=O,didier14
312,n-NONYLAMINE,335.1,1,CCCCCCCCCN,didier14
313,n-HEPTYL FORMATE,327.0,1,CCCCCCCOC=O,didier14
314,n-UNDECANOIC ACID,421.1,1,CCCCCCCCCCC(=O)O,didier14
315,2-PHENYL-1-PROPANOL,366.1,1,CC(CO)c1ccccc1,didier14
316,n-DODECANE,347.0,1,CCCCCCCCCCCC,didier14
317,DI-n-HEXYL ETHER,350.1,1,CCCCCCOCCCCCC,didier14
318,METHYL OLEATE,450.0,1,CCCCCCCC/C=C\CCCCCCCC(=O)OC,didier14
319,1-TRIDECANOL,394.0,1,CCCCCCCCCCCCCO,didier14
320,OLEIC ACID,462.0,1,CCCCCCCC/C=C\CCCCCCCC(=O)O,didier14
321,1-OCTADECANOL,450.0,1,CCCCCCCCCCCCCCCCCCO,didier14
322,n-EICOSANE,440.0,1,CCCCCCCCCCCCCCCCCCCC,didier14
323,ISOBUTENE,197.0,1,C=C(C)C,didier14
324,2-METHYLBUTYRIC ACID,348.0,1,CCC(C)C(=O)O,didier14
325,NEOHEPTANOIC ACID,366.0,1,CC(C)(C)CCC(=O)O,didier14
326,o-TOLUIC ACID,407.0,1,Cc1ccccc1C(=O)O,didier14
327,BENZOPHENONE,419.0,1,O=C(c1ccccc1)c1ccccc1,didier14
328,BENZYL BENZOATE,418.1,1,O=C(OCc1ccccc1)c1ccccc1,didier14
329,DIPHENYLAMINE,426.0,1,c1ccc(Nc2ccccc2)cc1,didier14
330,3-PHENYL-1-PROPANOL,373.1,1,OCCCc1ccccc1,didier14
331,n-DODECYLBENZENE,414.0,1,CCCCCCCCCCCCc1ccccc1,didier14
332,n-TRIDECYLBENZENE,438.0,1,CCCCCCCCCCCCCc1ccccc1,didier14
333,2-ETHYLHEXANAL,317.1,1,CCCCC(C=O)CC,didier14
334,"2,6,8-TRIMETHYL-4-NONANONE",356.0,1,CC(C)CC(=O)CC(C)CC(C)C,didier14
335,PROPIONIC ANHYDRIDE,336.0,1,CCC(=O)OC(=O)CC,didier14
336,trans-CROTONALDEHYDE,281.1,1,C/C=C/C=O,didier14
337,ISOPENTYL ACETATE,298.1,1,CC(=O)OCCC(C)C,didier14
338,DIALLYLAMINE,284.1,1,C=CCNCC=C,didier14
339,n-DODECYLAMINE,382.0,1,CCCCCCCCCCCCN,didier14
340,METHACRYLONITRILE,286.0,1,C=C(C)C#N,didier14
341,"2,6-DI-tert-BUTYL-p-CRESOL",390.1,1,Cc1cc(C(C)(C)C)c(O)c(C(C)(C)C)c1,didier14
342,4-METHYL-1-HEPTENE,275.0,1,C=CCC(C)CCC,didier14
343,7-METHYL-1-OCTENE,291.0,1,C=CCCCCC(C)C,didier14
344,DINONYLPHENOL,535.0,1,CCCCCCCCCc1cccc(O)c1CCCCCCCCC,didier14
345,METHYL t-PENTYL SULFIDE,302.0,1,CCC(C)(C)SC,didier14
346,"2,2,3,3-TETRAMETHYLHEXANE",302.0,1,CCCC(C)(C)C(C)(C)C,didier14
347,n-BUTYL BENZOATE,379.1,1,CCCCOC(=O)c1ccccc1,didier14
348,CINNAMIC ACID,445.0,1,O=C(O)C=Cc1ccccc1,didier14
349,BENZYL ACETATE,363.1,1,CC(=O)OCc1ccccc1,didier14
350,PHENYLACETONITRILE,374.1,1,N#CCc1ccccc1,didier14
351,p-tert-OCTYLPHENOL,406.0,1,CC(C)(C)CC(C)(C)c1ccc(O)cc1,didier14
352,ETHYL ACRYLATE,282.1,1,C=CC(=O)OCC,didier14
353,n-BUTYL ACRYLATE,312.0,1,C=CC(=O)OCCCC,didier14
354,tert-OCTYL MERCAPTAN,304.0,1,CC(C)(C)CC(C)(C)S,didier14
355,MESITYL OXIDE,301.0,1,CC(=O)C=C(C)C,didier14
356,ETHYL t-BUTYL SULFIDE,282.0,1,CCSC(C)(C)C,didier14
357,n-HEXYL ACETATE,310.1,1,CCCCCCOC(C)=O,didier14
358,DI-n-BUTYL ETHER,298.1,1,CCCCOCCCC,didier14
359,n-DECYL MERCAPTAN,371.1,1,CCCCCCCCCCS,didier14
360,1-NONADECANOL,458.0,1,CCCCCCCCCCCCCCCCCCCO,didier14
361,1-HEPTADECANOL,441.0,1,CCCCCCCCCCCCCCCCCO,didier14
362,n-NONYL MERCAPTAN,351.1,1,CCCCCCCCCS,didier14
363,n-HEXADECYLBENZENE,466.0,1,CCCCCCCCCCCCCCCCc1ccccc1,didier14
364,n-TETRADECYLBENZENE,447.0,1,CCCCCCCCCCCCCCc1ccccc1,didier14
365,n-HEPTADECYLBENZENE,472.0,1,CCCCCCCCCCCCCCCCCc1ccccc1,didier14
366,"1,1,2-TRIPHENYLETHANE",441.0,1,c1ccc(CC(c2ccccc2)c2ccccc2)cc1,didier14
367,METHYL ISOPROPYL SULFIDE,262.0,1,CSC(C)C,didier14
368,p-PHENETIDINE,389.0,1,CCOc1ccc(N)cc1,didier14
369,IBUPROFEN,436.0,1,CC(C)Cc1ccc(C(C)C(=O)O)cc1,didier14
370,"cis-1,3-PENTADIENE",232.0,1,C=C/C=C\C,didier14
371,cis-CROTONALDEHYDE,281.1,1,C/C=C\C=O,didier14
372,"2,2-DIMETHYLOCTANE",304.0,1,CCCCCCC(C)(C)C,didier14
373,"2,5-DIMETHYLOCTANE",306.0,1,CCCC(C)CCC(C)C,didier14
374,2-METHYL-1-HEPTENE,283.1,1,C=C(C)CCCCC,didier14
375,p-ISOPROPENYLSTYRENE,360.0,1,C=Cc1ccc(C(=C)C)cc1,didier14
376,2-ETHYL-1-HEXENE,279.0,1,C=C(CC)CCCC,didier14
377,"1,9-DECADIENE",316.0,1,C=CCCCCCCC=C,didier14
378,"2,3-DIMETHYL-1-HEXENE",281.0,1,C=C(C)C(C)CCC,didier14
379,"2,2-DIMETHYL-3-ETHYLPENTANE",286.0,1,CCC(CC)C(C)(C)C,didier14
380,"1,2-DIMETHYL-3-PROPYLBENZENE",345.0,1,CCCc1cccc(C)c1C,didier14
381,p-tert-BUTYLSTYRENE,352.0,1,C=Cc1ccc(C(C)(C)C)cc1,didier14
382,2-ETHYL-p-XYLENE,329.0,1,CCc1cc(C)ccc1C,didier14
383,"1,2,4-TRIMETHYL-5-ETHYLBENZENE",347.0,1,CCc1cc(C)c(C)cc1C,didier14
384,N-ETHYL-2-METHYLALLYLAMINE,280.1,1,C=C(C)CNCC,didier14
385,1-NONADECENE,430.0,1,C=CCCCCCCCCCCCCCCCCC,didier14
386,ISOPROPYL BUTYL ETHER,277.0,1,CCCCOC(C)C,didier14
387,"2,3-DIMETHYL-2,3-DIPHENYLBUTANE",412.0,1,CC(C)(c1ccccc1)C(C)(C)c1ccccc1,didier14
388,1-ETHYL-2-ISOPROPYLBENZENE,331.0,1,CCc1ccccc1C(C)C,didier14