,compound,flashpoint,pure substance,smiles,source
12728,ETHYLCHLOROACETATE,311.0,1.0,CCOC(=O)CCl,didier14
12729,METHYL ACETOACETATE,343.0,1.0,COC(=O)CC(C)=O,didier14
12730,DIETHYL MALONATE,366.1,1.0,CCOC(=O)CC(=O)OCC,didier14
12731,ETHYL n-BUTYRATE,297.1,1.0,CCCC(=O)OCC,didier14
12732,ETHYL CYANOACETATE,383.1,1.0,CCOC(=O)CC#N,didier14
12733,METHYL DIETHANOLAMINE,399.8,1.0,CN(CCO)CCO,didier14
12734,n-PROPYL n-BUTYRATE,305.0,1.0,CCCOC(=O)CCC,didier14
12735,"2,4-XYLENOL",368.1,1.0,Cc1ccc(O)c(C)c1,didier14
12736,DIBUTYL MALEATE,413.0,1.0,CCCCOC(=O)/C=C\C(=O)OCCCC,didier14
12737,3-HEPTANONE,310.1,1.0,CCCCC(=O)CC,didier14
12738,n-PROPYL PROPIONATE,292.1,1.0,CCCOC(=O)CC,didier14
12739,p-XYLENE,298.1,1.0,Cc1ccc(C)cc1,didier14
12740,p-CRESOL,368.0,1.0,Cc1ccc(O)cc1,didier14
12741,p-DICHLOROBENZENE,339.0,1.0,Clc1ccc(Cl)cc1,didier14
12742,p-CHLOROANILINE,386.0,1.0,Nc1ccc(Cl)cc1,didier14
12743,p-CHLOROPHENOL,389.0,1.0,Oc1ccc(Cl)cc1,didier14
12744,p-TOLUIDINE,360.0,1.0,Cc1ccc(N)cc1,didier14
12745,p-PHENYLENEDIAMINE,428.7,1.0,Nc1ccc(N)cc1,didier14
12746,ISOBUTYL ACRYLATE,304.3,1.0,C=CC(=O)OCC(C)C,didier14
12747,DIMETHYL SUCCINATE,358.1,1.0,COC(=O)CCC(=O)OC,didier14
12748,3-METHYL-3-ETHYLPENTANE,276.0,1.0,CCC(C)(CC)CC,didier14
12749,"3,3-DIETHYLPENTANE",294.0,1.0,CCC(CC)(CC)CC,didier14
12750,"2,4-DIMETHYL-3-ETHYLPENTANE",288.0,1.0,CCC(C(C)C)C(C)C,didier14
12751,"1,3-BUTADIENE",197.2,1.0,C=CC=C,didier14
12752,n-PROPYL MERCAPTAN,253.2,1.0,CCCS,didier14
12753,"1,2-DICHLOROETHANE",286.0,1.0,ClCCCl,didier14
12754,2-CHLOROETHANOL,313.7,1.0,OCCCl,didier14
12755,"2,2,4,4-TETRAMETHYLPENTANE",276.0,1.0,CC(C)(C)CC(C)(C)C,didier14
12756,PROPIONITRILE,275.0,1.0,CCC#N,didier14
12757,"2,2-DIMETHYLHEPTANE",297.0,1.0,CCCCCC(C)(C)C,didier14
12758,ETHYLENEDIAMINE,306.1,1.0,NCCN,didier14
12759,ETHYLENE GLYCOL,383.1,1.0,OCCO,didier14
12760,"2,7-DIMETHYLOCTANE",306.0,1.0,CC(C)CCCCC(C)C,didier14
12761,GLYOXAL,262.0,1.0,O=CC=O,didier14
12762,CHLOROMETHYL METHYL ETHER,255.0,1.0,COCCl,didier14
12763,HEXYLENE GLYCOL,366.0,1.0,OCCCCCCO,didier14
12764,n-HEXYLBENZENE,353.1,1.0,CCCCCCc1ccccc1,didier14
12765,n-HEPTYLBENZENE,368.1,1.0,CCCCCCCc1ccccc1,didier14
12766,2-PENTANONE,280.0,1.0,CCCC(C)=O,didier14
12767,"1,3-BUTANEDIOL",382.0,1.0,CC(O)CCO,didier14
12768,n-BUTYRIC ACID,345.0,1.0,CCCC(=O)O,didier14
12769,PROPYLENE GLYCOL MONOMETHYL ETHER,305.0,1.0,COCC(C)O,didier14
12770,1-NITROPROPANE,306.1,1.0,CCC[N+](=O)[O-],didier14
12771,METHYL ISOBUTYL KETONE,286.1,1.0,CC(=O)CC(C)C,didier14
12772,4-METHYL-2-PENTANOL,314.0,1.0,CC(C)CC(C)O,didier14
12773,DIISOPROPYLAMINE,266.1,1.0,CC(C)NC(C)C,didier14
12774,DIISOPROPYL ETHER,245.0,1.0,CC(C)OC(C)C,didier14
12775,m-XYLENE,298.1,1.0,Cc1cccc(C)c1,didier14
12776,m-CRESOL,368.0,1.0,Cc1cccc(O)c1,didier14
12777,m-CHLOROANILINE,378.0,1.0,Nc1cccc(Cl)c1,didier14
12778,m-CHLOROPHENOL,364.0,1.0,Oc1cccc(Cl)c1,didier14
12779,m-TOLUIDINE,359.1,1.0,Cc1cccc(N)c1,didier14
12780,m-PHENYLENEDIAMINE,411.1,1.0,Nc1cccc(N)c1,didier14
12781,"1,3-BENZENEDIOL",400.0,1.0,Oc1cccc(O)c1,didier14
12782,"2,6-DIMETHYLPYRIDINE",306.0,1.0,Cc1cccc(C)n1,didier14
12783,DIMETHYLMALONATE,363.1,1.0,CC(C)(C(=O)[O-])C(=O)[O-],didier14
12784,PROPYLENE GLYCOL MONOMETHYL ETHER ACETATE,316.0,1.0,COCC(C)OC(C)=O,didier14
12785,MESITYLENE,317.6,1.0,Cc1cc(C)cc(C)c1,didier14
12786,DIISOBUTYL KETONE,322.1,1.0,CC(C)CC(=O)CC(C)C,didier14
12787,METHYLCYCLOHEXANE,267.1,1.0,CC1CCCCC1,didier14
12788,TOLUENE,277.1,1.0,Cc1ccccc1,didier14
12789,4-METHYLPYRIDINE,329.1,1.0,Cc1ccncc1,didier14
12790,CYCLOHEXYLAMINE,304.1,1.0,NC1CCCCC1,didier14
12791,CYCLOHEXANOL,341.0,1.0,OC1CCCCC1,didier14
12792,PHENOL,353.0,1.0,Oc1ccccc1,didier14
12793,3-METHYLPYRIDINE,309.1,1.0,Cc1cccnc1,didier14
12794,2-METHYLPYRIDINE,299.1,1.0,Cc1ccccn1,didier14
12795,n-BUTYL n-BUTYRATE,326.5,1.0,CCCCOC(=O)CCC,didier14
12796,DIBUTYL SEBACATE,451.1,1.0,CCCCOC(=O)CCCCCCCCC(=O)OCCCC,didier14
12797,n-PENTANOIC ACID,358.1,1.0,CCCCC(=O)O,didier14
12798,n-PROPYL ACETATE,288.0,1.0,CCCOC(C)=O,didier14
12799,n-PENTANE,233.2,1.0,CCCCC,didier14
12800,1-PENTENE,219.0,1.0,C=CCCC,didier14
12801,n-BUTYL CHLORIDE,263.8,1.0,CCCCCl,didier14
12802,n-BUTYRONITRILE,289.1,1.0,CCCC#N,didier14
12803,"1,3-PROPANEDIAMINE",321.1,1.0,NCCCN,didier14
12804,MALONONITRILE,385.1,1.0,N#CCC#N,didier14
12805,HYDRACRYLONITRILE,383.1,1.0,N#CCCO,didier14
12806,n-BUTYL MERCAPTAN,274.8,1.0,CCCCS,didier14
12807,METHYLETHANOLAMINE,345.1,1.0,CC(O)CN,didier14
12808,2-METHOXYETHANOL,312.0,1.0,COCCO,didier14
12809,METHYLAL,255.0,1.0,COCOC,didier14
12810,DIETHYLAMINE,234.2,1.0,CCNCC,didier14
12811,DI-t-BUTYL PEROXIDE,291.0,1.0,CC(C)(C)OOC(C)(C)C,didier14
12812,5-METHYL-2-HEXANONE,309.1,1.0,CC(=O)CCC(C)C,didier14
12813,SUCCINIC ACID,489.0,1.0,O=C(O)CCC(=O)O,didier14
12814,FUMARIC ACID,471.0,1.0,O=C(O)/C=C/C(=O)O,didier14
12815,ISOBUTYL ACETATE,291.0,1.0,CC(=O)OCC(C)C,didier14
12816,DIHEXYL ADIPATE,464.0,1.0,CCCCCCOC(=O)CCCCC(=O)OCCCCCC,didier14
12817,METHYL DECANOATE,367.1,1.0,CCCCCCCCCC(=O)OC,didier14
12818,2-HEPTANONE,312.1,1.0,CCCCCC(C)=O,didier14
12819,n-HEXANE,251.5,1.0,CCCCCC,didier14
12820,"1,4-DICHLOROBUTANE",313.1,1.0,ClCCCCCl,didier14
12821,"1,4-DICHLORO-trans-2-BUTENE",326.1,1.0,ClC/C=C/CCl,didier14
12822,n-PENTYLAMINE,272.1,1.0,CCCCCN,didier14
12823,SUCCINONITRILE,405.0,1.0,N#CCCC#N,didier14
12824,PENTANAL,285.1,1.0,CCCCC=O,didier14
12825,"1,4-BUTANEDIOL",407.1,1.0,OCCCCO,didier14
12826,n-PENTYL MERCAPTAN,291.0,1.0,CCCCCS,didier14
12827,3-METHOXYPROPIONITRILE,338.1,1.0,COCCC#N,didier14
12828,"1,2-DIMETHOXYETHANE",271.5,1.0,COCCOC,didier14
12829,2-ETHOXYETHANOL,316.0,1.0,CCOCCO,didier14
12830,CYCLOHEXANE,253.2,1.0,C1CCCCC1,didier14
12831,PYRIDINE,293.1,1.0,c1ccncc1,didier14
12832,GLUTARIC ACID,482.0,1.0,O=C(O)CCCC(=O)O,didier14
12833,DIGLYCOLIC ACID,500.0,1.0,O=C(O)COCC(=O)O,didier14
12834,SQUALANE,490.0,1.0,CC(C)CCCC(C)CCCC(C)CCCCC(C)CCCC(C)CCCC(C)C,didier14
12835,2-OCTANONE,324.1,1.0,CCCCCCC(C)=O,didier14
12836,n-HEPTANOIC ACID,382.0,1.0,CCCCCCC(=O)O,didier14
12837,2-ETHOXYETHYL ACETATE,328.0,1.0,CCOCCOC(C)=O,didier14
12838,PIMELIC ACID,488.0,1.0,O=C(O)CCCCCC(=O)O,didier14
12839,SEBACIC ACID,496.0,1.0,O=C(O)CCCCCCCCC(=O)O,didier14
12840,n-HEXYLAMINE,281.1,1.0,CCCCCCN,didier14
12841,1-HEXANOL,333.0,1.0,CCCCCCO,didier14
12842,"1,5-PENTANEDIOL",402.1,1.0,OCCCCCO,didier14
12843,GLUTARALDEHYDE,355.0,1.0,O=CCCCC=O,didier14
12844,n-HEXYL MERCAPTAN,293.1,1.0,CCCCCCS,didier14
12845,BUTYL VINYL ETHER,272.0,1.0,C=COCCCC,didier14
12846,DIETHYLENETRIAMINE,372.0,1.0,NCCNCCN,didier14
12847,N-AMINOETHYL ETHANOLAMINE,375.0,1.0,NCCNCCO,didier14
12848,DIETHANOLAMINE,425.0,1.0,OCCNCCO,didier14
12849,DI(2-CHLOROETHYL)ETHER,328.1,1.0,ClCCOCCCl,didier14
12850,DIETHYLENE GLYCOL,397.0,1.0,OCCOCCO,didier14
12851,HYDROXYPIVALYL HYDROXYPIVALATE,426.0,1.0,CC(C)(CO)C(=O)OC(=O)C(C)(C)CO,didier14
12852,ETHYLENE GLYCOL DIACETATE,361.1,1.0,CC(=O)OCCOC(C)=O,didier14
12853,n-OCTANE,286.0,1.0,CCCCCCCC,didier14
12854,1-OCTENE,281.0,1.0,C=CCCCCCC,didier14
12855,HEPTANAL,308.1,1.0,CCCCCCC=O,didier14
12856,2-BUTOXYETHANOL,333.1,1.0,CCCCOCCO,didier14
12857,2-(2-METHOXYETHOXY)ETHANOL,357.0,1.0,COCCOCCO,didier14
12858,n-NONANE,304.0,1.0,CCCCCCCCC,didier14
12859,1-OCTANOL,357.0,1.0,CCCCCCCCO,didier14
12860,2-(2-ETHOXYETHOXY)ETHANOL,356.4,1.0,CCOCCOCCO,didier14
12861,DI-(2-CHLOROETHOXY)METHANE,383.1,1.0,ClCCOCOCCCl,didier14
12862,DI-n-BUTYLAMINE,312.1,1.0,CCCCNCCCC,didier14
12863,DIETHYLENE GLYCOL DIMETHYL ETHER,335.9,1.0,COCCOCCOC,didier14
12864,"1,4-DICYANO-2-BUTENE",418.0,1.0,N#CCC=CCC#N,didier14
12865,n-UNDECANE,338.1,1.0,CCCCCCCCCCC,didier14
12866,ETHYLENE GLYCOL MONOBUTYL ETHER ACETATE,344.1,1.0,CCCCOCCOC(C)=O,didier14
12867,n-OCTYL ACETATE,359.1,1.0,CCCCCCCCOC(C)=O,didier14
12868,DIETHYLENE GLYCOL ETHYL ETHER ACETATE,380.0,1.0,CCOCCOCCOC(C)=O,didier14
12869,n-DECYL ACETATE,377.0,1.0,CCCCCCCCCCOC(C)=O,didier14
12870,TRIETHYLENETETRAMINE,408.1,1.0,NCCNCCNCCN,didier14
12871,2-HEXOXYETHANOL,355.0,1.0,CCCCCCOCCO,didier14
12872,TRIETHYLENE GLYCOL,429.1,1.0,OCCOCCOCCO,didier14
12873,CYCLOPENTYLACETIC ACID,382.1,1.0,O=C(O)CC1CCCC1,didier14
12874,1-DECANOL,355.4,1.0,CCCCCCCCCCO,didier14
12875,DECANAL,358.1,1.0,CCCCCCCCCC=O,didier14
12876,n-OCTYL FORMATE,337.0,1.0,CCCCCCCCOC=O,didier14
12877,2-(2-BUTOXYETHOXY)ETHANOL,351.0,1.0,CCCCOCCOCCO,didier14
12878,TRIETHYLENE GLYCOL MONOMETHYL ETHER,387.6,1.0,COCCOCCOCCO,didier14
12879,DIETHYLENE GLYCOL DIETHYL ETHER,355.1,1.0,CCOCCOCCOCC,didier14
12880,1-DODECENE,340.0,1.0,C=CCCCCCCCCCC,didier14
12881,1-UNDECANOL,388.0,1.0,CCCCCCCCCCCO,didier14
12882,UNDECANAL,369.1,1.0,CCCCCCCCCCC=O,didier14
12883,"DECAN-1,10-DIOL",425.1,1.0,OCCCCCCCCCCO,didier14
12884,TRIETHYLENE GLYCOL DIMETHYL ETHER,383.1,1.0,COCCOCCOCCOC,didier14
12885,TRIETHYLENE GLYCOL MONOETHYL ETHER,408.1,1.0,CCOCCOCCOCCO,didier14
12886,1-DODECANOL,398.0,1.0,CCCCCCCCCCCCO,didier14
12887,DODECANAL,374.1,1.0,CCCCCCCCCCCC=O,didier14
12888,TETRAETHYLENEPENTAMINE,436.0,1.0,NCCNCCNCCNCCN,didier14
12889,2-(2-HEXOXYETHOXY)ETHANOL,408.1,1.0,CCCCCCOCCOCCO,didier14
12890,TETRAETHYLENE GLYCOL,469.0,1.0,OCCOCCOCCOCCO,didier14
12891,1-TETRADECANOL,416.0,1.0,CCCCCCCCCCCCCCO,didier14
12892,DIETHYLENE GLYCOL DI-n-BUTYL ETHER,391.1,1.0,CCCCOCCOCCOCCCC,didier14
12893,1-ETHYLNAPHTHALENE,384.1,1.0,CCc1cccc2ccccc12,didier14
12894,1-OCTADECENE,421.1,1.0,C=CCCCCCCCCCCCCCCCC,didier14
12895,"2,6-NAPHTHALENEDICARBOXYLIC ACID",544.0,1.0,O=C(O)c1ccc2cc(C(=O)O)ccc2c1,didier14
12896,PROPYLENE,165.0,1.0,C=CC,didier14
12897,PENTAERYTHRITOL,533.1,1.0,OCC(CO)(CO)CO,didier14
12898,DIOCTYL PHTHALATE,489.0,1.0,CCCCCCCCOC(=O)c1ccccc1C(=O)OCCCCCCCC,didier14
12899,"2,2,3,4-TETRAMETHYLPENTANE",284.0,1.0,CC(C)C(C)C(C)(C)C,didier14
12900,o-CHLOROBENZOIC ACID,435.0,1.0,O=C(O)c1ccccc1Cl,didier14
12901,2-HYDROXYACETOPHENONE,371.1,1.0,O=C(CO)c1ccccc1,didier14
12902,6-HYDROXYHEXANOIC ACID,444.0,1.0,O=C(O)CCCCCO,didier14
12903,PENTAETHYLENE GLYCOL DIMETHYL ETHER,468.0,1.0,COCCOCCOCCOCCOCCOC,didier14
12904,METHYL SALICYLATE,369.0,1.0,COC(=O)c1ccccc1O,didier14
12905,ISOQUINOLINE,380.1,1.0,c1ccc2cnccc2c1,didier14
12906,2-FORMYL BENZOIC ACID,436.0,1.0,O=Cc1ccccc1C(=O)O,didier14
12907,DIMETHYL TEREPHTHALATE,414.1,1.0,COC(=O)c1ccc(C(=O)OC)cc1,didier14
12908,"1,2-BENZENEDIOL",400.0,1.0,Oc1ccccc1O,didier14
12909,"1,2,4-TRICHLOROBENZENE",378.7,1.0,Clc1ccc(Cl)c(Cl)c1,didier14
12910,ETHYL VANILLIN,445.0,1.0,CCOc1cc(C=O)ccc1O,didier14
12911,VANILLIN,432.0,1.0,COc1cc(C=O)ccc1O,didier14
12912,TRIETHYLAMINE,258.1,1.0,CCN(CC)CC,didier14
12913,"N,N-DIMETHYLANILINE",335.1,1.0,CN(C)c1ccccc1,didier14
12914,m-CHLORONITROBENZENE,400.1,1.0,O=[N+]([O-])c1cccc(Cl)c1,didier14
12915,ISOPHTHALIC ACID,601.0,1.0,O=C(O)c1cccc(C(=O)O)c1,didier14
12916,HYDRAZOBENZENE,503.0,1.0,c1ccc(NNc2ccccc2)cc1,didier14
12917,p-ETHYLPHENOL,373.1,1.0,CCc1ccc(O)cc1,didier14
12918,p-HYDROXYBENZALDEHYDE,445.0,1.0,O=Cc1ccc(O)cc1,didier14
12919,4-HEPTANONE,321.1,1.0,CCCC(=O)CCC,didier14
12920,DIETHYL SUCCINATE,363.0,1.0,CCOC(=O)CCC(=O)OCC,didier14
12921,PROPANAL,243.2,1.0,CCC=O,didier14
12922,N-METHYLFORMAMIDE,376.0,1.0,CNC=O,didier14
12923,DIACETONE ALCOHOL,331.0,1.0,CC(=O)CC(C)(C)O,didier14
12924,3-METHYL-1-BUTANOL,316.0,1.0,CC(C)CCO,didier14
12925,ACETYLACETONE,307.1,1.0,CC(=O)CC(C)=O,didier14
12926,BUTANAL,262.1,1.0,CCCC=O,didier14
12927,LEVULINIC ACID,410.0,1.0,CC(=O)CCC(=O)O,didier14
12928,DIOCTYL ADIPATE,500.1,1.0,CCCCCCCCOC(=O)CCCCC(=O)OCCCCCCCC,didier14
12929,n-BUTYL ACETATE,295.0,1.0,CCCCOC(C)=O,didier14
12930,n-BUTYL STEARATE,433.1,1.0,CCCCCCCCCCCCCCCCCC(=O)OCCCC,didier14
12931,2-OCTANOL,344.3,1.0,CCCCCCC(C)O,didier14
12932,AZELAIC ACID,492.0,1.0,O=C(O)CCCCCCCC(=O)O,didier14
12933,n-OCTANOIC ACID,393.0,1.0,CCCCCCCC(=O)O,didier14
12934,HEXAMETHYLENEDIAMINE,366.0,1.0,NCCCCCCN,didier14
12935,1-NONENE,295.0,1.0,C=CCCCCCCC,didier14
12936,OCTANAL,324.1,1.0,CCCCCCCC=O,didier14
12937,DIETHYLENE GLYCOL MONOBUTYL ETHER ACETATE,375.1,1.0,CCCCOCCOCCOC(C)=O,didier14
12938,n-DECANE,319.0,1.0,CCCCCCCCCC,didier14
12939,NONANAL,336.1,1.0,CCCCCCCCC=O,didier14
12940,DIMETHYLAMINE,223.2,1.0,CNC,didier14
12941,NEOPENTYL GLYCOL,371.1,1.0,CC(C)(CO)CO,didier14
12942,PYRUVIC ACID,355.1,1.0,CC(=O)C(=O)O,didier14
12943,"N,N-DIMETHYLACETAMIDE",336.1,1.0,CC(=O)N(C)C,didier14
12944,PYRENE,472.0,1.0,c1cc2ccc3cccc4ccc(c1)c2c34,didier14
12945,DIMETHYL PHTHALATE,419.0,1.0,COC(=O)c1ccccc1C(=O)OC,didier14
12946,DI-n-PROPYL PHTHALATE,433.0,1.0,CCCOC(=O)c1ccccc1C(=O)OCCC,didier14
12947,trans-3-HEXENE,261.1,1.0,CC/C=C/CC,didier14
12948,DIPROPYLENE GLYCOL t-BUTYL ETHER,392.0,1.0,CC(CO)OCC(C)OC(C)(C)C,didier14
12949,1-PENTADECENE,385.0,1.0,C=CCCCCCCCCCCCCC,didier14
12950,trans-2-OCTENE,294.3,1.0,C/C=C/CCCCC,didier14
12951,o-DIETHYLBENZENE,330.4,1.0,CCc1ccccc1CC,didier14
12952,sec-BUTYLBENZENE,325.0,1.0,CCC(C)c1ccccc1,didier14
12953,2-METHYL-1-BUTANOL,316.1,1.0,CCC(C)CO,didier14
12954,ACETOXYACETIC ACID,440.0,1.0,CC(=O)OCC(=O)O,didier14
12955,sec-BUTYLAMINE,244.3,1.0,CCC(C)N,didier14
12956,"trans-1,4-DIETHYLCYCLOHEXANE",320.0,1.0,CC[C@H]1CC[C@H](CC)CC1,didier14
12957,DIETHYL MALEATE,366.1,1.0,CCOC(=O)/C=C\C(=O)OCC,didier14
12958,MONOETHANOLAMINE,358.1,1.0,NCCO,didier14
12959,GLYCOL ALDEHYDE,360.0,1.0,O=CCO,didier14
12960,ETHYL ACETATE,269.0,1.0,CCOC(C)=O,didier14
12961,MALONIC ACID,496.0,1.0,O=C(O)CC(=O)O,didier14
12962,m-DIETHYLBENZENE,329.0,1.0,CCc1cccc(CC)c1,didier14
12963,ETHYL ACETOACETATE,330.4,1.0,CCOC(=O)CC(C)=O,didier14
12964,"1,3-DICHLOROPROPANE",294.1,1.0,ClCCCCl,didier14
12965,n-HEXANOIC ACID,375.0,1.0,CCCCCC(=O)O,didier14
12966,n-HEPTANE,269.0,1.0,CCCCCCC,didier14
12967,DI-n-PROPYLAMINE,290.1,1.0,CCCNCCC,didier14
12968,n-DODECANOIC ACID,430.0,1.0,CCCCCCCCCCCC(=O)O,didier14
12969,1-NONANOL,368.0,1.0,CCCCCCCCCO,didier14
12970,n-NONYL ACETATE,372.1,1.0,CCCCCCCCCOC(C)=O,didier14
12971,TRIETHYLENE GLYCOL n-BUTYL ETHER,416.0,1.0,CCCCOCCOCCOCCO,didier14
12972,TETRAETHYLENE GLYCOL DIMETHYL ETHER,414.1,1.0,COCCOCCOCCOCCOC,didier14
12973,"2,2,4-TRIMETHYL-1,3-PENTANEDIOL",383.1,1.0,CC(C)C(O)C(C)(C)CO,didier14
12974,DIMETHYL ISOPHTHALATE,411.1,1.0,COC(=O)c1cccc(C(=O)OC)c1,didier14
12975,trans-2-HEPTENE,272.0,1.0,C/C=C/CCCC,didier14
12976,trans-3-HEPTENE,267.1,1.0,CC/C=C/CCC,didier14
12977,"1,4-DICHLORO-cis-2-BUTENE",323.0,1.0,ClC/C=C\CCl,didier14
12978,8-HYDROXYQUINOLINE,404.0,1.0,Oc1cccc2cccnc12,didier14
12979,cis-3-OCTENE,290.0,1.0,CC/C=C\CCCC,didier14
12980,trans-4-OCTENE,281.0,1.0,CCC/C=C/CCC,didier14
12981,trans-3-OCTENE,282.0,1.0,CC/C=C/CCCC,didier14
12982,"2-METHYL-1,3-PENTANEDIOL",394.0,1.0,CCC(O)C(C)CO,didier14
12983,2-ETHYL HEXANOIC ACID,387.1,1.0,CCCCC(CC)C(=O)O,didier14
12984,p-METHOXYPHENOL,398.0,1.0,COc1ccc(O)cc1,didier14
12985,TRI-n-HEPTYL TRIMELLITATE,546.0,1.0,CCCCCCCOC(=O)c1ccc(C(=O)OCCCCCCC)c(C(=O)OCCCCCCC)c1,didier14
12986,TETRAETHYLENE GLYCOL MONOBUTYL ETHER,436.0,1.0,CCCCOCCOCCOCCOCCO,didier14
12987,ETHYLENE GLYCOL 2-ETHYLHEXYL ETHER,383.1,1.0,CCCCC(CC)COCCO,didier14
12988,"cis-1,2-DICHLOROETHYLENE",277.0,1.0,Cl/C=C\Cl,didier14
12989,"trans-1,2-DICHLOROETHYLENE",275.0,1.0,Cl/C=C/Cl,didier14
12990,3-AMINO-1-PROPANOL,352.6,1.0,NCCCO,didier14
12991,PROPYLENE GLYCOL n-PROPYL ETHER,321.1,1.0,CCCOCC(C)O,didier14
12992,1-ETHOXY-2-PROPANOL,315.1,1.0,CCOCC(C)O,didier14
12993,CYCLOHEXYL MERCAPTAN,316.1,1.0,SC1CCCCC1,didier14
12994,METHYL-4-FORMYLBENZOATE,403.0,1.0,COC(=O)c1ccc(C=O)cc1,didier14
12995,3-ETHYLHEPTANE,295.0,1.0,CCCCC(CC)CC,didier14
12996,5-METHYLNONANE,311.0,1.0,CCCCC(C)CCCC,didier14
12997,METHYL tert-BUTYL ETHER,240.2,1.0,COC(C)(C)C,didier14
12998,1-n-BUTYLNAPHTHALENE,401.0,1.0,CCCCc1cccc2ccccc12,didier14
12999,"1,1-DIMETHYLCYCLOPENTANE",257.0,1.0,CC1(C)CCCC1,didier14
13000,n-HEPTYL MERCAPTAN,319.1,1.0,CCCCCCCS,didier14
13001,ETHYLCYCLOPENTANE,269.0,1.0,CCC1CCCC1,didier14
13002,BIS(CYANOETHYL)ETHER,445.0,1.0,N#CCCOCCC#N,didier14
13003,"2,4,4-TRIMETHYLHEXANE",283.0,1.0,CCC(C)(C)CC(C)C,didier14
13004,"2,3,3,4-TETRAMETHYLPENTANE",304.0,1.0,CC(C)C(C)(C)C(C)C,didier14
13005,1-METHYL-1-ETHYLCYCLOPENTANE,279.0,1.0,CCC1(C)CCCC1,didier14
13006,ETHYLCYCLOHEXANE,295.1,1.0,CCC1CCCCC1,didier14
13007,n-PROPYLCYCLOHEXANE,304.0,1.0,CCCC1CCCCC1,didier14
13008,n-BUTYLCYCLOHEXANE,321.0,1.0,CCCCC1CCCCC1,didier14
13009,4-METHYLNONANE,311.0,1.0,CCCCCC(C)CCC,didier14
13010,n-DECYLCYCLOHEXANE,404.0,1.0,CCCCCCCCCCC1CCCCC1,didier14
13011,1-TRIACONTENE,517.0,1.0,C=CCCCCCCCCCCCCCCCCCCCCCCCCCCCC,didier14
13012,2-(2-PENTOXYETHOXY)ETHANOL,383.0,1.0,CCCCCOCCOCCO,didier14
13013,"1,2-BENZENEDICARBOXYLIC ACID, HEPTYL, NONYL ESTER",500.0,1.0,CCCCCCCCCOC(=O)c1ccccc1C(=O)OCCCCCCC,didier14
13014,n-BUTYLCYCLOPENTANE,305.0,1.0,CCCCC1CCCC1,didier14
13015,n-PROPYLCYCLOPENTANE,288.0,1.0,CCCC1CCCC1,didier14
13016,DIMERCAPTOETHYL ETHER,371.1,1.0,SC(S)COCC(S)S,didier14
13017,"2-METHYL-1,3-PROPANEDIOL",386.0,1.0,CC(CO)CO,didier14
13018,CHRYSENE,510.0,1.0,c1ccc2c(c1)ccc1c3ccccc3ccc21,didier14
13019,"trans-3,5-DIMETHOXYSTILBENE",489.0,1.0,COc1cc(/C=C/c2ccccc2)cc(OC)c1,didier14
13020,3-METHYLOCTANE,297.0,1.0,CCCCCC(C)CC,didier14
13021,4-METHYLOCTANE,295.0,1.0,CCCCC(C)CCC,didier14
13022,ETHYLENE GLYCOL DIACRYLATE,373.1,1.0,C=CC(=O)OCCOC(=O)C=C,didier14
13023,tert-BUTYLFORMAMIDE,368.1,1.0,CC(C)(C)NC=O,didier14
13024,DIPROPYL MALEATE,391.0,1.0,CCCOC(=O)/C=C\C(=O)OCCC,didier14
13025,AMINOCAPRONITRILE,378.0,1.0,CCCCC(N)C#N,didier14
13026,"BENZENE-1,2,4-TRICARBOXYLIC ACID TRIMETHYL ESTER",468.0,1.0,COC(=O)c1ccc(C(=O)OC)c(C(=O)OC)c1,didier14
13027,ACRYLOXY PROPIONIC ACID,419.0,1.0,C=CC(=O)OC(C)C(=O)O,didier14
13028,TRIPROPYLENE GLYCOL,413.1,1.0,CC(O)COC(C)COC(C)CO,didier14
13029,DIPROPYLENE GLYCOL,391.0,1.0,CC(O)COC(C)CO,didier14
13030,TRIPROPYLENE GLYCOL MONOMETHYL ETHER,384.0,1.0,COC(C)COC(C)COC(C)CO,didier14
13031,4-HYDROXYBUTYRALDEHYDE,346.0,1.0,O=CCCCO,didier14
13032,ACRIDINE,445.0,1.0,c1ccc2nc3ccccc3cc2c1,didier14
13033,1-n-NONYLNAPHTHALENE,449.0,1.0,CCCCCCCCCc1cccc2ccccc12,didier14
13034,1-n-DECYLNAPHTHALENE,458.0,1.0,CCCCCCCCCCc1cccc2ccccc12,didier14
13035,DIISODECYL PHTHALATE,505.4,1.0,CC(C)CCCCCCCOC(=O)c1ccccc1C(=O)OCCCCCCCC(C)C,didier14
13036,DIISOOCTYL PHTHALATE,504.0,1.0,CC(C)CCCCCOC(=O)c1ccccc1C(=O)OCCCCCC(C)C,didier14
13037,1-n-PROPYLNAPHTHALENE,387.0,1.0,CCCc1cccc2ccccc12,didier14
13038,ETHYLENE GLYCOL MONOPROPYL ETHER,322.1,1.0,CCCOCCO,didier14
13039,ADAMANTANE,316.0,1.0,C1C2CC3CC1CC(C2)C3,didier14
13040,DIISONONYL PHTHALATE,489.0,1.0,CC(C)CCCCCCOC(=O)c1ccccc1C(=O)OCCCCCCC(C)C,didier14
13041,1-n-HEXYLNAPHTHALENE,425.0,1.0,CCCCCCc1cccc2ccccc12,didier14
13042,CYCLOPENTANE,233.0,1.0,C1CCCC1,didier14
13043,PYRIDAZINE,358.1,1.0,c1ccnnc1,didier14
13044,DIPROPYLENE GLYCOL n-PROPYL ETHER,370.9,1.0,CCCOC(C)COC(C)CO,didier14
13045,DIPROPYLENE GLYCOL MONOETHYL ETHER,364.0,1.0,CCOC(C)COC(C)CO,didier14
13046,4-HYDROXYMETHYL BENZOIC ACID,495.0,1.0,O=C(O)c1ccc(CO)cc1,didier14
13047,HYDRAZINE,311.0,1.0,NN,didier14
13048,"1,2,4-BUTANETRIOL",440.0,1.0,OCCC(O)CO,didier14
13049,ETHYLBENZENE HYDROPEROXIDE,414.0,1.0,CCc1ccccc1.[O-]O,didier14
13050,2-METHYLOCTANE,296.0,1.0,CCCCCCC(C)C,didier14
13051,n-DECANOIC ACID,412.0,1.0,CCCCCCCCCC(=O)O,didier14
13052,3-METHYL-1-HEXENE,267.1,1.0,C=CC(C)CCC,didier14
13053,DIPROPYLENE GLYCOL MONOMETHYL ETHER,347.1,1.0,COC(C)COC(C)CO,didier14
13054,"2,2,5-TRIMETHYLHEXANE",286.0,1.0,CC(C)CCC(C)(C)C,didier14
13055,DI-n-UNDECYL PHTHALATE,535.0,1.0,CCCCCCCCCCCOC(=O)c1ccccc1C(=O)OCCCCCCCCCCC,didier14
13056,DI-n-HEPTYL PHTHALATE,485.0,1.0,CCCCCCCOC(=O)c1ccccc1C(=O)OCCCCCCC,didier14
13057,"1,2,3,4-TETRAMETHYLCYCLOHEXANE",319.0,1.0,CC1CCC(C)C(C)C1C,didier14
13058,6-AMINOHEXANAMIDE,444.0,1.0,NCCCCCC(N)=O,didier14
13059,3-HYDROXY-2-METHYL PROPIONALDEHYDE,352.0,1.0,CC(C=O)CO,didier14
13060,ISOPROPYLCYCLOPENTANE,283.0,1.0,CC(C)C1CCCC1,didier14
13061,1-ISOPROPOXY-2-PROPANOL,309.0,1.0,CC(O)COC(C)C,didier14
13062,ALLYL-TERT-BUTYLPEROXIDE,286.0,1.0,C=CCOOC(C)(C)C,didier14
13063,6-AMINOHEXANOL,390.0,1.0,NCCCCCCO,didier14
13064,"N,N'-DI-tert-BUTYLETHYLENEDIAMINE",334.0,1.0,CC(C)(C)NCCNC(C)(C)C,didier14
13065,CYCLOHEXYL FORMATE,324.1,1.0,O=COC1CCCCC1,didier14
13066,"1,2,3-BUTANETRIOL",474.0,1.0,CC(O)C(O)CO,didier14
13067,CYANOGEN,204.0,1.0,N#CC#N,didier14
13068,"1,5-PENTANEDIAMINE",335.1,1.0,NCCCCCN,didier14