,compound,flashpoint,pure substance,smiles,source
757,PROPYLENE GLYCOL MONOMETHYL ETHER ACETATE,316.0,1,COCC(C)OC(C)=O,didier14
758,MESITYLENE,317.6,1,Cc1cc(C)cc(C)c1,didier14
759,DIISOBUTYL KETONE,322.1,1,CC(C)CC(=O)CC(C)C,didier14
760,METHYLCYCLOHEXANE,267.1,1,CC1CCCCC1,didier14
761,TOLUENE,277.1,1,Cc1ccccc1,didier14
762,4-METHYLPYRIDINE,329.1,1,Cc1ccncc1,didier14
763,CYCLOHEXYLAMINE,304.1,1,NC1CCCCC1,didier14
764,CYCLOHEXANOL,341.0,1,OC1CCCCC1,didier14
765,PHENOL,353.0,1,Oc1ccccc1,didier14
766,3-METHYLPYRIDINE,309.1,1,Cc1cccnc1,didier14
767,2-METHYLPYRIDINE,299.1,1,Cc1ccccn1,didier14
768,n-BUTYL n-BUTYRATE,326.5,1,CCCCOC(=O)CCC,didier14
769,DIBUTYL SEBACATE,451.1,1,CCCCOC(=O)CCCCCCCCC(=O)OCCCC,didier14
770,n-PENTANOIC ACID,358.1,1,CCCCC(=O)O,didier14
771,n-PROPYL ACETATE,288.0,1,CCCOC(C)=O,didier14
772,n-PENTANE,233.2,1,CCCCC,didier14
773,1-PENTENE,219.0,1,C=CCCC,didier14
774,n-BUTYL CHLORIDE,263.8,1,CCCCCl,didier14
775,n-BUTYRONITRILE,289.1,1,CCCC#N,didier14
776,"1,3-PROPANEDIAMINE",321.1,1,NCCCN,didier14
777,MALONONITRILE,385.1,1,N#CCC#N,didier14
778,HYDRACRYLONITRILE,383.1,1,N#CCCO,didier14
779,n-BUTYL MERCAPTAN,274.8,1,CCCCS,didier14
780,METHYLETHANOLAMINE,345.1,1,CC(O)CN,didier14
781,2-METHOXYETHANOL,312.0,1,COCCO,didier14
782,METHYLAL,255.0,1,COCOC,didier14
783,DIETHYLAMINE,234.2,1,CCNCC,didier14
784,DI-t-BUTYL PEROXIDE,291.0,1,CC(C)(C)OOC(C)(C)C,didier14
785,5-METHYL-2-HEXANONE,309.1,1,CC(=O)CCC(C)C,didier14
786,SUCCINIC ACID,489.0,1,O=C(O)CCC(=O)O,didier14
787,FUMARIC ACID,471.0,1,O=C(O)/C=C/C(=O)O,didier14
788,ISOBUTYL ACETATE,291.0,1,CC(=O)OCC(C)C,didier14
789,DIHEXYL ADIPATE,464.0,1,CCCCCCOC(=O)CCCCC(=O)OCCCCCC,didier14
790,METHYL DECANOATE,367.1,1,CCCCCCCCCC(=O)OC,didier14
791,2-HEPTANONE,312.1,1,CCCCCC(C)=O,didier14
792,n-HEXANE,251.5,1,CCCCCC,didier14
793,"1,4-DICHLOROBUTANE",313.1,1,ClCCCCCl,didier14
794,"1,4-DICHLORO-trans-2-BUTENE",326.1,1,ClC/C=C/CCl,didier14
795,n-PENTYLAMINE,272.1,1,CCCCCN,didier14
796,SUCCINONITRILE,405.0,1,N#CCCC#N,didier14
797,PENTANAL,285.1,1,CCCCC=O,didier14
798,"1,4-BUTANEDIOL",407.1,1,OCCCCO,didier14
799,n-PENTYL MERCAPTAN,291.0,1,CCCCCS,didier14
800,3-METHOXYPROPIONITRILE,338.1,1,COCCC#N,didier14
801,"1,2-DIMETHOXYETHANE",271.5,1,COCCOC,didier14
802,2-ETHOXYETHANOL,316.0,1,CCOCCO,didier14
803,CYCLOHEXANE,253.2,1,C1CCCCC1,didier14
804,PYRIDINE,293.1,1,c1ccncc1,didier14
805,GLUTARIC ACID,482.0,1,O=C(O)CCCC(=O)O,didier14
806,DIGLYCOLIC ACID,500.0,1,O=C(O)COCC(=O)O,didier14
807,SQUALANE,490.0,1,CC(C)CCCC(C)CCCC(C)CCCCC(C)CCCC(C)CCCC(C)C,didier14
808,2-OCTANONE,324.1,1,CCCCCCC(C)=O,didier14
809,n-HEPTANOIC ACID,382.0,1,CCCCCCC(=O)O,didier14
810,2-ETHOXYETHYL ACETATE,328.0,1,CCOCCOC(C)=O,didier14
811,PIMELIC ACID,488.0,1,O=C(O)CCCCCC(=O)O,didier14
812,SEBACIC ACID,496.0,1,O=C(O)CCCCCCCCC(=O)O,didier14
813,n-HEXYLAMINE,281.1,1,CCCCCCN,didier14
814,1-HEXANOL,333.0,1,CCCCCCO,didier14
815,"1,5-PENTANEDIOL",402.1,1,OCCCCCO,didier14
816,GLUTARALDEHYDE,355.0,1,O=CCCCC=O,didier14
817,n-HEXYL MERCAPTAN,293.1,1,CCCCCCS,didier14
818,BUTYL VINYL ETHER,272.0,1,C=COCCCC,didier14
819,DIETHYLENETRIAMINE,372.0,1,NCCNCCN,didier14
820,N-AMINOETHYL ETHANOLAMINE,375.0,1,NCCNCCO,didier14
821,DIETHANOLAMINE,425.0,1,OCCNCCO,didier14
822,DI(2-CHLOROETHYL)ETHER,328.1,1,ClCCOCCCl,didier14
823,DIETHYLENE GLYCOL,397.0,1,OCCOCCO,didier14
824,HYDROXYPIVALYL HYDROXYPIVALATE,426.0,1,CC(C)(CO)C(=O)OC(=O)C(C)(C)CO,didier14
825,ETHYLENE GLYCOL DIACETATE,361.1,1,CC(=O)OCCOC(C)=O,didier14
826,n-OCTANE,286.0,1,CCCCCCCC,didier14
827,1-OCTENE,281.0,1,C=CCCCCCC,didier14
828,HEPTANAL,308.1,1,CCCCCCC=O,didier14
829,2-BUTOXYETHANOL,333.1,1,CCCCOCCO,didier14
830,2-(2-METHOXYETHOXY)ETHANOL,357.0,1,COCCOCCO,didier14
831,n-NONANE,304.0,1,CCCCCCCCC,didier14
832,1-OCTANOL,357.0,1,CCCCCCCCO,didier14
833,2-(2-ETHOXYETHOXY)ETHANOL,356.4,1,CCOCCOCCO,didier14
834,DI-(2-CHLOROETHOXY)METHANE,383.1,1,ClCCOCOCCCl,didier14
835,DI-n-BUTYLAMINE,312.1,1,CCCCNCCCC,didier14
836,DIETHYLENE GLYCOL DIMETHYL ETHER,335.9,1,COCCOCCOC,didier14
837,"1,4-DICYANO-2-BUTENE",418.0,1,N#CCC=CCC#N,didier14
838,n-UNDECANE,338.1,1,CCCCCCCCCCC,didier14
839,ETHYLENE GLYCOL MONOBUTYL ETHER ACETATE,344.1,1,CCCCOCCOC(C)=O,didier14
840,n-OCTYL ACETATE,359.1,1,CCCCCCCCOC(C)=O,didier14
841,DIETHYLENE GLYCOL ETHYL ETHER ACETATE,380.0,1,CCOCCOCCOC(C)=O,didier14
842,n-DECYL ACETATE,377.0,1,CCCCCCCCCCOC(C)=O,didier14
843,TRIETHYLENETETRAMINE,408.1,1,NCCNCCNCCN,didier14
844,2-HEXOXYETHANOL,355.0,1,CCCCCCOCCO,didier14
845,TRIETHYLENE GLYCOL,429.1,1,OCCOCCOCCO,didier14
846,CYCLOPENTYLACETIC ACID,382.1,1,O=C(O)CC1CCCC1,didier14
847,1-DECANOL,355.4,1,CCCCCCCCCCO,didier14
848,DECANAL,358.1,1,CCCCCCCCCC=O,didier14
849,n-OCTYL FORMATE,337.0,1,CCCCCCCCOC=O,didier14
850,2-(2-BUTOXYETHOXY)ETHANOL,351.0,1,CCCCOCCOCCO,didier14
851,TRIETHYLENE GLYCOL MONOMETHYL ETHER,387.6,1,COCCOCCOCCO,didier14
852,DIETHYLENE GLYCOL DIETHYL ETHER,355.1,1,CCOCCOCCOCC,didier14
853,1-DODECENE,340.0,1,C=CCCCCCCCCCC,didier14
854,1-UNDECANOL,388.0,1,CCCCCCCCCCCO,didier14
855,UNDECANAL,369.1,1,CCCCCCCCCCC=O,didier14
856,"DECAN-1,10-DIOL",425.1,1,OCCCCCCCCCCO,didier14
857,TRIETHYLENE GLYCOL DIMETHYL ETHER,383.1,1,COCCOCCOCCOC,didier14
858,TRIETHYLENE GLYCOL MONOETHYL ETHER,408.1,1,CCOCCOCCOCCO,didier14
859,1-DODECANOL,398.0,1,CCCCCCCCCCCCO,didier14
860,DODECANAL,374.1,1,CCCCCCCCCCCC=O,didier14
861,TETRAETHYLENEPENTAMINE,436.0,1,NCCNCCNCCNCCN,didier14
862,2-(2-HEXOXYETHOXY)ETHANOL,408.1,1,CCCCCCOCCOCCO,didier14
863,TETRAETHYLENE GLYCOL,469.0,1,OCCOCCOCCOCCO,didier14
864,1-TETRADECANOL,416.0,1,CCCCCCCCCCCCCCO,didier14
865,DIETHYLENE GLYCOL DI-n-BUTYL ETHER,391.1,1,CCCCOCCOCCOCCCC,didier14
866,1-ETHYLNAPHTHALENE,384.1,1,CCc1cccc2ccccc12,didier14
867,1-OCTADECENE,421.1,1,C=CCCCCCCCCCCCCCCCC,didier14
868,"2,6-NAPHTHALENEDICARBOXYLIC ACID",544.0,1,O=C(O)c1ccc2cc(C(=O)O)ccc2c1,didier14
869,PROPYLENE,165.0,1,C=CC,didier14
870,PENTAERYTHRITOL,533.1,1,OCC(CO)(CO)CO,didier14
871,DIOCTYL PHTHALATE,489.0,1,CCCCCCCCOC(=O)c1ccccc1C(=O)OCCCCCCCC,didier14
872,"2,2,3,4-TETRAMETHYLPENTANE",284.0,1,CC(C)C(C)C(C)(C)C,didier14
873,o-CHLOROBENZOIC ACID,435.0,1,O=C(O)c1ccccc1Cl,didier14
874,2-HYDROXYACETOPHENONE,371.1,1,O=C(CO)c1ccccc1,didier14
875,6-HYDROXYHEXANOIC ACID,444.0,1,O=C(O)CCCCCO,didier14
876,PENTAETHYLENE GLYCOL DIMETHYL ETHER,468.0,1,COCCOCCOCCOCCOCCOC,didier14
877,METHYL SALICYLATE,369.0,1,COC(=O)c1ccccc1O,didier14
878,ISOQUINOLINE,380.1,1,c1ccc2cnccc2c1,didier14
879,2-FORMYL BENZOIC ACID,436.0,1,O=Cc1ccccc1C(=O)O,didier14
880,DIMETHYL TEREPHTHALATE,414.1,1,COC(=O)c1ccc(C(=O)OC)cc1,didier14
881,"1,2-BENZENEDIOL",400.0,1,Oc1ccccc1O,didier14
882,"1,2,4-TRICHLOROBENZENE",378.7,1,Clc1ccc(Cl)c(Cl)c1,didier14
883,ETHYL VANILLIN,445.0,1,CCOc1cc(C=O)ccc1O,didier14
884,VANILLIN,432.0,1,COc1cc(C=O)ccc1O,didier14
885,TRIETHYLAMINE,258.1,1,CCN(CC)CC,didier14
886,"N,N-DIMETHYLANILINE",335.1,1,CN(C)c1ccccc1,didier14
887,m-CHLORONITROBENZENE,400.1,1,O=[N+]([O-])c1cccc(Cl)c1,didier14
888,ISOPHTHALIC ACID,601.0,1,O=C(O)c1cccc(C(=O)O)c1,didier14
889,HYDRAZOBENZENE,503.0,1,c1ccc(NNc2ccccc2)cc1,didier14
890,p-ETHYLPHENOL,373.1,1,CCc1ccc(O)cc1,didier14
891,p-HYDROXYBENZALDEHYDE,445.0,1,O=Cc1ccc(O)cc1,didier14
892,4-HEPTANONE,321.1,1,CCCC(=O)CCC,didier14
893,DIETHYL SUCCINATE,363.0,1,CCOC(=O)CCC(=O)OCC,didier14
894,PROPANAL,243.2,1,CCC=O,didier14
895,N-METHYLFORMAMIDE,376.0,1,CNC=O,didier14
896,DIACETONE ALCOHOL,331.0,1,CC(=O)CC(C)(C)O,didier14
897,3-METHYL-1-BUTANOL,316.0,1,CC(C)CCO,didier14
898,ACETYLACETONE,307.1,1,CC(=O)CC(C)=O,didier14
899,BUTANAL,262.1,1,CCCC=O,didier14
900,LEVULINIC ACID,410.0,1,CC(=O)CCC(=O)O,didier14
901,DIOCTYL ADIPATE,500.1,1,CCCCCCCCOC(=O)CCCCC(=O)OCCCCCCCC,didier14
902,n-BUTYL ACETATE,295.0,1,CCCCOC(C)=O,didier14
903,n-BUTYL STEARATE,433.1,1,CCCCCCCCCCCCCCCCCC(=O)OCCCC,didier14
904,2-OCTANOL,344.3,1,CCCCCCC(C)O,didier14
905,AZELAIC ACID,492.0,1,O=C(O)CCCCCCCC(=O)O,didier14
906,n-OCTANOIC ACID,393.0,1,CCCCCCCC(=O)O,didier14
907,HEXAMETHYLENEDIAMINE,366.0,1,NCCCCCCN,didier14
908,1-NONENE,295.0,1,C=CCCCCCCC,didier14
909,OCTANAL,324.1,1,CCCCCCCC=O,didier14
910,DIETHYLENE GLYCOL MONOBUTYL ETHER ACETATE,375.1,1,CCCCOCCOCCOC(C)=O,didier14
911,n-DECANE,319.0,1,CCCCCCCCCC,didier14
912,NONANAL,336.1,1,CCCCCCCCC=O,didier14
913,DIMETHYLAMINE,223.2,1,CNC,didier14
914,NEOPENTYL GLYCOL,371.1,1,CC(C)(CO)CO,didier14
915,PYRUVIC ACID,355.1,1,CC(=O)C(=O)O,didier14
916,"N,N-DIMETHYLACETAMIDE",336.1,1,CC(=O)N(C)C,didier14
917,PYRENE,472.0,1,c1cc2ccc3cccc4ccc(c1)c2c34,didier14
918,DIMETHYL PHTHALATE,419.0,1,COC(=O)c1ccccc1C(=O)OC,didier14
919,DI-n-PROPYL PHTHALATE,433.0,1,CCCOC(=O)c1ccccc1C(=O)OCCC,didier14
920,trans-3-HEXENE,261.1,1,CC/C=C/CC,didier14
921,DIPROPYLENE GLYCOL t-BUTYL ETHER,392.0,1,CC(CO)OCC(C)OC(C)(C)C,didier14
922,1-PENTADECENE,385.0,1,C=CCCCCCCCCCCCCC,didier14
923,trans-2-OCTENE,294.3,1,C/C=C/CCCCC,didier14
924,o-DIETHYLBENZENE,330.4,1,CCc1ccccc1CC,didier14
925,sec-BUTYLBENZENE,325.0,1,CCC(C)c1ccccc1,didier14
926,2-METHYL-1-BUTANOL,316.1,1,CCC(C)CO,didier14
927,ACETOXYACETIC ACID,440.0,1,CC(=O)OCC(=O)O,didier14
928,sec-BUTYLAMINE,244.3,1,CCC(C)N,didier14
929,"trans-1,4-DIETHYLCYCLOHEXANE",320.0,1,CC[C@H]1CC[C@H](CC)CC1,didier14
930,DIETHYL MALEATE,366.1,1,CCOC(=O)/C=C\C(=O)OCC,didier14
931,MONOETHANOLAMINE,358.1,1,NCCO,didier14
932,GLYCOL ALDEHYDE,360.0,1,O=CCO,didier14
933,ETHYL ACETATE,269.0,1,CCOC(C)=O,didier14
934,MALONIC ACID,496.0,1,O=C(O)CC(=O)O,didier14
935,m-DIETHYLBENZENE,329.0,1,CCc1cccc(CC)c1,didier14
936,ETHYL ACETOACETATE,330.4,1,CCOC(=O)CC(C)=O,didier14
937,"1,3-DICHLOROPROPANE",294.1,1,ClCCCCl,didier14
938,n-HEXANOIC ACID,375.0,1,CCCCCC(=O)O,didier14
939,n-HEPTANE,269.0,1,CCCCCCC,didier14
940,DI-n-PROPYLAMINE,290.1,1,CCCNCCC,didier14
941,n-DODECANOIC ACID,430.0,1,CCCCCCCCCCCC(=O)O,didier14
942,1-NONANOL,368.0,1,CCCCCCCCCO,didier14
943,n-NONYL ACETATE,372.1,1,CCCCCCCCCOC(C)=O,didier14
944,TRIETHYLENE GLYCOL n-BUTYL ETHER,416.0,1,CCCCOCCOCCOCCO,didier14
945,TETRAETHYLENE GLYCOL DIMETHYL ETHER,414.1,1,COCCOCCOCCOCCOC,didier14
946,"2,2,4-TRIMETHYL-1,3-PENTANEDIOL",383.1,1,CC(C)C(O)C(C)(C)CO,didier14
947,DIMETHYL ISOPHTHALATE,411.1,1,COC(=O)c1cccc(C(=O)OC)c1,didier14
948,trans-2-HEPTENE,272.0,1,C/C=C/CCCC,didier14
949,trans-3-HEPTENE,267.1,1,CC/C=C/CCC,didier14
950,"1,4-DICHLORO-cis-2-BUTENE",323.0,1,ClC/C=C\CCl,didier14
951,8-HYDROXYQUINOLINE,404.0,1,Oc1cccc2cccnc12,didier14
952,cis-3-OCTENE,290.0,1,CC/C=C\CCCC,didier14
953,trans-4-OCTENE,281.0,1,CCC/C=C/CCC,didier14
954,trans-3-OCTENE,282.0,1,CC/C=C/CCCC,didier14
955,"2-METHYL-1,3-PENTANEDIOL",394.0,1,CCC(O)C(C)CO,didier14
956,2-ETHYL HEXANOIC ACID,387.1,1,CCCCC(CC)C(=O)O,didier14
957,p-METHOXYPHENOL,398.0,1,COc1ccc(O)cc1,didier14
958,TRI-n-HEPTYL TRIMELLITATE,546.0,1,CCCCCCCOC(=O)c1ccc(C(=O)OCCCCCCC)c(C(=O)OCCCCCCC)c1,didier14
959,TETRAETHYLENE GLYCOL MONOBUTYL ETHER,436.0,1,CCCCOCCOCCOCCOCCO,didier14
960,ETHYLENE GLYCOL 2-ETHYLHEXYL ETHER,383.1,1,CCCCC(CC)COCCO,didier14
961,"cis-1,2-DICHLOROETHYLENE",277.0,1,Cl/C=C\Cl,didier14
962,"trans-1,2-DICHLOROETHYLENE",275.0,1,Cl/C=C/Cl,didier14
963,3-AMINO-1-PROPANOL,352.6,1,NCCCO,didier14
964,PROPYLENE GLYCOL n-PROPYL ETHER,321.1,1,CCCOCC(C)O,didier14
965,1-ETHOXY-2-PROPANOL,315.1,1,CCOCC(C)O,didier14
966,CYCLOHEXYL MERCAPTAN,316.1,1,SC1CCCCC1,didier14
967,METHYL-4-FORMYLBENZOATE,403.0,1,COC(=O)c1ccc(C=O)cc1,didier14
968,3-ETHYLHEPTANE,295.0,1,CCCCC(CC)CC,didier14
969,5-METHYLNONANE,311.0,1,CCCCC(C)CCCC,didier14
970,METHYL tert-BUTYL ETHER,240.2,1,COC(C)(C)C,didier14
971,1-n-BUTYLNAPHTHALENE,401.0,1,CCCCc1cccc2ccccc12,didier14
972,"1,1-DIMETHYLCYCLOPENTANE",257.0,1,CC1(C)CCCC1,didier14
973,n-HEPTYL MERCAPTAN,319.1,1,CCCCCCCS,didier14
974,ETHYLCYCLOPENTANE,269.0,1,CCC1CCCC1,didier14
975,BIS(CYANOETHYL)ETHER,445.0,1,N#CCCOCCC#N,didier14
976,"2,4,4-TRIMETHYLHEXANE",283.0,1,CCC(C)(C)CC(C)C,didier14
977,"2,3,3,4-TETRAMETHYLPENTANE",304.0,1,CC(C)C(C)(C)C(C)C,didier14
978,1-METHYL-1-ETHYLCYCLOPENTANE,279.0,1,CCC1(C)CCCC1,didier14
979,ETHYLCYCLOHEXANE,295.1,1,CCC1CCCCC1,didier14
980,n-PROPYLCYCLOHEXANE,304.0,1,CCCC1CCCCC1,didier14
981,n-BUTYLCYCLOHEXANE,321.0,1,CCCCC1CCCCC1,didier14
982,4-METHYLNONANE,311.0,1,CCCCCC(C)CCC,didier14
983,n-DECYLCYCLOHEXANE,404.0,1,CCCCCCCCCCC1CCCCC1,didier14
984,1-TRIACONTENE,517.0,1,C=CCCCCCCCCCCCCCCCCCCCCCCCCCCCC,didier14
985,2-(2-PENTOXYETHOXY)ETHANOL,383.0,1,CCCCCOCCOCCO,didier14
986,"1,2-BENZENEDICARBOXYLIC ACID, HEPTYL, NONYL ESTER",500.0,1,CCCCCCCCCOC(=O)c1ccccc1C(=O)OCCCCCCC,didier14
987,n-BUTYLCYCLOPENTANE,305.0,1,CCCCC1CCCC1,didier14
988,n-PROPYLCYCLOPENTANE,288.0,1,CCCC1CCCC1,didier14
989,DIMERCAPTOETHYL ETHER,371.1,1,SC(S)COCC(S)S,didier14
990,"2-METHYL-1,3-PROPANEDIOL",386.0,1,CC(CO)CO,didier14
991,CHRYSENE,510.0,1,c1ccc2c(c1)ccc1c3ccccc3ccc21,didier14
992,"trans-3,5-DIMETHOXYSTILBENE",489.0,1,COc1cc(/C=C/c2ccccc2)cc(OC)c1,didier14
993,3-METHYLOCTANE,297.0,1,CCCCCC(C)CC,didier14
994,4-METHYLOCTANE,295.0,1,CCCCC(C)CCC,didier14
995,ETHYLENE GLYCOL DIACRYLATE,373.1,1,C=CC(=O)OCCOC(=O)C=C,didier14
996,tert-BUTYLFORMAMIDE,368.1,1,CC(C)(C)NC=O,didier14
997,DIPROPYL MALEATE,391.0,1,CCCOC(=O)/C=C\C(=O)OCCC,didier14
998,AMINOCAPRONITRILE,378.0,1,CCCCC(N)C#N,didier14
999,"BENZENE-1,2,4-TRICARBOXYLIC ACID TRIMETHYL ESTER",468.0,1,COC(=O)c1ccc(C(=O)OC)c(C(=O)OC)c1,didier14
1000,ACRYLOXY PROPIONIC ACID,419.0,1,C=CC(=O)OC(C)C(=O)O,didier14
1001,TRIPROPYLENE GLYCOL,413.1,1,CC(O)COC(C)COC(C)CO,didier14
1002,DIPROPYLENE GLYCOL,391.0,1,CC(O)COC(C)CO,didier14
1003,TRIPROPYLENE GLYCOL MONOMETHYL ETHER,384.0,1,COC(C)COC(C)COC(C)CO,didier14
1004,4-HYDROXYBUTYRALDEHYDE,346.0,1,O=CCCCO,didier14
1005,ACRIDINE,445.0,1,c1ccc2nc3ccccc3cc2c1,didier14
1006,1-n-NONYLNAPHTHALENE,449.0,1,CCCCCCCCCc1cccc2ccccc12,didier14
1007,1-n-DECYLNAPHTHALENE,458.0,1,CCCCCCCCCCc1cccc2ccccc12,didier14
1008,DIISODECYL PHTHALATE,505.4,1,CC(C)CCCCCCCOC(=O)c1ccccc1C(=O)OCCCCCCCC(C)C,didier14
1009,DIISOOCTYL PHTHALATE,504.0,1,CC(C)CCCCCOC(=O)c1ccccc1C(=O)OCCCCCC(C)C,didier14
1010,1-n-PROPYLNAPHTHALENE,387.0,1,CCCc1cccc2ccccc12,didier14
1011,ETHYLENE GLYCOL MONOPROPYL ETHER,322.1,1,CCCOCCO,didier14
1012,ADAMANTANE,316.0,1,C1C2CC3CC1CC(C2)C3,didier14
1013,DIISONONYL PHTHALATE,489.0,1,CC(C)CCCCCCOC(=O)c1ccccc1C(=O)OCCCCCCC(C)C,didier14
1014,1-n-HEXYLNAPHTHALENE,425.0,1,CCCCCCc1cccc2ccccc12,didier14
1015,CYCLOPENTANE,233.0,1,C1CCCC1,didier14
1016,PYRIDAZINE,358.1,1,c1ccnnc1,didier14
1017,DIPROPYLENE GLYCOL n-PROPYL ETHER,370.9,1,CCCOC(C)COC(C)CO,didier14
1018,DIPROPYLENE GLYCOL MONOETHYL ETHER,364.0,1,CCOC(C)COC(C)CO,didier14
1019,4-HYDROXYMETHYL BENZOIC ACID,495.0,1,O=C(O)c1ccc(CO)cc1,didier14
1020,HYDRAZINE,311.0,1,NN,didier14
1021,"1,2,4-BUTANETRIOL",440.0,1,OCCC(O)CO,didier14
1022,ETHYLBENZENE HYDROPEROXIDE,414.0,1,CCc1ccccc1.[O-]O,didier14
1023,2-METHYLOCTANE,296.0,1,CCCCCCC(C)C,didier14
1024,n-DECANOIC ACID,412.0,1,CCCCCCCCCC(=O)O,didier14
1025,3-METHYL-1-HEXENE,267.1,1,C=CC(C)CCC,didier14
1026,DIPROPYLENE GLYCOL MONOMETHYL ETHER,347.1,1,COC(C)COC(C)CO,didier14
1027,"2,2,5-TRIMETHYLHEXANE",286.0,1,CC(C)CCC(C)(C)C,didier14
1028,DI-n-UNDECYL PHTHALATE,535.0,1,CCCCCCCCCCCOC(=O)c1ccccc1C(=O)OCCCCCCCCCCC,didier14
1029,DI-n-HEPTYL PHTHALATE,485.0,1,CCCCCCCOC(=O)c1ccccc1C(=O)OCCCCCCC,didier14
1030,"1,2,3,4-TETRAMETHYLCYCLOHEXANE",319.0,1,CC1CCC(C)C(C)C1C,didier14
1031,6-AMINOHEXANAMIDE,444.0,1,NCCCCCC(N)=O,didier14
1032,3-HYDROXY-2-METHYL PROPIONALDEHYDE,352.0,1,CC(C=O)CO,didier14
1033,ISOPROPYLCYCLOPENTANE,283.0,1,CC(C)C1CCCC1,didier14
1034,1-ISOPROPOXY-2-PROPANOL,309.0,1,CC(O)COC(C)C,didier14
1035,ALLYL-TERT-BUTYLPEROXIDE,286.0,1,C=CCOOC(C)(C)C,didier14
1036,6-AMINOHEXANOL,390.0,1,NCCCCCCO,didier14
1037,"N,N'-DI-tert-BUTYLETHYLENEDIAMINE",334.0,1,CC(C)(C)NCCNC(C)(C)C,didier14
1038,CYCLOHEXYL FORMATE,324.1,1,O=COC1CCCCC1,didier14
1039,"1,2,3-BUTANETRIOL",474.0,1,CC(O)C(O)CO,didier14
1040,CYANOGEN,204.0,1,N#CC#N,didier14
1041,"1,5-PENTANEDIAMINE",335.1,1,NCCCCCN,didier14
1042,DI-n-OCTYL TEREPHTHALATE,507.0,1,CCCCCCCCOC(=O)c1ccc(C(=O)OCCCCCCCC)cc1,didier14
1043,n-BUTYLHYDROPEROXIDE,325.0,1,CCCCOO,didier14
1044,"1,2,3,4-TETRAMETHYLBENZENE",341.1,1,Cc1ccc(C)c(C)c1C,didier14
1045,CITRACONIC ACID,493.0,1,C/C(=C/C(=O)O)C(=O)O,didier14
1046,FORMALDEHYDE,206.0,1,C=O,didier14
1047,LACTIC ACID,410.0,1,CC(O)C(=O)O,didier14
1048,5-NONANONE,333.1,1,CCCCC(=O)CCCC,didier14
1049,ISOVALERIC ACID,350.0,1,CC(C)CC(=O)O,didier14
1050,SUBERIC ACID,489.0,1,O=C(O)CCCCCCC(=O)O,didier14
1051,ACETYLSALICYLIC ACID,436.0,1,CC(=O)Oc1ccccc1C(=O)O,didier14
1052,2-METHYL-2-BUTENE,228.2,1,CC=C(C)C,didier14
1053,ISOBUTYL MERCAPTAN,264.1,1,CC(C)CS,didier14
1054,"2,3-BUTANEDIOL",358.1,1,CC(O)C(C)O,didier14
1055,"1,2,3-TRIMETHYLBENZENE",317.1,1,Cc1cccc(C)c1C,didier14
1056,"2,3-XYLENOL",365.0,1,Cc1cccc(O)c1C,didier14
1057,TRIMELLITIC ACID,550.0,1,O=C(O)c1ccc(C(=O)O)c(C(=O)O)c1,didier14
1058,"1,1-DIMETHOXYETHANE",256.1,1,COC(C)OC,didier14
1059,n-PENTYLBENZENE,338.1,1,CCCCCc1ccccc1,didier14
1060,AMINOACETONITRILE,339.0,1,N#CCN,didier14
1061,"1,2-ETHANEDITHIOL",317.1,1,SCCS,didier14
1062,m-DICHLOROBENZENE,345.0,1,Clc1cccc(Cl)c1,didier14
1063,ETHYLIDENE DIACETATE,337.0,1,CC(=O)OC(C)OC(C)=O,didier14
1064,ISOBUTYL FORMATE,277.0,1,CC(C)COC=O,didier14
1065,2-HEPTANOL,332.1,1,CCCCCC(C)O,didier14
1066,1-CHLOROPENTANE,286.0,1,CCCCCCl,didier14
1067,GLUTARONITRILE,417.0,1,N#CCCCC#N,didier14
1068,n-HEXADECANE,408.1,1,CCCCCCCCCCCCCCCC,didier14
1069,METHYL ISOBUTYRATE,276.1,1,COC(=O)C(C)C,didier14
1070,METHYL LACTATE,322.1,1,COC(=O)C(C)O,didier14
1071,PROPYLENE GLYCOL ETHYL ETHER ACETATE,327.0,1,CCOCC(C)OC(C)=O,didier14
1072,BENZAMIDE,430.0,1,NC(=O)c1ccccc1,didier14
1073,METHYL PROPIONATE,271.0,1,CCC(=O)OC,didier14
1074,"3,3-DIMETHYL-1-BUTENE",245.2,1,C=CC(C)(C)C,didier14
1075,"2,3,3-TRIMETHYLPENTANE",273.0,1,CCC(C)(C)C(C)C,didier14
1076,3-METHYL-1-BUTENE,217.2,1,C=CC(C)C,didier14
1077,"2,3-DIMETHYL-2-BUTENE",257.1,1,CC(C)=C(C)C,didier14
1078,METHYL ISOPROPYL KETONE,279.1,1,CC(=O)C(C)C,didier14
1079,"2,2,3-TRIMETHYLPENTANE",270.0,1,CCC(C)C(C)(C)C,didier14
1080,BENZANTHRACENE,508.0,1,c1ccc2cc3c(ccc4ccccc43)cc2c1,didier14
1081,3-METHYL-2-PENTANONE,285.1,1,CCC(C)C(C)=O,didier14
1082,ETHYL ISOPROPYL KETONE,286.1,1,CCC(=O)C(C)C,didier14
1083,"2,3,4-TRIMETHYLPENTANE",273.0,1,CC(C)C(C)C(C)C,didier14
1084,DIISOPROPYL KETONE,288.1,1,CC(C)C(=O)C(C)C,didier14
1085,n-OCTADECANOIC ACID,476.1,1,CCCCCCCCCCCCCCCCCC(=O)O,didier14
1086,"1,2-PROPYLENE GLYCOL",372.0,1,CC(O)CO,didier14
1087,"2,6-XYLENOL",346.1,1,Cc1cccc(C)c1O,didier14
1088,"2,6-DIMETHYLNAPHTHALENE",381.0,1,Cc1ccc2cc(C)ccc2c1,didier14
1089,"2,7-DIMETHYLNAPHTHALENE",382.0,1,Cc1ccc2ccc(C)cc2c1,didier14
1090,"3,4-DIMETHYLHEXANE",277.0,1,CCC(C)C(C)CC,didier14
1091,3-PENTANOL,300.0,1,CCC(O)CC,didier14
1092,"1,2-BUTANEDIOL",363.1,1,CCC(O)CO,didier14
1093,METHOXYACETONE,293.0,1,COCC(C)=O,didier14
1094,1-tert-BUTOXY-2-[2-(HYDROXY)PROPOXY]PROPANE,400.0,1,CC(O)COC(C)COC(C)(C)C,didier14
1095,3-METHYL-1-PENTANOL,331.1,1,CCC(C)CCO,didier14
1096,"2,4-DIMETHYLHEXANE",283.1,1,CCC(C)CC(C)C,didier14
1097,4-METHYLHEPTANE,279.1,1,CCCC(C)CCC,didier14
1098,3-METHYLHEPTANE,279.0,1,CCCCC(C)CC,didier14
1099,n-BUTYL PROPIONATE,305.4,1,CCCCOC(=O)CC,didier14
1100,"1,1-DIMETHYLCYCLOHEXANE",276.0,1,CC1(C)CCCCC1,didier14
1101,1-METHYLCYCLOHEXANOL,338.1,1,CC1(O)CCCCC1,didier14
1102,3-METHYLNONANE,311.0,1,CCCCCCC(C)CC,didier14
1103,2-HEXANONE,296.1,1,CCCCC(C)=O,didier14
1104,ALLYL ACETATE,295.4,1,C=CCOC(C)=O,didier14
1105,"2,5-DIMETHYLHEXANE",271.0,1,CC(C)CCC(C)C,didier14
1106,2-METHYLHEPTANE,277.1,1,CCCCCC(C)C,didier14
1107,1-HEXENE,242.0,1,C=CCCCC,didier14
1108,1-HEPTENE,265.1,1,C=CCCCCC,didier14
1109,n-HEPTACOSANE,475.0,1,CCCCCCCCCCCCCCCCCCCCCCCCCCC,didier14
1110,alpha-HYDROXYISOBUTYRIC ACID,396.0,1,CC(C)(O)C(=O)O,didier14
1111,NEOHEXANOIC ACID,352.1,1,CC(C)(C)CC(=O)O,didier14
1112,3-METHYL-2-BUTANOL,299.1,1,CC(C)C(C)O,didier14
1113,"2,6-DIETHYLNAPHTHALENE",410.0,1,CCc1ccc2cc(CC)ccc2c1,didier14
1114,p-AMINOAZOBENZENE,466.0,1,Nc1ccc(N=Nc2ccccc2)cc1,didier14
1115,2-MERCAPTOETHANOL,340.1,1,OCCS,didier14
1116,DIETHYL ETHER,228.2,1,CCOCC,didier14
1117,2-PENTANOL,307.0,1,CCCC(C)O,didier14
1118,ACETAMIDE,398.0,1,CC(N)=O,didier14