,compound,flashpoint,pure substance,smiles,source
1119,1-PHENYLNAPHTHALENE,435.0,1,c1ccc(-c2cccc3ccccc23)cc1,didier14
1120,"2,6-DINITROTOLUENE",417.0,1,Cc1c([N+](=O)[O-])cccc1[N+](=O)[O-],didier14
1121,2-METHYL-1-HEXENE,267.1,1,C=C(C)CCCC,didier14
1122,"3,4-DINITROTOLUENE",453.0,1,Cc1ccc([N+](=O)[O-])c([N+](=O)[O-])c1,didier14
1123,o-ETHYLTOLUENE,312.1,1,CCc1ccccc1C,didier14
1124,"cis-2-BUTENE-1,4-DIOL",401.1,1,OC/C=C\CO,didier14
1125,"1,2-DICHLOROBUTANE",297.0,1,CCC(Cl)CCl,didier14
1126,"2,3-DICHLORO-1-PROPANOL",365.0,1,OCC(Cl)CCl,didier14
1127,METHYL t-BUTYL SULFIDE,270.1,1,CSC(C)(C)C,didier14
1128,DIMETHYL CARBONATE,289.9,1,COC(=O)OC,didier14
1129,m-CHLOROBENZOYL CHLORIDE,372.0,1,O=C(Cl)c1cccc(Cl)c1,didier14
1130,"3,5-DINITROTOLUENE",443.0,1,Cc1cc([N+](=O)[O-])cc([N+](=O)[O-])c1,didier14
1131,"2,5-DINITROTOLUENE",438.0,1,Cc1cc([N+](=O)[O-])ccc1[N+](=O)[O-],didier14
1132,2-PENTOXYETHANOL,347.0,1,CCCCCOCCO,didier14
1133,4-CARBOXYBENZALDEHYDE,548.0,1,O=Cc1ccc(C(=O)O)cc1,didier14
1134,"1,4-CYCLOHEXANEDICARBOXYLIC ACID",508.1,1,O=C(O)C1CCC(C(=O)O)CC1,didier14
1135,3-ETHYLHEXANE,279.0,1,CCCC(CC)CC,didier14
1136,m-ETHYLTOLUENE,311.1,1,CCc1cccc(C)c1,didier14
1137,CYCLOHEXYL ACETATE,330.1,1,CC(=O)OC1CCCCC1,didier14
1138,p-ETHYLTOLUENE,309.1,1,CCc1ccc(C)cc1,didier14
1139,METHYL n-BUTYRATE,287.0,1,CCCC(=O)OC,didier14
1140,DIMETHYL MALEATE,386.1,1,COC(=O)/C=C\C(=O)OC,didier14
1141,METHYL ETHYL SULFIDE,258.1,1,CCSC,didier14
1142,ANILINE,343.1,1,Nc1ccccc1,didier14
1143,METHOXYACETIC ACID,388.0,1,COCC(=O)O,didier14
1144,"2,4-PENTANEDIOL",374.1,1,CC(O)CC(C)O,didier14
1145,2-HEXANOL,319.3,1,CCCCC(C)O,didier14
1146,1-NITROBUTANE,320.1,1,CCCC[N+](=O)[O-],didier14
1147,1-CHLORO-3-PROPANOL,346.1,1,OCCCCl,didier14
1148,HEXANAMIDE,410.0,1,CCCCCC(N)=O,didier14
1149,METHYL n-BUTYL SULFIDE,289.0,1,CCCCSC,didier14
1150,ETHYL PROPYL ETHER,247.0,1,CCCOCC,didier14
1151,n-PENTYL ACETATE,296.1,1,CCCCCOC(C)=O,didier14
1152,HEXANENITRILE,320.0,1,CCCCCC#N,didier14
1153,"2,2'-IMINOBIS-ACETONITRILE",413.0,1,N#CCNCC#N,didier14
1154,"1,2-DIETHOXYETHANE",300.1,1,CCOCCOCC,didier14
1155,n-TRIDECANE,352.0,1,CCCCCCCCCCCCC,didier14
1156,n-TETRADECANE,373.1,1,CCCCCCCCCCCCCC,didier14
1157,1-HEXADECENE,405.1,1,C=CCCCCCCCCCCCCCC,didier14
1158,n-HEPTADECANE,421.1,1,CCCCCCCCCCCCCCCCC,didier14
1159,n-NONADECANE,441.0,1,CCCCCCCCCCCCCCCCCCC,didier14
1160,n-OCTACOSANE,475.0,1,CCCCCCCCCCCCCCCCCCCCCCCCCCCC,didier14
1161,n-NONACOSANE,475.0,1,CCCCCCCCCCCCCCCCCCCCCCCCCCCCC,didier14
1162,"1,1,1,2-TETRACHLOROETHANE",334.0,1,ClCC(Cl)(Cl)Cl,didier14
1163,n-TRIACONTANE,475.0,1,CCCCCCCCCCCCCCCCCCCCCCCCCCCCCC,didier14
1164,ETHANOL,286.0,1,CCO,didier14
1165,ACETIC ACID,316.0,1,CC(=O)O,didier14
1166,cis-2-HEPTENE,265.0,1,C/C=C\CCCC,didier14
1167,trans-2-PENTENE,225.0,1,C/C=C/CC,didier14
1168,n-NONYL n-UNDECYL PHTHALATE,524.0,1,CCCCCCCCCCCOC(=O)c1ccccc1C(=O)OCCCCCCCCC,didier14
1169,BENZOIC ACID,394.3,1,O=C(O)c1ccccc1,didier14
1170,HEXANAL,300.0,1,CCCCCC=O,didier14
1171,METHANOL,284.0,1,CO,didier14
1172,ISOPROPANOL,285.1,1,CC(C)O,didier14
1173,THIOGLYCOLIC ACID,398.0,1,O=C(O)CS,didier14
1174,"N,N-DIMETHYLFORMAMIDE",331.0,1,CN(C)C=O,didier14
1175,"2,2,4-TRIMETHYL-1,3-PENTANEDIOL DIISOBUTYRATE",394.0,1,CC(C)C(=O)OCC(C)(C)C(OC(=O)C(C)C)C(C)C,didier14
1176,DIETHYLENE GLYCOL MONOPROPYL ETHER,372.0,1,CCCOCCOCCO,didier14
1177,MALIC ACID,515.0,1,O=C(O)CC(O)C(=O)O,didier14
1178,ISOPROPYLCYCLOHEXANE,308.1,1,CC(C)C1CCCCC1,didier14
1179,SALICYLIC ACID,430.0,1,O=C(O)c1ccccc1O,didier14
1180,"1,3-DIMETHYLADAMANTANE",325.1,1,CC12CC3CC(C1)CC(C)(C3)C2,didier14
1181,sec-BUTYLCYCLOHEXANE,319.0,1,CCC(C)C1CCCCC1,didier14
1182,1-PROPANOL,291.0,1,CCCO,didier14
1183,DICYCLOHEXYL SULFIDE,393.0,1,C1CCC(SC2CCCCC2)CC1,didier14
1184,1-BUTANOL,306.0,1,CCCCO,didier14
1185,1-PENTANOL,320.0,1,CCCCCO,didier14
1186,BENZENE,262.0,1,c1ccccc1,didier14
1187,"2,2,3,3-TETRAMETHYLPENTANE",289.0,1,CCC(C)(C)C(C)(C)C,didier14
1188,"3,3,5-TRIMETHYLHEPTANE",301.0,1,CCC(C)CC(C)(C)CC,didier14
1189,"2,2',2''-NITRILOTRIS-ACETONITRILE",487.0,1,N#CCN(CC#N)CC#N,didier14
1190,ETHANE,138.2,1,CC,didier14
1191,ETHYLENE,124.0,1,C=C,didier14
1192,METHYLAMINE,215.0,1,CN,didier14
1193,PROPANE,169.2,1,CCC,didier14
1194,ACETONITRILE,275.1,1,CC#N,didier14
1195,ACETALDEHYDE,235.0,1,CC=O,didier14
1196,DIMETHYL SULFIDE,237.2,1,CSC,didier14
1197,ISOPROPYL CHLORIDE,238.2,1,CC(C)Cl,didier14
1198,ISOPROPYLAMINE,236.2,1,CC(C)N,didier14
1199,ISOPROPYL MERCAPTAN,238.2,1,CC(C)S,didier14
1200,"1,1-DICHLOROETHANE",261.1,1,CC(Cl)Cl,didier14
1201,"1,1-DICHLOROETHYLENE",251.2,1,C=C(Cl)Cl,didier14
1202,NITROMETHANE,308.1,1,C[N+](=O)[O-],didier14
1203,2-METHYL-2-PROPANOL,284.3,1,CC(C)(C)O,didier14
1204,"2,3-DICHLOROBUTANE",291.1,1,CC(Cl)C(C)Cl,didier14
1205,2-METHYL-2-BUTANOL,293.1,1,CCC(C)(C)O,didier14
1206,ACETONE CYANOHYDRIN,336.1,1,CC(C)(O)C#N,didier14
1207,TRICHLOROACETALDEHYDE,323.0,1,O=CC(Cl)(Cl)Cl,didier14
1208,TRIPROPYLENE GLYCOL MONOETHYL ETHER,405.0,1,CCOC(C)COC(C)COC(C)CO,didier14
1209,t-BUTYL HYDROPEROXIDE,299.8,1,CC(C)(C)OO,didier14
1210,"3,3-DIMETHYL-2-BUTANONE",285.1,1,CC(=O)C(C)(C)C,didier14
1211,3-METHYL-1-PENTENE,245.2,1,C=CC(C)CC,didier14
1212,"3,4-DICHLORO-1-BUTENE",301.1,1,C=CC(Cl)CCl,didier14
1213,ETHYL-3-ETHOXYPROPIONATE,331.1,1,CCOCCC(=O)OCC,didier14
1214,cis-2-OCTENE,294.0,1,C/C=C\CCCCC,didier14
1215,cis-4-OCTENE,290.0,1,CCC/C=C\CCC,didier14
1216,CYCLOHEXYL PEROXIDE,381.0,1,C1CCC(OOC2CCCCC2)CC1,didier14
1217,3-METHYL-3-PENTANOL,297.1,1,CCC(C)(O)CC,didier14
1218,"1,2-DIMETHOXYPROPANE",273.7,1,COCC(C)OC,didier14
1219,CITRIC ACID,549.0,1,O=C(O)CC(O)(CC(=O)O)C(=O)O,didier14
1220,TRIMETHYLOLPROPANE,445.1,1,CCC(CO)(CO)CO,didier14
1221,"1,1-DIETHYLCYCLOHEXANE",322.1,1,CCC1(CC)CCCCC1,didier14
1222,ISOBUTYLAMINE,255.3,1,CC(C)CN,didier14
1223,ISOBUTYRONITRILE,281.5,1,CC(C)C#N,didier14
1224,2-METHYL-1-PROPANOL,301.0,1,CC(C)CO,didier14
1225,sec-BUTYL CHLORIDE,244.0,1,CCC(C)Cl,didier14
1226,"1,2-DICHLOROPROPANE",286.1,1,CC(Cl)CCl,didier14
1227,"2,3-DICHLOROPROPENE",283.1,1,C=C(Cl)CCl,didier14
1228,"1,2-PROPANEDIAMINE",306.1,1,CC(N)CN,didier14
1229,2-BUTANOL,296.1,1,CCC(C)O,didier14
1230,1-AMINO-2-PROPANOL,347.0,1,CC(O)CN,didier14
1231,LACTONITRILE,350.1,1,CC(O)C#N,didier14
1232,N-METHYLACETAMIDE,381.1,1,CNC(C)=O,didier14
1233,METHYL ACETATE,263.1,1,COC(C)=O,didier14
1234,PERACETIC ACID,313.1,1,CC(=O)OO,didier14
1235,METHYL CHLOROFORMATE,285.1,1,COC(=O)Cl,didier14
1236,NITROETHANE,301.0,1,CC[N+](=O)[O-],didier14
1237,ISOBUTYRIC ACID,329.1,1,CC(C)C(=O)O,didier14
1238,DICHLOROACETYL CHLORIDE,339.0,1,O=C(Cl)C(Cl)Cl,didier14
1239,DICHLOROACETIC ACID,383.1,1,O=C(O)C(Cl)Cl,didier14
1240,2-NITROPROPANE,297.1,1,CC(C)[N+](=O)[O-],didier14
1241,BISPHENOL A,480.1,1,CC(C)(c1ccc(O)cc1)c1ccc(O)cc1,didier14
1242,CUMENE HYDROPEROXIDE,322.0,1,CC(C)c1ccccc1.[O-]O,didier14
1243,p-MENTHANE HYDROPEROXIDE,404.0,1,CC1CCC(C(C)C)CC1.[O-]O,didier14
1244,2-HYDROXYETHYL ACRYLATE,371.1,1,C=CC(=O)OCCO,didier14
1245,"trans-2-BUTENE-1,4-DIOL",401.1,1,OC/C=C/CO,didier14
1246,2-NONANONE,337.1,1,CCCCCCCC(C)=O,didier14
1247,"2,6-DIAMINOTOLUENE",419.0,1,Cc1c(N)cccc1N,didier14
1248,CYCLOHEXYLBENZENE,372.0,1,c1ccc(C2CCCCC2)cc1,didier14
1249,"DIMETHYL-2,6-NAPHTHALENEDICARBOXYLATE",479.0,1,COC(=O)c1ccc2cc(C(=O)OC)ccc2c1,didier14
1250,o-TERPHENYL,436.0,1,c1ccc(-c2ccccc2-c2ccccc2)cc1,didier14
1251,ANTHRAQUINONE,458.1,1,O=C1c2ccccc2C(=O)c2ccccc21,didier14
1252,DIETHYL PHTHALATE,390.1,1,CCOC(=O)c1ccccc1C(=O)OCC,didier14
1253,DIISOBUTYL PHTHALATE,434.1,1,CC(C)COC(=O)c1ccccc1C(=O)OCC(C)C,didier14
1254,DI-n-BUTYL PHTHALATE,430.1,1,CCCCOC(=O)c1ccccc1C(=O)OCCCC,didier14
1255,DI-n-HEXYL PHTHALATE,466.1,1,CCCCCCOC(=O)c1ccccc1C(=O)OCCCCCC,didier14
1256,DI-n-NONYL PHTHALATE,489.1,1,CCCCCCCCCOC(=O)c1ccccc1C(=O)OCCCCCCCCC,didier14
1257,DI-n-DECYL PHTHALATE,505.0,1,CCCCCCCCCCOC(=O)c1ccccc1C(=O)OCCCCCCCCCC,didier14
1258,PHENANTHRENE,444.0,1,c1ccc2c(c1)ccc1ccccc12,didier14
1259,2-HYDROXYETHYL METHACRYLATE,370.1,1,C=C(C)C(=O)OCCO,didier14
1260,1-n-PENTYLNAPHTHALENE,413.0,1,CCCCCc1cccc2ccccc12,didier14
1261,2-METHYLNONANE,314.0,1,CCCCCCCC(C)C,didier14
1262,1-DECENE,311.0,1,C=CCCCCCCCC,didier14
1263,"1,2,3-TRICHLOROBENZENE",386.0,1,Clc1cccc(Cl)c1Cl,didier14
1264,"1,2,3-BENZENETRIOL",458.0,1,Oc1cccc(O)c1O,didier14
1265,"HEXACHLORO-1,3-BUTADIENE",395.0,1,ClC(Cl)=C(Cl)C(Cl)=C(Cl)Cl,didier14
1266,o-NITROTOLUENE,379.0,1,Cc1ccccc1[N+](=O)[O-],didier14
1267,o-CHLORONITROBENZENE,400.1,1,O=[N+]([O-])c1ccccc1Cl,didier14
1268,o-NITROANILINE,441.1,1,Nc1ccccc1[N+](=O)[O-],didier14
1269,DIPROPYLENE GLYCOL MONOMETHYL ETHER ACETATE,359.0,1,COC(C)COC(C)COC(C)=O,didier14
1270,PHTHALIC ACID,477.0,1,O=C(O)c1ccccc1C(=O)O,didier14
1271,PYROMELLITIC ACID,597.0,1,O=C(O)c1cc(C(=O)O)c(C(=O)O)cc1C(=O)O,didier14
1272,o-ETHYLPHENOL,351.1,1,CCc1ccccc1O,didier14
1273,SALICYLALDEHYDE,349.1,1,O=Cc1ccccc1O,didier14
1274,GUAIACOL,355.0,1,COc1ccccc1O,didier14
1275,1-METHYLNAPHTHALENE,355.1,1,Cc1cccc2ccccc12,didier14
1276,1-CHLORONAPHTHALENE,394.1,1,Clc1cccc2ccccc12,didier14
1277,NAPHTHALENE,352.0,1,c1ccc2ccccc2c1,didier14
1278,QUINOLINE,374.0,1,c1ccc2ncccc2c1,didier14
1279,2-METHYLNAPHTHALENE,370.1,1,Cc1ccc2ccccc2c1,didier14
1280,QUINALDINE,352.6,1,Cc1ccc2ccccc2n1,didier14
1281,"N,N-DIETHYLANILINE",358.1,1,CCN(CC)c1ccccc1,didier14
1282,2-HYDROXYPROPYL METHACRYLATE,369.1,1,C=C(C)C(=O)OCC(C)O,didier14
1283,BICYCLOHEXYL,347.1,1,C1CCC(C2CCCCC2)CC1,didier14
1284,3-NONANONE,339.1,1,CCCCCCC(=O)CC,didier14
1285,DIAMYL KETONE,361.5,1,CCCCCC(=O)CCCCC,didier14
1286,MALEONITRILE,389.0,1,N#C/C=C\C#N,didier14
1287,BENZIDINE,521.0,1,Nc1ccc(-c2ccc(N)cc2)cc1,didier14
1288,2-AMINOETHOXYETHANOL,397.0,1,CC(O)OCCN,didier14
1289,p-TERPHENYL,480.0,1,c1ccc(-c2ccc(-c3ccccc3)cc2)cc1,didier14
1290,2-ETHYLNAPHTHALENE,377.1,1,CCc1ccc2ccccc2c1,didier14
1291,"DIMETHYL-1,4-CYCLOHEXANEDICARBOXYLATE",383.1,1,COC(=O)C1CCC(C(=O)OC)CC1,didier14
1292,o-XYLENE,290.0,1,Cc1ccccc1C,didier14
1293,o-CRESOL,354.0,1,Cc1ccccc1O,didier14
1294,o-DICHLOROBENZENE,339.0,1,Clc1ccccc1Cl,didier14
1295,o-CHLOROANILINE,363.7,1,Nc1ccccc1Cl,didier14
1296,o-TOLUIDINE,358.1,1,Cc1ccccc1N,didier14
1297,o-CHLOROPHENOL,337.0,1,Oc1ccccc1Cl,didier14
1298,"1,2,4-TRIMETHYLBENZENE",318.6,1,Cc1ccc(C)c(C)c1,didier14
1299,"2,4-DICHLOROTOLUENE",369.3,1,Cc1ccc(Cl)cc1Cl,didier14
1300,"3,4-DICHLOROANILINE",439.0,1,Nc1ccc(Cl)c(Cl)c1,didier14
1301,"2,5-XYLENOL",360.0,1,Cc1ccc(C)c(O)c1,didier14
1302,DIETHYL OXALATE,339.2,1,CCOC(=O)C(=O)OCC,didier14
1303,BIS-(2-HYDROXYETHYL) TEREPHTHALATE,545.0,1,O=C(OCCO)c1ccc(C(=O)OCCO)cc1,didier14
1304,"1,2,4,5-TETRAMETHYLBENZENE",328.0,1,Cc1cc(C)c(C)cc1C,didier14
1305,"1,2,3-TRICHLOROPROPANE",347.0,1,ClCC(Cl)CCl,didier14
1306,3-PENTANONE,286.0,1,CCC(=O)CC,didier14
1307,"1,3-DICHLORO-2-PROPANOL",358.1,1,OC(CCl)CCl,didier14
1308,"3-CHLORO-1,2-PROPANEDIOL",408.1,1,OCC(O)CCl,didier14
1309,METHYL CHLOROACETATE,324.8,1,COC(=O)CCl,didier14
1310,METHYL GLYCOLATE,339.1,1,COC(=O)CO,didier14
1311,METHYLCYCLOPENTANE,246.0,1,CC1CCCC1,didier14
1312,"1-CHLORO-2,4-DINITROBENZENE",467.0,1,O=[N+]([O-])c1ccc(Cl)c([N+](=O)[O-])c1,didier14
1313,ETHYL ISOBUTYRATE,287.0,1,CCOC(=O)C(C)C,didier14
1314,ETHYL LACTATE,319.1,1,CCOC(=O)C(C)O,didier14
1315,ITACONIC ACID,488.0,1,C=C(CC(=O)O)C(=O)O,didier14
1316,2-ETHYL-1-BUTANOL,330.0,1,CCC(CC)CO,didier14
1317,tert-BUTYLBENZENE,333.1,1,CC(C)(C)c1ccccc1,didier14
1318,p-tert-BUTYLCATECHOL,403.0,1,CC(C)(C)c1ccc(O)c(O)c1,didier14
1319,p-DIISOPROPYLBENZENE HYDROPEROXIDE,465.0,1,CC(C)c1ccc(C(C)C)cc1.[O-]O,didier14
1320,NITROBENZENE,361.0,1,O=[N+]([O-])c1ccccc1,didier14
1321,m-NITROTOLUENE,375.0,1,Cc1cccc([N+](=O)[O-])c1,didier14
1322,METHYL tert-PENTYL ETHER,262.1,1,CCC(C)(C)OC,didier14
1323,"1,2-DICHLORO-4-NITROBENZENE",396.1,1,O=[N+]([O-])c1ccc(Cl)c(Cl)c1,didier14
1324,m-DINITROBENZENE,423.1,1,O=[N+]([O-])c1cccc([N+](=O)[O-])c1,didier14
1325,DIALLYL MALEATE,393.0,1,C=CCOC(=O)/C=C\C(=O)OCC=C,didier14
1326,2-HYDROXYPROPYL ACRYLATE,372.1,1,C=CC(=O)OCC(C)O,didier14
1327,p-NITROTOLUENE,379.0,1,Cc1ccc([N+](=O)[O-])cc1,didier14