,compound,flashpoint,pure substance,smiles,source
0,Methyltrichlorosilane,276.15,1,C[Si](Cl)(Cl)Cl,didier12
1,Vinyltrichlorosilane,294.15,1,C=C[Si](Cl)(Cl)Cl,didier12
2,Dichloromethylmethyldichlorosilane,301.15,1,C[Si](Cl)(Cl)C(Cl)Cl,didier12
3,Ethyltrichlorosilane,263.15,1,CC[Si](Cl)(Cl)Cl,didier12
4,Dimethylchlorosilane,245.15,1,C[SiH](C)Cl,didier12
5,Ethylsilane,213.15,1,CC[SiH3],didier12
6,"1,1,1-Trifluoropropyltrichlorosilane",288.15,1,CC(C(F)(F)F)[Si](Cl)(Cl)Cl,didier12
7,Allyltrichlorosilane,304.15,1,C=CC[Si](Cl)(Cl)Cl,didier12
8,Methylvinyldichlorosilane,272.15,1,CC=C[SiH](Cl)Cl,didier12
9,3-Chloropropyltrichlorosilane,357.15,1,ClCCC[Si](Cl)(Cl)Cl,didier12
10,n-Propyltrichlorosilane,310.15,1,CCC[Si](Cl)(Cl)Cl,didier12
11,Chloromethyldimethylchlorosilane,295.15,1,C[Si](C)(Cl)CCl,didier12
12,Trimethylbromosilane,270.15,1,C[Si](C)(C)Br,didier12
13,Trimethylchlorosilane,255.15,1,C[Si](C)(C)Cl,didier12
14,Trimethylfluorosilane,238.15,1,C[Si](C)(C)F,didier12
15,Trimethoxysilane,264.15,1,CO[SiH](OC)OC,didier12
16,Cyanoethylmethyldichlorosilane,333.15,1,C[Si](Cl)(Cl)CCC#N,didier12
17,Allylmethyldichlorosilane,300.15,1,C=CCC[SiH](Cl)Cl,didier12
18,3-Chloropropylmethyldichlorosilane,359.15,1,C[Si](Cl)(Cl)CCCCl,didier12
19,t-Butyltrichlorosilane,294.15,1,CC(C)(C)[Si](Cl)(Cl)Cl,didier12
20,Isobutyltrichlorosilane,310.15,1,CC(C)C[Si](Cl)(Cl)Cl,didier12
21,n-Butyltrichlorosilane,327.15,1,CCCC[Si](Cl)(Cl)Cl,didier12
22,Trimethylsilylisothiocyanate,308.15,1,C[Si](C)(C)N=C=S,didier12
23,n-Propylmethyldichlorosilane,300.15,1,CCC[Si](C)(Cl)Cl,didier12
24,Bromomethyltrimethylsilane,289.15,1,C[Si](C)(C)CBr,didier12
25,Ethyldimethylchlorosilane,269.15,1,CC[Si](C)(C)Cl,didier12
26,Methoxytrimethylsilane,243.15,1,CO[Si](C)(C)C,didier12
27,Dimethyldimethoxysilane,265.15,1,CO[Si](C)(C)OC,didier12
28,Methyltrimethoxysilane,284.15,1,CO[Si](C)(OC)OC,didier12
29,Tetramethoxysilane,294.15,1,CO[Si](OC)(OC)OC,didier12
30,Tetramethylsilane,245.15,1,C[Si](C)(C)C,didier12
31,Diethylsilane,253.15,1,CC[SiH2]CC,didier12
32,"(N,N-Dimethylamino)dimethylsilane",260.15,1,CN(C)[SiH](C)C,didier12
33,Tetraisocyanatosilane,323.15,1,O=C=N[Si](N=C=O)(N=C=O)N=C=O,didier12
34,Cyclopentyltrichlorosilane,350.15,1,Cl[Si](Cl)(Cl)C1CCCC1,didier12
35,Trimethylsilyltrifluoroacetate,273.15,1,C[Si](C)(C)OC(=O)C(F)(F)F,didier12
36,Cyclopentyldichlorosilane,316.15,1,Cl[SiH](Cl)C1CCCC1,didier12
37,3-Chloro-2-methylpropylmethyldichlorosilane,363.15,1,CC(CCl)C[Si](C)(Cl)Cl,didier12
38,Methylvinyldimethoxysilane,277.15,1,CC=C[SiH](OC)OC,didier12
39,Vinyltrimethoxysilane,296.15,1,C=C[Si](OC)(OC)OC,didier12
40,Trimethylvinylsilane,239.15,1,CC(C)=C(C)[SiH3],didier12
41,Diethylmethylchlorosilane,288.15,1,CC[Si](C)(Cl)CC,didier12
42,Chloromethyldimethylethoxysilane,299.15,1,CCO[Si](C)(C)CCl,didier12
43,Ethoxytrimethylsilane,246.15,1,CCO[Si](C)(C)C,didier12
44,Ethyltrimethoxysilane,300.15,1,CC[Si](OC)(OC)OC,didier12
45,"(N,N-Dimethylamino)trimethylsilane",254.15,1,CN(C)[Si](C)(C)C,didier12
46,Pentamethyldisiloxane,254.15,1,C[SiH](C)O[Si](C)(C)C,didier12
47,Phenyldichlorosilane,333.15,1,Cl[SiH](Cl)c1ccccc1,didier12
48,Phenylsilane,281.15,1,[SiH3]c1ccccc1,didier12
49,1-Hexenyltrichlorosilane,333.15,1,CCCCC=C[Si](Cl)(Cl)Cl,didier12
50,Cyclohexyltrichlorosilane,358.15,1,Cl[Si](Cl)(Cl)C1CCCCC1,didier12
51,Bis(chloromethyl)tetramethyldisiloxane,346.15,1,C[Si](C)(C)O[Si](C)(CCl)CCl,didier12
52,Propargyloxytrimethylsilane,300.15,1,C#CCO[Si](C)(C)C,didier12
53,Divinyldimethylsilane,281.15,1,C=C[Si](C)(C)C=C,didier12
54,n-Hexyltrichlorosilane,358.15,1,CCCCCC[Si](Cl)(Cl)Cl,didier12
55,Hexyldichlorosilane,337.15,1,CCCCCC[SiH](Cl)Cl,didier12
56,"1,1-Dimethyl-1-sila-2-oxacyclohexane",287.15,1,C[Si]1(C)CCCCO1,didier12
57,Acetoxymethyltrimethylsilane,293.15,1,CC(=O)OC[Si](C)(C)C,didier12
58,Allyltrimethylsilane,280.15,1,C=CC[Si](C)(C)C,didier12
59,Triethylchlorosilane,303.15,1,CC[Si](Cl)(CC)CC,didier12
60,t-Butyldimethylchlorosilane,295.15,1,CC(C)(C)[Si](C)(C)Cl,didier12
61,3-Chloropropylmethyldimethoxysilane,318.15,1,CO[Si](C)(CCCCl)OC,didier12
62,Trimethyl-n-propoxysilane,283.15,1,CCCO[Si](C)(C)C,didier12
63,t-Butyldimethylsilanol,318.15,1,CC(C)(C)[Si](C)(C)O,didier12
64,Dimethyldiethoxysilane,284.15,1,CCO[Si](C)(C)OCC,didier12
65,Triethylsilane,270.15,1,CC[SiH](CC)CC,didier12
66,Hexylsilane,285.15,1,CCCCCC[SiH3],didier12
67,t-Butyldimethylsilane,251.15,1,C[SiH](C)C(C)(C)C,didier12
68,Bis(dimethylamino)dimethylsilane,266.15,1,CN(C)[Si](C)(C)N(C)C,didier12
69,Hexamethylcyclotrisiloxane,305.15,1,C[Si]1(C)O[Si](C)(C)O[Si](C)(C)O1,didier12
70,Hexamethyldisilthiane,299.15,1,C[Si](C)(C)S[Si](C)(C)C,didier12
71,Hexamethyldisilazane,281.15,1,C[Si](C)(C)N[Si](C)(C)C,didier12
72,Tris(dimethylamino)silane,298.15,1,CN(C)[SiH](N(C)C)N(C)C,didier12
73,Hexamethyltrisiloxane,293.15,1,C[Si](C)(C)O[SiH2]O[Si](C)(C)C,didier12
74,Phenylmethyldichlorosilane,340.15,1,Cl[SiH](Cl)Cc1ccccc1,didier12
75,Phenylmethylchlorosilane,355.15,1,Cl[SiH2]Cc1ccccc1,didier12
76,Methyltriacetoxysilane,358.15,1,CC(=O)O[Si](C)(OC(C)=O)OC(C)=O,didier12
77,Trivinylmethylsilane,288.15,1,C=CC([SiH3])(C=C)C=C,didier12
78,Cyclohexylmethyldichlorosilane,355.15,1,Cl[SiH](Cl)CC1CCCCC1,didier12
79,"1-(Trimethylsiloxy)-1,3-butadiene",298.15,1,C=CC=CO[Si](C)(C)C,didier12
80,2-Chloromethyl-3-trimethylsilyl-1-propene,316.15,1,C=C(CCl)C[Si](C)(C)C,didier12
81,n-Heptyltrichlorosilane,337.15,1,CCCCCCC[Si](Cl)(Cl)Cl,didier12
82,n-Hexylmethyldichlorosilane,358.15,1,CCCCCC[Si](C)(Cl)Cl,didier12
83,Vinylmethyldiethoxysilane,289.15,1,C=CC[SiH](OCC)OCC,didier12
84,N-(Trimethylsilyl)morpholine,300.15,1,C[Si](C)(C)N1CCOCC1,didier12
85,t-Butoxytrimethylsilane,287.15,1,CC(C)(C)O[Si](C)(C)C,didier12
86,Vinylpentamethyldisiloxane,285.15,1,C=C[Si](C)(C)O[Si](C)(C)C,didier12
87,(1-Methoxy-2-propoxy)trimethylsilane,293.15,1,COCC(C)O[Si](C)(C)C,didier12
88,Methyltriethoxysilane,297.15,1,CCO[Si](C)(OCC)OCC,didier12
89,(Diethylamino)trimethylsilane,283.15,1,CCN(CC)[Si](C)(C)C,didier12
90,Bis(trimethylsilyl)methane,285.15,1,C[Si](C)(C)C[Si](C)(C)C,didier12
91,Heptamethyldisilazane,300.15,1,CN([Si](C)(C)C)[Si](C)(C)C,didier12
92,Phenylethyldichlorosilane,365.15,1,Cl[SiH](Cl)CCc1ccccc1,didier12
93,Tetravinylsilane,291.15,1,C=C[Si](C=C)(C=C)C=C,didier12
94,Phenyldimethylsilane,311.15,1,C[SiH](C)c1ccccc1,didier12
95,Cyclopentadienyltrimethylsilane,302.15,1,C[Si](C)(C)C1C=CC=C1,didier12
96,(Cyclopentenyloxy)trimethylsilane,311.15,1,C[Si](C)(C)OC1=CCCC1,didier12
97,"(2,4-Pentadienyl)trimethylsilane",291.15,1,C=CC=CC[Si](C)(C)C,didier12
98,n-Octyltrichlorosilane,369.15,1,CCCCCCCC[Si](Cl)(Cl)Cl,didier12
99,n-Heptylmethyldichlorosilane,339.15,1,CCCCCCC[Si](C)(Cl)Cl,didier12
100,Tetramethyldivinyldisiloxane,292.15,1,C=C[Si](C)(C=C)O[Si](C)(C)C,didier12
101,Triethylacetoxysilane,314.15,1,CCC(CC)(CC)C(=O)O[SiH3],didier12
102,Vinyltriethoxysilane,307.15,1,C=C[Si](OCC)(OCC)OCC,didier12
103,"1,3-Divinyltetramethyldisilazane",307.15,1,C=C[Si](C)(C)N[Si](C)(C)C=C,didier12
104,Diethyldiethoxysilane,316.15,1,CCO[Si](CC)(CC)OCC,didier12
105,Tetraethoxysilane,323.15,1,CCO[Si](OCC)(OCC)OCC,didier12
106,Tetraethylsilane,305.15,1,CC[Si](CC)(CC)CC,didier12
107,Aminoethylaminopropyltrimethoxysilane,369.15,1,CO[Si](CCCNCCN)(OC)OC,didier12
108,Tetramethyldiethoxysiloxane,311.15,1,CCO[Si]([O])OC(C)(C)C(C)C,didier12
109,Octamethyltrisiloxane,303.15,1,C[Si](C)(C)O[Si](C)(C)O[Si](C)(C)C,didier12
110,Octamethylcyclotetrasiloxane,330.15,1,C[Si]1(C)O[Si](C)(C)O[Si](C)(C)O[Si](C)(C)O1,didier12
111,Octamethylcyclotetrasilazane,339.15,1,C[Si]1(C)N[Si](C)(C)N[Si](C)(C)N[Si](C)(C)N1,didier12
112,Tetrakisdimethylsiloxysilane,340.15,1,C[SiH](C)O[Si](O[SiH](C)C)(O[SiH](C)C)O[SiH](C)C,didier12
113,p-Chlorophenyltrimethylsilane,322.15,1,C[Si](C)(C)c1ccc(Cl)cc1,didier12
114,Phenyltrimethoxysilane,358.15,1,CO[Si](OC)(OC)c1ccccc1,didier12
115,Trimethylphenylsilane,313.15,1,C[Si](C)(C)c1ccccc1,didier12
116,Cyclohexylmethyldimethoxysilane,343.15,1,CO[SiH](CC1CCCCC1)OC,didier12
117,Hexyltrimethoxysilane,335.15,1,CCCCCC[Si](OC)(OC)OC,didier12
118,Triisopropylsilane,310.15,1,CC(C)[SiH](C(C)C)C(C)C,didier12
119,Tri-n-propylsilane,316.15,1,CCC[SiH](CCC)CCC,didier12
120,Propyltris(dimethylsiloxy)silane,323.15,1,CCC[Si](O[SiH](C)C)(O[SiH](C)C)O[SiH](C)C,didier12
121,Benzyltrimethylsilane,335.15,1,C[Si](C)(C)Cc1ccccc1,didier12
122,3-Methacryloxypropyltrimethoxysilane,365.15,1,C=C(C)C(=O)OCCC[Si](OC)(OC)OC,didier12
123,1-Heptynyltrimethylsilane,315.15,1,CCCCCC#C[Si](C)(C)C,didier12
124,n-Octyldimethylchlorosilane,370.15,1,CCCCCCCC[Si](C)(C)Cl,didier12
125,Bis(diethylamino)dimethylsilane,308.15,1,CCN(CC)[Si](C)(C)N(CC)CC,didier12
126,Decamethyltetrasiloxane,335.15,1,C[Si](C)(C)O[Si](C)(C)O[Si](C)(C)O[Si](C)(C)C,didier12
127,Decamethylcyclopentasiloxane,350.15,1,C[Si]1(C)O[Si](C)(C)O[Si](C)(C)O[Si](C)(C)O[Si](C)(C)O1,didier12
128,"2-(3,4-epoxycyclohexyl)ethyltrimethoxysilane",419.15,1,CO[Si](CCC1CCC2OC2C1)(OC)OC,didier12
129,n-Decylmethyldichlorosilane,393.15,1,CCCCCCCCCC[Si](C)(Cl)Cl,didier12
130,Vinyltriethylsilane,318.15,1,C=C[Si](CC)(CC)CC,didier12
131,Diphenyldichlorosilane,415.15,1,Cl[Si](Cl)(c1ccccc1)c1ccccc1,didier12
132,Phenyltriethoxysilane,393.15,1,CCO[Si](OCC)(OCC)c1ccccc1,didier12
133,Diphenylsilane,371.15,1,c1ccc([SiH2]c2ccccc2)cc1,didier12
134,Tetramethyltetravinylcyclotetrasilane,385.15,1,C=C[Si]1(C)[Si](C)(C=C)[Si](C)(C=C)[Si]1(C)C=C,didier12
135,n-Dodecyltrichlorosilane,435.15,1,CCCCCCCCCCCC[Si](Cl)(Cl)Cl,didier12
136,Tetra-n-propoxysilane,368.15,1,CCCO[Si](OCCC)(OCCC)OCCC,didier12
137,Hexaethyldisiloxane,349.15,1,CC[Si](CC)(CC)O[Si](CC)(CC)CC,didier12
138,Dodecamethylpentasiloxane,352.15,1,C[Si](C)(C)O[Si](C)(C)O[Si](C)(C)O[Si](C)(C)O[Si](C)(C)C,didier12
139,Dodecamethylcyclohexasiloxane,366.15,1,C[Si]1(C)O[Si](C)(C)O[Si](C)(C)O[Si](C)(C)O[Si](C)(C)O[Si](C)(C)O1,didier12
140,Methyldiphenylchlorosilane,411.15,1,C[Si](Cl)(c1ccccc1)c1ccccc1,didier12
141,n-Dodecylmethyldichlorosilane,416.15,1,CCCCCCCCCCCC[Si](C)(Cl)Cl,didier12
142,Diphenyldimethoxysilane,394.15,1,CO[Si](OC)(c1ccccc1)c1ccccc1,didier12
143,Octyltriethoxysilane,373.15,1,CCCCCCCC[Si](OCC)(OCC)OCC,didier12
144,Tetradecamethylhexasiloxane,375.15,1,C[Si](C)(C)O[Si](C)(C)O[Si](C)(C)O[Si](C)(C)O[Si](C)(C)O[Si](C)(C)C,didier12
145,Hexadecamethylheptasiloxane,406.15,1,C[Si](C)(C)O[Si](C)(C)O[Si](C)(C)O[Si](C)(C)O[Si](C)(C)O[Si](C)(C)O[Si](C)(C)C,didier12
146,Octadecamethyloctasiloxane,417.15,1,C[Si](C)(C)O[Si](C)(C)O[Si](C)(C)O[Si](C)(C)O[Si](C)(C)O[Si](C)(C)O[Si](C)(C)O[Si](C)(C)C,didier12
147,Vinyltris(methoxyethoxy)silane,353.15,1,C=C[Si](OCCOC)(OCCOC)OCCOC,didier12
148,Trimethyl(vinyloxy)silane,263.15,1,C=CO[Si](C)(C)C,didier12
149,Trichloro(3-cyanopropyl) Silane,365.15,1,N#CCCC[Si](Cl)(Cl)Cl,didier12
150,Trichloro(2-phenylethyl)silane,364.15,1,Cl[Si](Cl)(Cl)CCc1ccccc1,didier12
151,"Chlorodimethyl(3,3,3-trifluoropropyl) silane",293.15,1,C[Si](C)(Cl)CCC(F)(F)F,didier12
152,Vinylmethylbis (trimethylsiloxy) silane,324.15,1,C=CC[SiH](O[Si](C)(C)C)O[Si](C)(C)C,didier12
153,Trichloro(Chloromethyl) silane,342.15,1,ClC[Si](Cl)(Cl)Cl,didier12
154,Dimethyl(pentafluorophenyl) silane,313.15,1,C[SiH](C)c1c(F)c(F)c(F)c(F)c1F,didier12
155,Trichloro(p-chlorophenyl)silane,397.05,1,Clc1ccc([Si](Cl)(Cl)Cl)cc1,didier12
156,Trisilane,273.15,1,[SiH3][SiH2][SiH3],didier12
157,Trichlorononylsilane,387.15,1,[SiH3]CCCCCCCCC(Cl)(Cl)Cl,didier12
158,Dichloroethylsilane,263.75,1,[SiH3]CC(Cl)Cl,didier12
159,Trichloro(dichlorophenyl)silane,419.15,1,Clc1cccc([Si](Cl)(Cl)Cl)c1Cl,didier12
160,Tris(trimethylsilyl)silane,328.15,1,C[Si](C)(C)[SiH]([Si](C)(C)C)[Si](C)(C)C,didier12
161,Tris(trimethylsiloxy)silane,323.15,1,C[Si](C)(C)O[SiH](O[Si](C)(C)C)O[Si](C)(C)C,didier12
162,Hexadecyltrichlorosilane,427.15,1,CCCCCCCCCCCCCCCC[Si](Cl)(Cl)Cl,didier12
163,Dichlorosilane,236.15,1,Cl[SiH2]Cl,didier12
164,Methyldichlorosilane,241.15,1,C[SiH](Cl)Cl,didier12
165,Iodotrimethylsilane,288.15,1,C[Si](C)(C)I,didier12
166,Dimethyldichlorosilane,257.15,1,C[Si](C)(Cl)Cl,didier12
167,Bromomethyldimethylchlorosilane,314.15,1,C[Si](C)(Cl)CBr,didier12
168,Trimethylsilane,204.15,1,C[SiH](C)C,didier12
169,Dimethylvinylchlorosilane,268.15,1,CC(C)=C[SiH2]Cl,didier12
170,"1,3-Dichlorotetramethyldisiloxane",288.15,1,C[Si](C)(Cl)O[Si](C)(C)Cl,didier12
171,"1,1,3,3-Tetramethyldisiloxane",251.15,1,C[SiH](C)O[SiH](C)C,didier12
172,Tetramethyldisilazane,284.15,1,CN([SiH3])[Si](C)(C)C,didier12
173,Allyldimethylchlorosilane,278.15,1,C=CC[Si](C)(C)Cl,didier12
174,sec-Amyltrichlorosilane,303.15,1,CCCC(C)[Si](Cl)(Cl)Cl,didier12
175,n-Butylmethyldichlorosilane,303.15,1,CCCC[Si](C)(Cl)Cl,didier12
176,Bis(dimethylamino)methylsilane,270.15,1,CN(C)C([SiH3])N(C)C,didier12
177,Phenyltrichlorosilane,364.15,1,Cl[Si](Cl)(Cl)c1ccccc1,didier12
178,Dimethyldiacetoxysilane,310.15,1,CC(=O)O[Si](C)(C)OC(C)=O,didier12
179,1-Trimethylsilylpropyne,270.15,1,CC#C[Si](C)(C)C,didier12
180,Vinyldimethylethoxysilane,277.15,1,C=C[Si](C)(C)OCC,didier12
181,Allyloxytrimethylsilane,273.15,1,C=CCO[Si](C)(C)C,didier12
182,Allyltrimethoxysilane,319.15,1,C=CC[Si](OC)(OC)OC,didier12
183,3-Chloropropyltrimethoxysilane,348.15,1,CO[Si](CCCCl)(OC)OC,didier12
184,n-Propyltrimethoxysilane,298.15,1,CCC[Si](OC)(OC)OC,didier12
185,Hexamethyldisiloxane,270.15,1,C[Si](C)(C)O[Si](C)(C)C,didier12
186,Hexamethyldisilane,272.15,1,C[Si](C)(C)[Si](C)(C)C,didier12
187,Vinyldiethylmethylsilane,288.15,1,C=C[Si](C)(CC)CC,didier12
188,Isobutyltrimethoxysilane,315.15,1,CO[Si](CC(C)C)(OC)OC,didier12
189,Phenyldimethylchlorosilane,334.15,1,C[Si](C)(Cl)c1ccccc1,didier12
190,"(N,N-Dimethylamino)triethylsilane",299.15,1,CC[Si](CC)(CC)N(C)C,didier12
191,Vinyltriacetoxysilane,361.15,1,C=C[Si](OC(C)=O)(OC(C)=O)OC(C)=O,didier12
192,Ethyltriacetoxysilane,377.15,1,CC[Si](OC(C)=O)(OC(C)=O)OC(C)=O,didier12
193,3-(Trimethylsilyl)cyclopentene,299.15,1,C[Si](C)(C)C1C=CCC1,didier12
194,Vinyltriethylsilane,298.15,1,C=C[Si](CC)(CC)CC,didier12
195,n-Octylsilane,309.15,1,CCCCCCCC[SiH3],didier12
196,Methylphenyldimethoxysilane,349.15,1,CO[Si](C)(OC)c1ccccc1,didier12
197,2-Cyanoethyltriethoxysilane,359.15,1,CCO[Si](CCC#N)(OCC)OCC,didier12
198,3-Glycidoxypropyltrimethoxysilane,383.15,1,CO[Si](CCCOCC1CO1)(OC)OC,didier12
199,Di-t-butylmethylchlorosilane,342.15,1,CC(C)(C)[Si](C)(Cl)C(C)(C)C,didier12
200,Tri-n-propylchlorosilane,349.15,1,CCC[Si](Cl)(CCC)CCC,didier12
201,(Diisopropylamino)trimethylsilane,301.15,1,CC(C)N(C(C)C)[Si](C)(C)C,didier12
202,1-Chlorononamethyltetrasiloxane,347.15,1,C[Si](C)(C)O[Si](C)(C)O[Si](C)(C)O[Si](C)(C)Cl,didier12
203,Tristrimethylsiloxymethylsilane,336.15,1,C[Si](C)(C)OC([SiH3])(O[Si](C)(C)C)O[Si](C)(C)C,didier12
204,Diphenylmethylsilane,393.15,1,[SiH3]C(c1ccccc1)c1ccccc1,didier12
205,Trimethyl[(1-methylethenyl)oxy]silane,272.15,1,C=C(C)O[Si](C)(C)C,didier12
206,"Dichloromethyl-3,3,3-trifluoropropylsilane",288.15,1,FC(F)(F)CC[SiH2]C(Cl)Cl,didier12
207,[2-(chloromethoxy)ethyl]trimethylsilane,319.15,1,C[Si](C)(C)CCOCCl,didier12
208,Triphenylsilane,416.35,1,c1ccc([SiH](c2ccccc2)c2ccccc2)cc1,didier12
209,Trichlorosilane,245.15,1,Cl[SiH](Cl)Cl,didier12