,Unnamed: 0,compound,flashpoint,pure substance,smiles,source
12861,13281,DI-n-BUTYL PHTHALATE,430.1,1.0,CCCCOC(=O)c1ccccc1C(=O)OCCCC,didier14
12862,13282,DI-n-HEXYL PHTHALATE,466.1,1.0,CCCCCCOC(=O)c1ccccc1C(=O)OCCCCCC,didier14
12863,13283,DI-n-NONYL PHTHALATE,489.1,1.0,CCCCCCCCCOC(=O)c1ccccc1C(=O)OCCCCCCCCC,didier14
12864,13284,DI-n-DECYL PHTHALATE,505.0,1.0,CCCCCCCCCCOC(=O)c1ccccc1C(=O)OCCCCCCCCCC,didier14
12865,13285,PHENANTHRENE,444.0,1.0,c1ccc2c(c1)ccc1ccccc12,didier14
12866,13286,2-HYDROXYETHYL METHACRYLATE,370.1,1.0,C=C(C)C(=O)OCCO,didier14
12867,13287,1-n-PENTYLNAPHTHALENE,413.0,1.0,CCCCCc1cccc2ccccc12,didier14
12868,13288,2-METHYLNONANE,314.0,1.0,CCCCCCCC(C)C,didier14
12869,13289,1-DECENE,311.0,1.0,C=CCCCCCCCC,didier14
12870,13290,"1,2,3-TRICHLOROBENZENE",386.0,1.0,Clc1cccc(Cl)c1Cl,didier14
12871,13291,"1,2,3-BENZENETRIOL",458.0,1.0,Oc1cccc(O)c1O,didier14
12872,13292,"HEXACHLORO-1,3-BUTADIENE",395.0,1.0,ClC(Cl)=C(Cl)C(Cl)=C(Cl)Cl,didier14
12873,13293,o-NITROTOLUENE,379.0,1.0,Cc1ccccc1[N+](=O)[O-],didier14
12874,13294,o-CHLORONITROBENZENE,400.1,1.0,O=[N+]([O-])c1ccccc1Cl,didier14
12875,13295,o-NITROANILINE,441.1,1.0,Nc1ccccc1[N+](=O)[O-],didier14
12876,13296,DIPROPYLENE GLYCOL MONOMETHYL ETHER ACETATE,359.0,1.0,COC(C)COC(C)COC(C)=O,didier14
12877,13297,PHTHALIC ACID,477.0,1.0,O=C(O)c1ccccc1C(=O)O,didier14
12878,13298,PYROMELLITIC ACID,597.0,1.0,O=C(O)c1cc(C(=O)O)c(C(=O)O)cc1C(=O)O,didier14
12879,13299,o-ETHYLPHENOL,351.1,1.0,CCc1ccccc1O,didier14
12880,13300,SALICYLALDEHYDE,349.1,1.0,O=Cc1ccccc1O,didier14
12881,13301,GUAIACOL,355.0,1.0,COc1ccccc1O,didier14
12882,13302,1-METHYLNAPHTHALENE,355.1,1.0,Cc1cccc2ccccc12,didier14
12883,13303,1-CHLORONAPHTHALENE,394.1,1.0,Clc1cccc2ccccc12,didier14
12884,13304,NAPHTHALENE,352.0,1.0,c1ccc2ccccc2c1,didier14
12885,13305,QUINOLINE,374.0,1.0,c1ccc2ncccc2c1,didier14
12886,13306,2-METHYLNAPHTHALENE,370.1,1.0,Cc1ccc2ccccc2c1,didier14
12887,13307,QUINALDINE,352.6,1.0,Cc1ccc2ccccc2n1,didier14
12888,13308,"N,N-DIETHYLANILINE",358.1,1.0,CCN(CC)c1ccccc1,didier14
12889,13309,2-HYDROXYPROPYL METHACRYLATE,369.1,1.0,C=C(C)C(=O)OCC(C)O,didier14
12890,13310,BICYCLOHEXYL,347.1,1.0,C1CCC(C2CCCCC2)CC1,didier14
12891,13311,3-NONANONE,339.1,1.0,CCCCCCC(=O)CC,didier14
12892,13312,DIAMYL KETONE,361.5,1.0,CCCCCC(=O)CCCCC,didier14
12893,13313,MALEONITRILE,389.0,1.0,N#C/C=C\C#N,didier14
12894,13314,BENZIDINE,521.0,1.0,Nc1ccc(-c2ccc(N)cc2)cc1,didier14
12895,13315,2-AMINOETHOXYETHANOL,397.0,1.0,CC(O)OCCN,didier14
12896,13316,p-TERPHENYL,480.0,1.0,c1ccc(-c2ccc(-c3ccccc3)cc2)cc1,didier14
12897,13317,2-ETHYLNAPHTHALENE,377.1,1.0,CCc1ccc2ccccc2c1,didier14
12898,13318,"DIMETHYL-1,4-CYCLOHEXANEDICARBOXYLATE",383.1,1.0,COC(=O)C1CCC(C(=O)OC)CC1,didier14
12899,13319,o-XYLENE,290.0,1.0,Cc1ccccc1C,didier14
12900,13320,o-CRESOL,354.0,1.0,Cc1ccccc1O,didier14
12901,13321,o-DICHLOROBENZENE,339.0,1.0,Clc1ccccc1Cl,didier14
12902,13322,o-CHLOROANILINE,363.7,1.0,Nc1ccccc1Cl,didier14
12903,13323,o-TOLUIDINE,358.1,1.0,Cc1ccccc1N,didier14
12904,13324,o-CHLOROPHENOL,337.0,1.0,Oc1ccccc1Cl,didier14
12905,13325,"1,2,4-TRIMETHYLBENZENE",318.6,1.0,Cc1ccc(C)c(C)c1,didier14
12906,13326,"2,4-DICHLOROTOLUENE",369.3,1.0,Cc1ccc(Cl)cc1Cl,didier14
12907,13327,"3,4-DICHLOROANILINE",439.0,1.0,Nc1ccc(Cl)c(Cl)c1,didier14
12908,13328,"2,5-XYLENOL",360.0,1.0,Cc1ccc(C)c(O)c1,didier14
12909,13329,DIETHYL OXALATE,339.2,1.0,CCOC(=O)C(=O)OCC,didier14
12910,13330,BIS-(2-HYDROXYETHYL) TEREPHTHALATE,545.0,1.0,O=C(OCCO)c1ccc(C(=O)OCCO)cc1,didier14
12911,13331,"1,2,4,5-TETRAMETHYLBENZENE",328.0,1.0,Cc1cc(C)c(C)cc1C,didier14
12912,13332,"1,2,3-TRICHLOROPROPANE",347.0,1.0,ClCC(Cl)CCl,didier14
12913,13333,3-PENTANONE,286.0,1.0,CCC(=O)CC,didier14
12914,13334,"1,3-DICHLORO-2-PROPANOL",358.1,1.0,OC(CCl)CCl,didier14
12915,13335,"3-CHLORO-1,2-PROPANEDIOL",408.1,1.0,OCC(O)CCl,didier14
12916,13336,METHYL CHLOROACETATE,324.8,1.0,COC(=O)CCl,didier14
12917,13337,METHYL GLYCOLATE,339.1,1.0,COC(=O)CO,didier14
12918,13338,METHYLCYCLOPENTANE,246.0,1.0,CC1CCCC1,didier14
12919,13339,"1-CHLORO-2,4-DINITROBENZENE",467.0,1.0,O=[N+]([O-])c1ccc(Cl)c([N+](=O)[O-])c1,didier14
12920,13340,ETHYL ISOBUTYRATE,287.0,1.0,CCOC(=O)C(C)C,didier14
12921,13341,ETHYL LACTATE,319.1,1.0,CCOC(=O)C(C)O,didier14
12922,13342,ITACONIC ACID,488.0,1.0,C=C(CC(=O)O)C(=O)O,didier14
12923,13343,2-ETHYL-1-BUTANOL,330.0,1.0,CCC(CC)CO,didier14
12924,13344,tert-BUTYLBENZENE,333.1,1.0,CC(C)(C)c1ccccc1,didier14
12925,13345,p-tert-BUTYLCATECHOL,403.0,1.0,CC(C)(C)c1ccc(O)c(O)c1,didier14
12926,13346,p-DIISOPROPYLBENZENE HYDROPEROXIDE,465.0,1.0,CC(C)c1ccc(C(C)C)cc1.[O-]O,didier14
12927,13347,NITROBENZENE,361.0,1.0,O=[N+]([O-])c1ccccc1,didier14
12928,13348,m-NITROTOLUENE,375.0,1.0,Cc1cccc([N+](=O)[O-])c1,didier14
12929,13349,METHYL tert-PENTYL ETHER,262.1,1.0,CCC(C)(C)OC,didier14
12930,13350,"1,2-DICHLORO-4-NITROBENZENE",396.1,1.0,O=[N+]([O-])c1ccc(Cl)c(Cl)c1,didier14
12931,13351,m-DINITROBENZENE,423.1,1.0,O=[N+]([O-])c1cccc([N+](=O)[O-])c1,didier14
12932,13352,DIALLYL MALEATE,393.0,1.0,C=CCOC(=O)/C=C\C(=O)OCC=C,didier14
12933,13353,2-HYDROXYPROPYL ACRYLATE,372.1,1.0,C=CC(=O)OCC(C)O,didier14
12934,13354,p-NITROTOLUENE,379.0,1.0,Cc1ccc([N+](=O)[O-])cc1,didier14