,compound,flashpoint,pure substance,smiles,source
13069,DI-n-OCTYL TEREPHTHALATE,507.0,1.0,CCCCCCCCOC(=O)c1ccc(C(=O)OCCCCCCCC)cc1,didier14
13070,n-BUTYLHYDROPEROXIDE,325.0,1.0,CCCCOO,didier14
13071,"1,2,3,4-TETRAMETHYLBENZENE",341.1,1.0,Cc1ccc(C)c(C)c1C,didier14
13072,CITRACONIC ACID,493.0,1.0,C/C(=C/C(=O)O)C(=O)O,didier14
13073,FORMALDEHYDE,206.0,1.0,C=O,didier14
13074,LACTIC ACID,410.0,1.0,CC(O)C(=O)O,didier14
13075,5-NONANONE,333.1,1.0,CCCCC(=O)CCCC,didier14
13076,ISOVALERIC ACID,350.0,1.0,CC(C)CC(=O)O,didier14
13077,SUBERIC ACID,489.0,1.0,O=C(O)CCCCCCC(=O)O,didier14
13078,ACETYLSALICYLIC ACID,436.0,1.0,CC(=O)Oc1ccccc1C(=O)O,didier14
13079,2-METHYL-2-BUTENE,228.2,1.0,CC=C(C)C,didier14
13080,ISOBUTYL MERCAPTAN,264.1,1.0,CC(C)CS,didier14
13081,"2,3-BUTANEDIOL",358.1,1.0,CC(O)C(C)O,didier14
13082,"1,2,3-TRIMETHYLBENZENE",317.1,1.0,Cc1cccc(C)c1C,didier14
13083,"2,3-XYLENOL",365.0,1.0,Cc1cccc(O)c1C,didier14
13084,TRIMELLITIC ACID,550.0,1.0,O=C(O)c1ccc(C(=O)O)c(C(=O)O)c1,didier14
13085,"1,1-DIMETHOXYETHANE",256.1,1.0,COC(C)OC,didier14
13086,n-PENTYLBENZENE,338.1,1.0,CCCCCc1ccccc1,didier14
13087,AMINOACETONITRILE,339.0,1.0,N#CCN,didier14
13088,"1,2-ETHANEDITHIOL",317.1,1.0,SCCS,didier14
13089,m-DICHLOROBENZENE,345.0,1.0,Clc1cccc(Cl)c1,didier14
13090,ETHYLIDENE DIACETATE,337.0,1.0,CC(=O)OC(C)OC(C)=O,didier14
13091,ISOBUTYL FORMATE,277.0,1.0,CC(C)COC=O,didier14
13092,2-HEPTANOL,332.1,1.0,CCCCCC(C)O,didier14
13093,1-CHLOROPENTANE,286.0,1.0,CCCCCCl,didier14
13094,GLUTARONITRILE,417.0,1.0,N#CCCCC#N,didier14
13095,n-HEXADECANE,408.1,1.0,CCCCCCCCCCCCCCCC,didier14
13096,METHYL ISOBUTYRATE,276.1,1.0,COC(=O)C(C)C,didier14
13097,METHYL LACTATE,322.1,1.0,COC(=O)C(C)O,didier14
13098,PROPYLENE GLYCOL ETHYL ETHER ACETATE,327.0,1.0,CCOCC(C)OC(C)=O,didier14
13099,BENZAMIDE,430.0,1.0,NC(=O)c1ccccc1,didier14
13100,METHYL PROPIONATE,271.0,1.0,CCC(=O)OC,didier14
13101,"3,3-DIMETHYL-1-BUTENE",245.2,1.0,C=CC(C)(C)C,didier14
13102,"2,3,3-TRIMETHYLPENTANE",273.0,1.0,CCC(C)(C)C(C)C,didier14
13103,3-METHYL-1-BUTENE,217.2,1.0,C=CC(C)C,didier14
13104,"2,3-DIMETHYL-2-BUTENE",257.1,1.0,CC(C)=C(C)C,didier14
13105,METHYL ISOPROPYL KETONE,279.1,1.0,CC(=O)C(C)C,didier14
13106,"2,2,3-TRIMETHYLPENTANE",270.0,1.0,CCC(C)C(C)(C)C,didier14
13107,BENZANTHRACENE,508.0,1.0,c1ccc2cc3c(ccc4ccccc43)cc2c1,didier14
13108,3-METHYL-2-PENTANONE,285.1,1.0,CCC(C)C(C)=O,didier14
13109,ETHYL ISOPROPYL KETONE,286.1,1.0,CCC(=O)C(C)C,didier14
13110,"2,3,4-TRIMETHYLPENTANE",273.0,1.0,CC(C)C(C)C(C)C,didier14
13111,DIISOPROPYL KETONE,288.1,1.0,CC(C)C(=O)C(C)C,didier14
13112,n-OCTADECANOIC ACID,476.1,1.0,CCCCCCCCCCCCCCCCCC(=O)O,didier14
13113,"1,2-PROPYLENE GLYCOL",372.0,1.0,CC(O)CO,didier14
13114,"2,6-XYLENOL",346.1,1.0,Cc1cccc(C)c1O,didier14
13115,"2,6-DIMETHYLNAPHTHALENE",381.0,1.0,Cc1ccc2cc(C)ccc2c1,didier14
13116,"2,7-DIMETHYLNAPHTHALENE",382.0,1.0,Cc1ccc2ccc(C)cc2c1,didier14
13117,"3,4-DIMETHYLHEXANE",277.0,1.0,CCC(C)C(C)CC,didier14
13118,3-PENTANOL,300.0,1.0,CCC(O)CC,didier14
13119,"1,2-BUTANEDIOL",363.1,1.0,CCC(O)CO,didier14
13120,METHOXYACETONE,293.0,1.0,COCC(C)=O,didier14
13121,1-tert-BUTOXY-2-[2-(HYDROXY)PROPOXY]PROPANE,400.0,1.0,CC(O)COC(C)COC(C)(C)C,didier14
13122,3-METHYL-1-PENTANOL,331.1,1.0,CCC(C)CCO,didier14
13123,"2,4-DIMETHYLHEXANE",283.1,1.0,CCC(C)CC(C)C,didier14
13124,4-METHYLHEPTANE,279.1,1.0,CCCC(C)CCC,didier14
13125,3-METHYLHEPTANE,279.0,1.0,CCCCC(C)CC,didier14
13126,n-BUTYL PROPIONATE,305.4,1.0,CCCCOC(=O)CC,didier14
13127,"1,1-DIMETHYLCYCLOHEXANE",276.0,1.0,CC1(C)CCCCC1,didier14
13128,1-METHYLCYCLOHEXANOL,338.1,1.0,CC1(O)CCCCC1,didier14
13129,3-METHYLNONANE,311.0,1.0,CCCCCCC(C)CC,didier14
13130,2-HEXANONE,296.1,1.0,CCCCC(C)=O,didier14
13131,ALLYL ACETATE,295.4,1.0,C=CCOC(C)=O,didier14
13132,"2,5-DIMETHYLHEXANE",271.0,1.0,CC(C)CCC(C)C,didier14
13133,2-METHYLHEPTANE,277.1,1.0,CCCCCC(C)C,didier14
13134,1-HEXENE,242.0,1.0,C=CCCCC,didier14
13135,1-HEPTENE,265.1,1.0,C=CCCCCC,didier14
13136,n-HEPTACOSANE,475.0,1.0,CCCCCCCCCCCCCCCCCCCCCCCCCCC,didier14
13137,alpha-HYDROXYISOBUTYRIC ACID,396.0,1.0,CC(C)(O)C(=O)O,didier14
13138,NEOHEXANOIC ACID,352.1,1.0,CC(C)(C)CC(=O)O,didier14
13139,3-METHYL-2-BUTANOL,299.1,1.0,CC(C)C(C)O,didier14
13140,"2,6-DIETHYLNAPHTHALENE",410.0,1.0,CCc1ccc2cc(CC)ccc2c1,didier14
13141,p-AMINOAZOBENZENE,466.0,1.0,Nc1ccc(N=Nc2ccccc2)cc1,didier14
13142,2-MERCAPTOETHANOL,340.1,1.0,OCCS,didier14
13143,DIETHYL ETHER,228.2,1.0,CCOCC,didier14
13144,2-PENTANOL,307.0,1.0,CCCC(C)O,didier14
13145,ACETAMIDE,398.0,1.0,CC(N)=O,didier14
13146,1-PHENYLNAPHTHALENE,435.0,1.0,c1ccc(-c2cccc3ccccc23)cc1,didier14
13147,"2,6-DINITROTOLUENE",417.0,1.0,Cc1c([N+](=O)[O-])cccc1[N+](=O)[O-],didier14
13148,2-METHYL-1-HEXENE,267.1,1.0,C=C(C)CCCC,didier14
13149,"3,4-DINITROTOLUENE",453.0,1.0,Cc1ccc([N+](=O)[O-])c([N+](=O)[O-])c1,didier14
13150,o-ETHYLTOLUENE,312.1,1.0,CCc1ccccc1C,didier14
13151,"cis-2-BUTENE-1,4-DIOL",401.1,1.0,OC/C=C\CO,didier14
13152,"1,2-DICHLOROBUTANE",297.0,1.0,CCC(Cl)CCl,didier14
13153,"2,3-DICHLORO-1-PROPANOL",365.0,1.0,OCC(Cl)CCl,didier14
13154,METHYL t-BUTYL SULFIDE,270.1,1.0,CSC(C)(C)C,didier14
13155,DIMETHYL CARBONATE,289.9,1.0,COC(=O)OC,didier14
13156,m-CHLOROBENZOYL CHLORIDE,372.0,1.0,O=C(Cl)c1cccc(Cl)c1,didier14
13157,"3,5-DINITROTOLUENE",443.0,1.0,Cc1cc([N+](=O)[O-])cc([N+](=O)[O-])c1,didier14
13158,"2,5-DINITROTOLUENE",438.0,1.0,Cc1cc([N+](=O)[O-])ccc1[N+](=O)[O-],didier14
13159,2-PENTOXYETHANOL,347.0,1.0,CCCCCOCCO,didier14
13160,4-CARBOXYBENZALDEHYDE,548.0,1.0,O=Cc1ccc(C(=O)O)cc1,didier14
13161,"1,4-CYCLOHEXANEDICARBOXYLIC ACID",508.1,1.0,O=C(O)C1CCC(C(=O)O)CC1,didier14
13162,3-ETHYLHEXANE,279.0,1.0,CCCC(CC)CC,didier14
13163,m-ETHYLTOLUENE,311.1,1.0,CCc1cccc(C)c1,didier14
13164,CYCLOHEXYL ACETATE,330.1,1.0,CC(=O)OC1CCCCC1,didier14
13165,p-ETHYLTOLUENE,309.1,1.0,CCc1ccc(C)cc1,didier14
13166,METHYL n-BUTYRATE,287.0,1.0,CCCC(=O)OC,didier14
13167,DIMETHYL MALEATE,386.1,1.0,COC(=O)/C=C\C(=O)OC,didier14
13168,METHYL ETHYL SULFIDE,258.1,1.0,CCSC,didier14
13169,ANILINE,343.1,1.0,Nc1ccccc1,didier14
13170,METHOXYACETIC ACID,388.0,1.0,COCC(=O)O,didier14
13171,"2,4-PENTANEDIOL",374.1,1.0,CC(O)CC(C)O,didier14
13172,2-HEXANOL,319.3,1.0,CCCCC(C)O,didier14
13173,1-NITROBUTANE,320.1,1.0,CCCC[N+](=O)[O-],didier14
13174,1-CHLORO-3-PROPANOL,346.1,1.0,OCCCCl,didier14
13175,HEXANAMIDE,410.0,1.0,CCCCCC(N)=O,didier14
13176,METHYL n-BUTYL SULFIDE,289.0,1.0,CCCCSC,didier14
13177,ETHYL PROPYL ETHER,247.0,1.0,CCCOCC,didier14
13178,n-PENTYL ACETATE,296.1,1.0,CCCCCOC(C)=O,didier14
13179,HEXANENITRILE,320.0,1.0,CCCCCC#N,didier14
13180,"2,2'-IMINOBIS-ACETONITRILE",413.0,1.0,N#CCNCC#N,didier14
13181,"1,2-DIETHOXYETHANE",300.1,1.0,CCOCCOCC,didier14
13182,n-TRIDECANE,352.0,1.0,CCCCCCCCCCCCC,didier14
13183,n-TETRADECANE,373.1,1.0,CCCCCCCCCCCCCC,didier14
13184,1-HEXADECENE,405.1,1.0,C=CCCCCCCCCCCCCCC,didier14
13185,n-HEPTADECANE,421.1,1.0,CCCCCCCCCCCCCCCCC,didier14
13186,n-NONADECANE,441.0,1.0,CCCCCCCCCCCCCCCCCCC,didier14
13187,n-OCTACOSANE,475.0,1.0,CCCCCCCCCCCCCCCCCCCCCCCCCCCC,didier14
13188,n-NONACOSANE,475.0,1.0,CCCCCCCCCCCCCCCCCCCCCCCCCCCCC,didier14
13189,"1,1,1,2-TETRACHLOROETHANE",334.0,1.0,ClCC(Cl)(Cl)Cl,didier14
13190,n-TRIACONTANE,475.0,1.0,CCCCCCCCCCCCCCCCCCCCCCCCCCCCCC,didier14
13191,ETHANOL,286.0,1.0,CCO,didier14
13192,ACETIC ACID,316.0,1.0,CC(=O)O,didier14
13193,cis-2-HEPTENE,265.0,1.0,C/C=C\CCCC,didier14
13194,trans-2-PENTENE,225.0,1.0,C/C=C/CC,didier14
13195,n-NONYL n-UNDECYL PHTHALATE,524.0,1.0,CCCCCCCCCCCOC(=O)c1ccccc1C(=O)OCCCCCCCCC,didier14
13196,BENZOIC ACID,394.3,1.0,O=C(O)c1ccccc1,didier14
13197,HEXANAL,300.0,1.0,CCCCCC=O,didier14
13198,METHANOL,284.0,1.0,CO,didier14
13199,ISOPROPANOL,285.1,1.0,CC(C)O,didier14
13200,THIOGLYCOLIC ACID,398.0,1.0,O=C(O)CS,didier14
13201,"N,N-DIMETHYLFORMAMIDE",331.0,1.0,CN(C)C=O,didier14
13202,"2,2,4-TRIMETHYL-1,3-PENTANEDIOL DIISOBUTYRATE",394.0,1.0,CC(C)C(=O)OCC(C)(C)C(OC(=O)C(C)C)C(C)C,didier14
13203,DIETHYLENE GLYCOL MONOPROPYL ETHER,372.0,1.0,CCCOCCOCCO,didier14
13204,MALIC ACID,515.0,1.0,O=C(O)CC(O)C(=O)O,didier14
13205,ISOPROPYLCYCLOHEXANE,308.1,1.0,CC(C)C1CCCCC1,didier14
13206,SALICYLIC ACID,430.0,1.0,O=C(O)c1ccccc1O,didier14
13207,"1,3-DIMETHYLADAMANTANE",325.1,1.0,CC12CC3CC(C1)CC(C)(C3)C2,didier14
13208,sec-BUTYLCYCLOHEXANE,319.0,1.0,CCC(C)C1CCCCC1,didier14
13209,1-PROPANOL,291.0,1.0,CCCO,didier14
13210,DICYCLOHEXYL SULFIDE,393.0,1.0,C1CCC(SC2CCCCC2)CC1,didier14
13211,1-BUTANOL,306.0,1.0,CCCCO,didier14
13212,1-PENTANOL,320.0,1.0,CCCCCO,didier14
13213,BENZENE,262.0,1.0,c1ccccc1,didier14
13214,"2,2,3,3-TETRAMETHYLPENTANE",289.0,1.0,CCC(C)(C)C(C)(C)C,didier14
13215,"3,3,5-TRIMETHYLHEPTANE",301.0,1.0,CCC(C)CC(C)(C)CC,didier14
13216,"2,2',2''-NITRILOTRIS-ACETONITRILE",487.0,1.0,N#CCN(CC#N)CC#N,didier14
13217,ETHANE,138.2,1.0,CC,didier14
13218,ETHYLENE,124.0,1.0,C=C,didier14
13219,METHYLAMINE,215.0,1.0,CN,didier14
13220,PROPANE,169.2,1.0,CCC,didier14
13221,ACETONITRILE,275.1,1.0,CC#N,didier14
13222,ACETALDEHYDE,235.0,1.0,CC=O,didier14
13223,DIMETHYL SULFIDE,237.2,1.0,CSC,didier14
13224,ISOPROPYL CHLORIDE,238.2,1.0,CC(C)Cl,didier14
13225,ISOPROPYLAMINE,236.2,1.0,CC(C)N,didier14
13226,ISOPROPYL MERCAPTAN,238.2,1.0,CC(C)S,didier14
13227,"1,1-DICHLOROETHANE",261.1,1.0,CC(Cl)Cl,didier14
13228,"1,1-DICHLOROETHYLENE",251.2,1.0,C=C(Cl)Cl,didier14
13229,NITROMETHANE,308.1,1.0,C[N+](=O)[O-],didier14
13230,2-METHYL-2-PROPANOL,284.3,1.0,CC(C)(C)O,didier14
13231,"2,3-DICHLOROBUTANE",291.1,1.0,CC(Cl)C(C)Cl,didier14
13232,2-METHYL-2-BUTANOL,293.1,1.0,CCC(C)(C)O,didier14
13233,ACETONE CYANOHYDRIN,336.1,1.0,CC(C)(O)C#N,didier14
13234,TRICHLOROACETALDEHYDE,323.0,1.0,O=CC(Cl)(Cl)Cl,didier14
13235,TRIPROPYLENE GLYCOL MONOETHYL ETHER,405.0,1.0,CCOC(C)COC(C)COC(C)CO,didier14
13236,t-BUTYL HYDROPEROXIDE,299.8,1.0,CC(C)(C)OO,didier14
13237,"3,3-DIMETHYL-2-BUTANONE",285.1,1.0,CC(=O)C(C)(C)C,didier14
13238,3-METHYL-1-PENTENE,245.2,1.0,C=CC(C)CC,didier14
13239,"3,4-DICHLORO-1-BUTENE",301.1,1.0,C=CC(Cl)CCl,didier14
13240,ETHYL-3-ETHOXYPROPIONATE,331.1,1.0,CCOCCC(=O)OCC,didier14
13241,cis-2-OCTENE,294.0,1.0,C/C=C\CCCCC,didier14
13242,cis-4-OCTENE,290.0,1.0,CCC/C=C\CCC,didier14
13243,CYCLOHEXYL PEROXIDE,381.0,1.0,C1CCC(OOC2CCCCC2)CC1,didier14
13244,3-METHYL-3-PENTANOL,297.1,1.0,CCC(C)(O)CC,didier14
13245,"1,2-DIMETHOXYPROPANE",273.7,1.0,COCC(C)OC,didier14
13246,CITRIC ACID,549.0,1.0,O=C(O)CC(O)(CC(=O)O)C(=O)O,didier14
13247,TRIMETHYLOLPROPANE,445.1,1.0,CCC(CO)(CO)CO,didier14
13248,"1,1-DIETHYLCYCLOHEXANE",322.1,1.0,CCC1(CC)CCCCC1,didier14
13249,ISOBUTYLAMINE,255.3,1.0,CC(C)CN,didier14
13250,ISOBUTYRONITRILE,281.5,1.0,CC(C)C#N,didier14
13251,2-METHYL-1-PROPANOL,301.0,1.0,CC(C)CO,didier14
13252,sec-BUTYL CHLORIDE,244.0,1.0,CCC(C)Cl,didier14
13253,"1,2-DICHLOROPROPANE",286.1,1.0,CC(Cl)CCl,didier14
13254,"2,3-DICHLOROPROPENE",283.1,1.0,C=C(Cl)CCl,didier14
13255,"1,2-PROPANEDIAMINE",306.1,1.0,CC(N)CN,didier14
13256,2-BUTANOL,296.1,1.0,CCC(C)O,didier14
13257,1-AMINO-2-PROPANOL,347.0,1.0,CC(O)CN,didier14
13258,LACTONITRILE,350.1,1.0,CC(O)C#N,didier14
13259,N-METHYLACETAMIDE,381.1,1.0,CNC(C)=O,didier14
13260,METHYL ACETATE,263.1,1.0,COC(C)=O,didier14
13261,PERACETIC ACID,313.1,1.0,CC(=O)OO,didier14
13262,METHYL CHLOROFORMATE,285.1,1.0,COC(=O)Cl,didier14
13263,NITROETHANE,301.0,1.0,CC[N+](=O)[O-],didier14
13264,ISOBUTYRIC ACID,329.1,1.0,CC(C)C(=O)O,didier14
13265,DICHLOROACETYL CHLORIDE,339.0,1.0,O=C(Cl)C(Cl)Cl,didier14
13266,DICHLOROACETIC ACID,383.1,1.0,O=C(O)C(Cl)Cl,didier14
13267,2-NITROPROPANE,297.1,1.0,CC(C)[N+](=O)[O-],didier14
13268,BISPHENOL A,480.1,1.0,CC(C)(c1ccc(O)cc1)c1ccc(O)cc1,didier14
13269,CUMENE HYDROPEROXIDE,322.0,1.0,CC(C)c1ccccc1.[O-]O,didier14
13270,p-MENTHANE HYDROPEROXIDE,404.0,1.0,CC1CCC(C(C)C)CC1.[O-]O,didier14
13271,2-HYDROXYETHYL ACRYLATE,371.1,1.0,C=CC(=O)OCCO,didier14
13272,"trans-2-BUTENE-1,4-DIOL",401.1,1.0,OC/C=C/CO,didier14
13273,2-NONANONE,337.1,1.0,CCCCCCCC(C)=O,didier14
13274,"2,6-DIAMINOTOLUENE",419.0,1.0,Cc1c(N)cccc1N,didier14
13275,CYCLOHEXYLBENZENE,372.0,1.0,c1ccc(C2CCCCC2)cc1,didier14
13276,"DIMETHYL-2,6-NAPHTHALENEDICARBOXYLATE",479.0,1.0,COC(=O)c1ccc2cc(C(=O)OC)ccc2c1,didier14
13277,o-TERPHENYL,436.0,1.0,c1ccc(-c2ccccc2-c2ccccc2)cc1,didier14
13278,ANTHRAQUINONE,458.1,1.0,O=C1c2ccccc2C(=O)c2ccccc21,didier14
13279,DIETHYL PHTHALATE,390.1,1.0,CCOC(=O)c1ccccc1C(=O)OCC,didier14
13280,DIISOBUTYL PHTHALATE,434.1,1.0,CC(C)COC(=O)c1ccccc1C(=O)OCC(C)C,didier14
13281,DI-n-BUTYL PHTHALATE,430.1,1.0,CCCCOC(=O)c1ccccc1C(=O)OCCCC,didier14
13282,DI-n-HEXYL PHTHALATE,466.1,1.0,CCCCCCOC(=O)c1ccccc1C(=O)OCCCCCC,didier14
13283,DI-n-NONYL PHTHALATE,489.1,1.0,CCCCCCCCCOC(=O)c1ccccc1C(=O)OCCCCCCCCC,didier14
13284,DI-n-DECYL PHTHALATE,505.0,1.0,CCCCCCCCCCOC(=O)c1ccccc1C(=O)OCCCCCCCCCC,didier14
13285,PHENANTHRENE,444.0,1.0,c1ccc2c(c1)ccc1ccccc12,didier14
13286,2-HYDROXYETHYL METHACRYLATE,370.1,1.0,C=C(C)C(=O)OCCO,didier14
13287,1-n-PENTYLNAPHTHALENE,413.0,1.0,CCCCCc1cccc2ccccc12,didier14
13288,2-METHYLNONANE,314.0,1.0,CCCCCCCC(C)C,didier14
13289,1-DECENE,311.0,1.0,C=CCCCCCCCC,didier14
13290,"1,2,3-TRICHLOROBENZENE",386.0,1.0,Clc1cccc(Cl)c1Cl,didier14
13291,"1,2,3-BENZENETRIOL",458.0,1.0,Oc1cccc(O)c1O,didier14
13292,"HEXACHLORO-1,3-BUTADIENE",395.0,1.0,ClC(Cl)=C(Cl)C(Cl)=C(Cl)Cl,didier14
13293,o-NITROTOLUENE,379.0,1.0,Cc1ccccc1[N+](=O)[O-],didier14
13294,o-CHLORONITROBENZENE,400.1,1.0,O=[N+]([O-])c1ccccc1Cl,didier14
13295,o-NITROANILINE,441.1,1.0,Nc1ccccc1[N+](=O)[O-],didier14
13296,DIPROPYLENE GLYCOL MONOMETHYL ETHER ACETATE,359.0,1.0,COC(C)COC(C)COC(C)=O,didier14
13297,PHTHALIC ACID,477.0,1.0,O=C(O)c1ccccc1C(=O)O,didier14
13298,PYROMELLITIC ACID,597.0,1.0,O=C(O)c1cc(C(=O)O)c(C(=O)O)cc1C(=O)O,didier14
13299,o-ETHYLPHENOL,351.1,1.0,CCc1ccccc1O,didier14
13300,SALICYLALDEHYDE,349.1,1.0,O=Cc1ccccc1O,didier14
13301,GUAIACOL,355.0,1.0,COc1ccccc1O,didier14
13302,1-METHYLNAPHTHALENE,355.1,1.0,Cc1cccc2ccccc12,didier14
13303,1-CHLORONAPHTHALENE,394.1,1.0,Clc1cccc2ccccc12,didier14
13304,NAPHTHALENE,352.0,1.0,c1ccc2ccccc2c1,didier14
13305,QUINOLINE,374.0,1.0,c1ccc2ncccc2c1,didier14
13306,2-METHYLNAPHTHALENE,370.1,1.0,Cc1ccc2ccccc2c1,didier14
13307,QUINALDINE,352.6,1.0,Cc1ccc2ccccc2n1,didier14
13308,"N,N-DIETHYLANILINE",358.1,1.0,CCN(CC)c1ccccc1,didier14
13309,2-HYDROXYPROPYL METHACRYLATE,369.1,1.0,C=C(C)C(=O)OCC(C)O,didier14
13310,BICYCLOHEXYL,347.1,1.0,C1CCC(C2CCCCC2)CC1,didier14
13311,3-NONANONE,339.1,1.0,CCCCCCC(=O)CC,didier14
13312,DIAMYL KETONE,361.5,1.0,CCCCCC(=O)CCCCC,didier14
13313,MALEONITRILE,389.0,1.0,N#C/C=C\C#N,didier14
13314,BENZIDINE,521.0,1.0,Nc1ccc(-c2ccc(N)cc2)cc1,didier14
13315,2-AMINOETHOXYETHANOL,397.0,1.0,CC(O)OCCN,didier14
13316,p-TERPHENYL,480.0,1.0,c1ccc(-c2ccc(-c3ccccc3)cc2)cc1,didier14
13317,2-ETHYLNAPHTHALENE,377.1,1.0,CCc1ccc2ccccc2c1,didier14
13318,"DIMETHYL-1,4-CYCLOHEXANEDICARBOXYLATE",383.1,1.0,COC(=O)C1CCC(C(=O)OC)CC1,didier14
13319,o-XYLENE,290.0,1.0,Cc1ccccc1C,didier14
13320,o-CRESOL,354.0,1.0,Cc1ccccc1O,didier14
13321,o-DICHLOROBENZENE,339.0,1.0,Clc1ccccc1Cl,didier14
13322,o-CHLOROANILINE,363.7,1.0,Nc1ccccc1Cl,didier14
13323,o-TOLUIDINE,358.1,1.0,Cc1ccccc1N,didier14
13324,o-CHLOROPHENOL,337.0,1.0,Oc1ccccc1Cl,didier14
13325,"1,2,4-TRIMETHYLBENZENE",318.6,1.0,Cc1ccc(C)c(C)c1,didier14
13326,"2,4-DICHLOROTOLUENE",369.3,1.0,Cc1ccc(Cl)cc1Cl,didier14
13327,"3,4-DICHLOROANILINE",439.0,1.0,Nc1ccc(Cl)c(Cl)c1,didier14
13328,"2,5-XYLENOL",360.0,1.0,Cc1ccc(C)c(O)c1,didier14
13329,DIETHYL OXALATE,339.2,1.0,CCOC(=O)C(=O)OCC,didier14
13330,BIS-(2-HYDROXYETHYL) TEREPHTHALATE,545.0,1.0,O=C(OCCO)c1ccc(C(=O)OCCO)cc1,didier14
13331,"1,2,4,5-TETRAMETHYLBENZENE",328.0,1.0,Cc1cc(C)c(C)cc1C,didier14
13332,"1,2,3-TRICHLOROPROPANE",347.0,1.0,ClCC(Cl)CCl,didier14
13333,3-PENTANONE,286.0,1.0,CCC(=O)CC,didier14
13334,"1,3-DICHLORO-2-PROPANOL",358.1,1.0,OC(CCl)CCl,didier14
13335,"3-CHLORO-1,2-PROPANEDIOL",408.1,1.0,OCC(O)CCl,didier14
13336,METHYL CHLOROACETATE,324.8,1.0,COC(=O)CCl,didier14
13337,METHYL GLYCOLATE,339.1,1.0,COC(=O)CO,didier14
13338,METHYLCYCLOPENTANE,246.0,1.0,CC1CCCC1,didier14
13339,"1-CHLORO-2,4-DINITROBENZENE",467.0,1.0,O=[N+]([O-])c1ccc(Cl)c([N+](=O)[O-])c1,didier14
13340,ETHYL ISOBUTYRATE,287.0,1.0,CCOC(=O)C(C)C,didier14
13341,ETHYL LACTATE,319.1,1.0,CCOC(=O)C(C)O,didier14
13342,ITACONIC ACID,488.0,1.0,C=C(CC(=O)O)C(=O)O,didier14
13343,2-ETHYL-1-BUTANOL,330.0,1.0,CCC(CC)CO,didier14
13344,tert-BUTYLBENZENE,333.1,1.0,CC(C)(C)c1ccccc1,didier14
13345,p-tert-BUTYLCATECHOL,403.0,1.0,CC(C)(C)c1ccc(O)c(O)c1,didier14
13346,p-DIISOPROPYLBENZENE HYDROPEROXIDE,465.0,1.0,CC(C)c1ccc(C(C)C)cc1.[O-]O,didier14
13347,NITROBENZENE,361.0,1.0,O=[N+]([O-])c1ccccc1,didier14
13348,m-NITROTOLUENE,375.0,1.0,Cc1cccc([N+](=O)[O-])c1,didier14
13349,METHYL tert-PENTYL ETHER,262.1,1.0,CCC(C)(C)OC,didier14
13350,"1,2-DICHLORO-4-NITROBENZENE",396.1,1.0,O=[N+]([O-])c1ccc(Cl)c(Cl)c1,didier14
13351,m-DINITROBENZENE,423.1,1.0,O=[N+]([O-])c1cccc([N+](=O)[O-])c1,didier14
13352,DIALLYL MALEATE,393.0,1.0,C=CCOC(=O)/C=C\C(=O)OCC=C,didier14
13353,2-HYDROXYPROPYL ACRYLATE,372.1,1.0,C=CC(=O)OCC(C)O,didier14
13354,p-NITROTOLUENE,379.0,1.0,Cc1ccc([N+](=O)[O-])cc1,didier14