,Unnamed: 0,compound,flashpoint,pure substance,smiles,source
12242,12662,METHACRYLIC ACID,340.0,1.0,C=C(C)C(=O)O,didier14
12243,12663,p-tert-AMYLPHENOL,384.0,1.0,CCC(C)(C)c1ccc(O)cc1,didier14
12244,12664,METHYL METHACRYLATE,284.1,1.0,C=C(C)C(=O)OC,didier14
12245,12665,METHYL ISOPROPENYL KETONE,294.1,1.0,C=C(C)C(C)=O,didier14
12246,12666,1-UNDECENE,327.0,1.0,C=CCCCCCCCCC,didier14
12247,12667,trans-1-PROPENYLBENZENE,325.1,1.0,C/C=C/c1ccccc1,didier14
12248,12668,4-ETHYL-m-XYLENE,330.0,1.0,CCc1ccc(C)cc1C,didier14
12249,12669,"1,2,4-TRIETHYLBENZENE",353.1,1.0,CCc1ccc(CC)c(CC)c1,didier14
12250,12670,HEXAMETHYLBENZENE,387.0,1.0,Cc1c(C)c(C)c(C)c(C)c1C,didier14
12251,12671,2-ETHYL BUTYRIC ACID,360.0,1.0,CCC(CC)C(=O)O,didier14
12252,12672,DIPHENYL DISULFIDE,436.0,1.0,c1ccc(SSc2ccccc2)cc1,didier14
12253,12673,THYMOL,374.1,1.0,Cc1ccc(C(C)C)c(O)c1,didier14
12254,12674,ETHYL tert-PENTYL ETHER,268.0,1.0,CCOC(C)(C)CC,didier14
12255,12675,m-TERPHENYL,464.0,1.0,c1ccc(-c2cccc(-c3ccccc3)c2)cc1,didier14
12256,12676,BIPHENYL,386.0,1.0,c1ccc(-c2ccccc2)cc1,didier14
12257,12677,2-METHYLHEXANAL,305.0,1.0,CCCCC(C)C=O,didier14
12258,12678,n-PROPYL ACRYLATE,293.0,1.0,C=CC(=O)OCCC,didier14
12259,12679,"trans-2-METHYL-1,3-PENTADIENE",253.2,1.0,C=C(C)/C=C/C,didier14
12260,12680,"N,N-DIMETHYL-n-BUTYLAMINE",270.1,1.0,CCCCN(C)C,didier14
12261,12681,3-ETHYL-o-XYLENE,338.1,1.0,CCc1cccc(C)c1C,didier14
12262,12682,5-ETHYL-m-XYLENE,326.0,1.0,CCc1cc(C)cc(C)c1,didier14
12263,12683,4-ETHYL-o-XYLENE,331.0,1.0,CCc1ccc(C)c(C)c1,didier14
12264,12684,2-PHENYLPROPIONALDEHYDE,342.0,1.0,CC(C=O)c1ccccc1,didier14
12265,12685,1-PHENYL-1-PROPANOL,363.1,1.0,CCC(O)c1ccccc1,didier14
12266,12686,METHYL BENZOATE,355.1,1.0,COC(=O)c1ccccc1,didier14
12267,12687,ETHYL BENZOATE,357.1,1.0,CCOC(=O)c1ccccc1,didier14
12268,12688,o-CHLOROTOLUENE,324.0,1.0,Cc1ccccc1Cl,didier14
12269,12689,"3,4-XYLENOL",376.0,1.0,Cc1ccc(O)cc1C,didier14
12270,12690,ALLYL METHACRYLATE,306.1,1.0,C=CCOC(=O)C(=C)C,didier14
12271,12691,3-METHYLPENTANE,241.0,1.0,CCC(C)CC,didier14
12272,12692,2-METHYLBUTYRALDEHYDE,271.0,1.0,CCC(C)C=O,didier14
12273,12693,METHYL ACRYLATE,270.0,1.0,C=CC(=O)OC,didier14
12274,12694,ETHYL METHACRYLATE,293.1,1.0,C=C(C)C(=O)OCC,didier14
12275,12695,ISOBUTYL ISOBUTYRATE,311.1,1.0,CC(C)COC(=O)C(C)C,didier14
12276,12696,ISOBUTYL METHACRYLATE,314.1,1.0,C=C(C)C(=O)OCC(C)C,didier14
12277,12697,n-BUTYL METHACRYLATE,322.0,1.0,C=C(C)C(=O)OCCCC,didier14
12278,12698,BENZOTRICHLORIDE,354.0,1.0,ClC(Cl)(Cl)c1ccccc1,didier14
12279,12699,p-tert-BUTYLPHENOL,386.0,1.0,CC(C)(C)c1ccc(O)cc1,didier14
12280,12700,CUMENE,304.1,1.0,CC(C)c1ccccc1,didier14
12281,12701,alpha-METHYLSTYRENE,313.1,1.0,C=C(C)c1ccccc1,didier14
12282,12702,ACETOPHENONE,355.4,1.0,CC(=O)c1ccccc1,didier14
12283,12703,BENZOYL CHLORIDE,345.0,1.0,O=C(Cl)c1ccccc1,didier14
12284,12704,m-DIISOPROPYLBENZENE,349.8,1.0,CC(C)c1cccc(C(C)C)c1,didier14
12285,12705,METHYL para-TOLUATE,363.7,1.0,COC(=O)c1ccc(C)cc1,didier14
12286,12706,p-CYMENE,320.0,1.0,Cc1ccc(C(C)C)cc1,didier14
12287,12707,p-CHLORONITROBENZENE,400.1,1.0,O=[N+]([O-])c1ccc(Cl)cc1,didier14
12288,12708,p-NITROANILINE,472.1,1.0,Nc1ccc([N+](=O)[O-])cc1,didier14
12289,12709,p-DINITROBENZENE,433.0,1.0,O=[N+]([O-])c1ccc([N+](=O)[O-])cc1,didier14
12290,12710,CYCLOPENTYLAMINE,290.1,1.0,NC1CCCC1,didier14
12291,12711,ETHYLBENZENE,288.1,1.0,CCc1ccccc1,didier14
12292,12712,N-METHYLCYCLOHEXYLAMINE,302.1,1.0,CNC1CCCCC1,didier14
12293,12713,N-METHYLANILINE,351.0,1.0,CNc1ccccc1,didier14
12294,12714,PHENYLHYDRAZINE,362.1,1.0,NNc1ccccc1,didier14
12295,12715,DICYCLOHEXYLAMINE,377.0,1.0,C1CCC(NC2CCCCC2)CC1,didier14
12296,12716,DIPHENYL ETHER,369.0,1.0,c1ccc(Oc2ccccc2)cc1,didier14
12297,12717,DI(2-ETHYLHEXYL)ADIPATE,466.0,1.0,CCCCC(CC)COC(=O)CCCCC(=O)OCC(CC)CCCC,didier14
12298,12718,n-PROPYLBENZENE,303.1,1.0,CCCc1ccccc1,didier14
12299,12719,N-ETHYLANILINE,358.1,1.0,CCNc1ccccc1,didier14
12300,12720,ACETANILIDE,446.1,1.0,CC(=O)Nc1ccccc1,didier14
12301,12721,4-METHOXYPHENYLACETIC ACID,437.0,1.0,COc1ccc(CC(=O)O)cc1,didier14
12302,12722,2-ETHYL-1-HEXANOL,346.0,1.0,CCCCC(CC)CO,didier14
12303,12723,p-DIETHYLBENZENE,329.1,1.0,CCc1ccc(CC)cc1,didier14
12304,12724,"1,4-CYCLOHEXANEDIMETHANOL",434.1,1.0,OCC1CCC(CO)CC1,didier14
12305,12725,2-METHYL-1-PENTANOL,319.0,1.0,CCCC(C)CO,didier14
12306,12726,METHYL CYANOACETATE,383.1,1.0,COC(=O)CC#N,didier14
12307,12727,ETHYL PROPIONATE,285.0,1.0,CCOC(=O)CC,didier14
12308,12728,ETHYLCHLOROACETATE,311.0,1.0,CCOC(=O)CCl,didier14
12309,12729,METHYL ACETOACETATE,343.0,1.0,COC(=O)CC(C)=O,didier14
12310,12730,DIETHYL MALONATE,366.1,1.0,CCOC(=O)CC(=O)OCC,didier14
12311,12731,ETHYL n-BUTYRATE,297.1,1.0,CCCC(=O)OCC,didier14
12312,12732,ETHYL CYANOACETATE,383.1,1.0,CCOC(=O)CC#N,didier14
12313,12733,METHYL DIETHANOLAMINE,399.8,1.0,CN(CCO)CCO,didier14
12314,12734,n-PROPYL n-BUTYRATE,305.0,1.0,CCCOC(=O)CCC,didier14
12315,12735,"2,4-XYLENOL",368.1,1.0,Cc1ccc(O)c(C)c1,didier14
12316,12736,DIBUTYL MALEATE,413.0,1.0,CCCCOC(=O)/C=C\C(=O)OCCCC,didier14
12317,12737,3-HEPTANONE,310.1,1.0,CCCCC(=O)CC,didier14
12318,12738,n-PROPYL PROPIONATE,292.1,1.0,CCCOC(=O)CC,didier14
12319,12739,p-XYLENE,298.1,1.0,Cc1ccc(C)cc1,didier14
12320,12740,p-CRESOL,368.0,1.0,Cc1ccc(O)cc1,didier14
12321,12741,p-DICHLOROBENZENE,339.0,1.0,Clc1ccc(Cl)cc1,didier14
12322,12742,p-CHLOROANILINE,386.0,1.0,Nc1ccc(Cl)cc1,didier14
12323,12743,p-CHLOROPHENOL,389.0,1.0,Oc1ccc(Cl)cc1,didier14
12324,12744,p-TOLUIDINE,360.0,1.0,Cc1ccc(N)cc1,didier14
12325,12745,p-PHENYLENEDIAMINE,428.7,1.0,Nc1ccc(N)cc1,didier14
12326,12746,ISOBUTYL ACRYLATE,304.3,1.0,C=CC(=O)OCC(C)C,didier14
12327,12747,DIMETHYL SUCCINATE,358.1,1.0,COC(=O)CCC(=O)OC,didier14
12328,12748,3-METHYL-3-ETHYLPENTANE,276.0,1.0,CCC(C)(CC)CC,didier14
12329,12749,"3,3-DIETHYLPENTANE",294.0,1.0,CCC(CC)(CC)CC,didier14
12330,12750,"2,4-DIMETHYL-3-ETHYLPENTANE",288.0,1.0,CCC(C(C)C)C(C)C,didier14
12331,12751,"1,3-BUTADIENE",197.2,1.0,C=CC=C,didier14
12332,12752,n-PROPYL MERCAPTAN,253.2,1.0,CCCS,didier14
12333,12753,"1,2-DICHLOROETHANE",286.0,1.0,ClCCCl,didier14
12334,12754,2-CHLOROETHANOL,313.7,1.0,OCCCl,didier14
12335,12755,"2,2,4,4-TETRAMETHYLPENTANE",276.0,1.0,CC(C)(C)CC(C)(C)C,didier14
12336,12756,PROPIONITRILE,275.0,1.0,CCC#N,didier14
12337,12757,"2,2-DIMETHYLHEPTANE",297.0,1.0,CCCCCC(C)(C)C,didier14
12338,12758,ETHYLENEDIAMINE,306.1,1.0,NCCN,didier14
12339,12759,ETHYLENE GLYCOL,383.1,1.0,OCCO,didier14
12340,12760,"2,7-DIMETHYLOCTANE",306.0,1.0,CC(C)CCCCC(C)C,didier14
12341,12761,GLYOXAL,262.0,1.0,O=CC=O,didier14
12342,12762,CHLOROMETHYL METHYL ETHER,255.0,1.0,COCCl,didier14
12343,12763,HEXYLENE GLYCOL,366.0,1.0,OCCCCCCO,didier14
12344,12764,n-HEXYLBENZENE,353.1,1.0,CCCCCCc1ccccc1,didier14
12345,12765,n-HEPTYLBENZENE,368.1,1.0,CCCCCCCc1ccccc1,didier14
12346,12766,2-PENTANONE,280.0,1.0,CCCC(C)=O,didier14
12347,12767,"1,3-BUTANEDIOL",382.0,1.0,CC(O)CCO,didier14
12348,12768,n-BUTYRIC ACID,345.0,1.0,CCCC(=O)O,didier14
12349,12769,PROPYLENE GLYCOL MONOMETHYL ETHER,305.0,1.0,COCC(C)O,didier14
12350,12770,1-NITROPROPANE,306.1,1.0,CCC[N+](=O)[O-],didier14
12351,12771,METHYL ISOBUTYL KETONE,286.1,1.0,CC(=O)CC(C)C,didier14
12352,12772,4-METHYL-2-PENTANOL,314.0,1.0,CC(C)CC(C)O,didier14
12353,12773,DIISOPROPYLAMINE,266.1,1.0,CC(C)NC(C)C,didier14
12354,12774,DIISOPROPYL ETHER,245.0,1.0,CC(C)OC(C)C,didier14
12355,12775,m-XYLENE,298.1,1.0,Cc1cccc(C)c1,didier14
12356,12776,m-CRESOL,368.0,1.0,Cc1cccc(O)c1,didier14
12357,12777,m-CHLOROANILINE,378.0,1.0,Nc1cccc(Cl)c1,didier14
12358,12778,m-CHLOROPHENOL,364.0,1.0,Oc1cccc(Cl)c1,didier14
12359,12779,m-TOLUIDINE,359.1,1.0,Cc1cccc(N)c1,didier14
12360,12780,m-PHENYLENEDIAMINE,411.1,1.0,Nc1cccc(N)c1,didier14
12361,12781,"1,3-BENZENEDIOL",400.0,1.0,Oc1cccc(O)c1,didier14
12362,12782,"2,6-DIMETHYLPYRIDINE",306.0,1.0,Cc1cccc(C)n1,didier14
12363,12783,DIMETHYLMALONATE,363.1,1.0,CC(C)(C(=O)[O-])C(=O)[O-],didier14
12364,12784,PROPYLENE GLYCOL MONOMETHYL ETHER ACETATE,316.0,1.0,COCC(C)OC(C)=O,didier14
12365,12785,MESITYLENE,317.6,1.0,Cc1cc(C)cc(C)c1,didier14
12366,12786,DIISOBUTYL KETONE,322.1,1.0,CC(C)CC(=O)CC(C)C,didier14
12367,12787,METHYLCYCLOHEXANE,267.1,1.0,CC1CCCCC1,didier14
12368,12788,TOLUENE,277.1,1.0,Cc1ccccc1,didier14
12369,12789,4-METHYLPYRIDINE,329.1,1.0,Cc1ccncc1,didier14
12370,12790,CYCLOHEXYLAMINE,304.1,1.0,NC1CCCCC1,didier14
12371,12791,CYCLOHEXANOL,341.0,1.0,OC1CCCCC1,didier14
12372,12792,PHENOL,353.0,1.0,Oc1ccccc1,didier14
12373,12793,3-METHYLPYRIDINE,309.1,1.0,Cc1cccnc1,didier14
12374,12794,2-METHYLPYRIDINE,299.1,1.0,Cc1ccccn1,didier14
12375,12795,n-BUTYL n-BUTYRATE,326.5,1.0,CCCCOC(=O)CCC,didier14
12376,12796,DIBUTYL SEBACATE,451.1,1.0,CCCCOC(=O)CCCCCCCCC(=O)OCCCC,didier14
12377,12797,n-PENTANOIC ACID,358.1,1.0,CCCCC(=O)O,didier14
12378,12798,n-PROPYL ACETATE,288.0,1.0,CCCOC(C)=O,didier14
12379,12799,n-PENTANE,233.2,1.0,CCCCC,didier14
12380,12800,1-PENTENE,219.0,1.0,C=CCCC,didier14
12381,12801,n-BUTYL CHLORIDE,263.8,1.0,CCCCCl,didier14
12382,12802,n-BUTYRONITRILE,289.1,1.0,CCCC#N,didier14
12383,12803,"1,3-PROPANEDIAMINE",321.1,1.0,NCCCN,didier14
12384,12804,MALONONITRILE,385.1,1.0,N#CCC#N,didier14
12385,12805,HYDRACRYLONITRILE,383.1,1.0,N#CCCO,didier14
12386,12806,n-BUTYL MERCAPTAN,274.8,1.0,CCCCS,didier14
12387,12807,METHYLETHANOLAMINE,345.1,1.0,CC(O)CN,didier14
12388,12808,2-METHOXYETHANOL,312.0,1.0,COCCO,didier14
12389,12809,METHYLAL,255.0,1.0,COCOC,didier14
12390,12810,DIETHYLAMINE,234.2,1.0,CCNCC,didier14
12391,12811,DI-t-BUTYL PEROXIDE,291.0,1.0,CC(C)(C)OOC(C)(C)C,didier14
12392,12812,5-METHYL-2-HEXANONE,309.1,1.0,CC(=O)CCC(C)C,didier14
12393,12813,SUCCINIC ACID,489.0,1.0,O=C(O)CCC(=O)O,didier14
12394,12814,FUMARIC ACID,471.0,1.0,O=C(O)/C=C/C(=O)O,didier14
12395,12815,ISOBUTYL ACETATE,291.0,1.0,CC(=O)OCC(C)C,didier14
12396,12816,DIHEXYL ADIPATE,464.0,1.0,CCCCCCOC(=O)CCCCC(=O)OCCCCCC,didier14
12397,12817,METHYL DECANOATE,367.1,1.0,CCCCCCCCCC(=O)OC,didier14
12398,12818,2-HEPTANONE,312.1,1.0,CCCCCC(C)=O,didier14
12399,12819,n-HEXANE,251.5,1.0,CCCCCC,didier14
12400,12820,"1,4-DICHLOROBUTANE",313.1,1.0,ClCCCCCl,didier14
12401,12821,"1,4-DICHLORO-trans-2-BUTENE",326.1,1.0,ClC/C=C/CCl,didier14
12402,12822,n-PENTYLAMINE,272.1,1.0,CCCCCN,didier14
12403,12823,SUCCINONITRILE,405.0,1.0,N#CCCC#N,didier14
12404,12824,PENTANAL,285.1,1.0,CCCCC=O,didier14
12405,12825,"1,4-BUTANEDIOL",407.1,1.0,OCCCCO,didier14
12406,12826,n-PENTYL MERCAPTAN,291.0,1.0,CCCCCS,didier14
12407,12827,3-METHOXYPROPIONITRILE,338.1,1.0,COCCC#N,didier14
12408,12828,"1,2-DIMETHOXYETHANE",271.5,1.0,COCCOC,didier14
12409,12829,2-ETHOXYETHANOL,316.0,1.0,CCOCCO,didier14
12410,12830,CYCLOHEXANE,253.2,1.0,C1CCCCC1,didier14
12411,12831,PYRIDINE,293.1,1.0,c1ccncc1,didier14
12412,12832,GLUTARIC ACID,482.0,1.0,O=C(O)CCCC(=O)O,didier14
12413,12833,DIGLYCOLIC ACID,500.0,1.0,O=C(O)COCC(=O)O,didier14
12414,12834,SQUALANE,490.0,1.0,CC(C)CCCC(C)CCCC(C)CCCCC(C)CCCC(C)CCCC(C)C,didier14
12415,12835,2-OCTANONE,324.1,1.0,CCCCCCC(C)=O,didier14
12416,12836,n-HEPTANOIC ACID,382.0,1.0,CCCCCCC(=O)O,didier14
12417,12837,2-ETHOXYETHYL ACETATE,328.0,1.0,CCOCCOC(C)=O,didier14
12418,12838,PIMELIC ACID,488.0,1.0,O=C(O)CCCCCC(=O)O,didier14
12419,12839,SEBACIC ACID,496.0,1.0,O=C(O)CCCCCCCCC(=O)O,didier14
12420,12840,n-HEXYLAMINE,281.1,1.0,CCCCCCN,didier14
12421,12841,1-HEXANOL,333.0,1.0,CCCCCCO,didier14
12422,12842,"1,5-PENTANEDIOL",402.1,1.0,OCCCCCO,didier14
12423,12843,GLUTARALDEHYDE,355.0,1.0,O=CCCCC=O,didier14
12424,12844,n-HEXYL MERCAPTAN,293.1,1.0,CCCCCCS,didier14
12425,12845,BUTYL VINYL ETHER,272.0,1.0,C=COCCCC,didier14
12426,12846,DIETHYLENETRIAMINE,372.0,1.0,NCCNCCN,didier14
12427,12847,N-AMINOETHYL ETHANOLAMINE,375.0,1.0,NCCNCCO,didier14
12428,12848,DIETHANOLAMINE,425.0,1.0,OCCNCCO,didier14
12429,12849,DI(2-CHLOROETHYL)ETHER,328.1,1.0,ClCCOCCCl,didier14
12430,12850,DIETHYLENE GLYCOL,397.0,1.0,OCCOCCO,didier14
12431,12851,HYDROXYPIVALYL HYDROXYPIVALATE,426.0,1.0,CC(C)(CO)C(=O)OC(=O)C(C)(C)CO,didier14
12432,12852,ETHYLENE GLYCOL DIACETATE,361.1,1.0,CC(=O)OCCOC(C)=O,didier14
12433,12853,n-OCTANE,286.0,1.0,CCCCCCCC,didier14
12434,12854,1-OCTENE,281.0,1.0,C=CCCCCCC,didier14
12435,12855,HEPTANAL,308.1,1.0,CCCCCCC=O,didier14
12436,12856,2-BUTOXYETHANOL,333.1,1.0,CCCCOCCO,didier14
12437,12857,2-(2-METHOXYETHOXY)ETHANOL,357.0,1.0,COCCOCCO,didier14
12438,12858,n-NONANE,304.0,1.0,CCCCCCCCC,didier14
12439,12859,1-OCTANOL,357.0,1.0,CCCCCCCCO,didier14
12440,12860,2-(2-ETHOXYETHOXY)ETHANOL,356.4,1.0,CCOCCOCCO,didier14
12441,12861,DI-(2-CHLOROETHOXY)METHANE,383.1,1.0,ClCCOCOCCCl,didier14
12442,12862,DI-n-BUTYLAMINE,312.1,1.0,CCCCNCCCC,didier14
12443,12863,DIETHYLENE GLYCOL DIMETHYL ETHER,335.9,1.0,COCCOCCOC,didier14
12444,12864,"1,4-DICYANO-2-BUTENE",418.0,1.0,N#CCC=CCC#N,didier14
12445,12865,n-UNDECANE,338.1,1.0,CCCCCCCCCCC,didier14
12446,12866,ETHYLENE GLYCOL MONOBUTYL ETHER ACETATE,344.1,1.0,CCCCOCCOC(C)=O,didier14
12447,12867,n-OCTYL ACETATE,359.1,1.0,CCCCCCCCOC(C)=O,didier14
12448,12868,DIETHYLENE GLYCOL ETHYL ETHER ACETATE,380.0,1.0,CCOCCOCCOC(C)=O,didier14
12449,12869,n-DECYL ACETATE,377.0,1.0,CCCCCCCCCCOC(C)=O,didier14
12450,12870,TRIETHYLENETETRAMINE,408.1,1.0,NCCNCCNCCN,didier14
12451,12871,2-HEXOXYETHANOL,355.0,1.0,CCCCCCOCCO,didier14
12452,12872,TRIETHYLENE GLYCOL,429.1,1.0,OCCOCCOCCO,didier14
12453,12873,CYCLOPENTYLACETIC ACID,382.1,1.0,O=C(O)CC1CCCC1,didier14
12454,12874,1-DECANOL,355.4,1.0,CCCCCCCCCCO,didier14
12455,12875,DECANAL,358.1,1.0,CCCCCCCCCC=O,didier14
12456,12876,n-OCTYL FORMATE,337.0,1.0,CCCCCCCCOC=O,didier14
12457,12877,2-(2-BUTOXYETHOXY)ETHANOL,351.0,1.0,CCCCOCCOCCO,didier14
12458,12878,TRIETHYLENE GLYCOL MONOMETHYL ETHER,387.6,1.0,COCCOCCOCCO,didier14
12459,12879,DIETHYLENE GLYCOL DIETHYL ETHER,355.1,1.0,CCOCCOCCOCC,didier14
12460,12880,1-DODECENE,340.0,1.0,C=CCCCCCCCCCC,didier14
12461,12881,1-UNDECANOL,388.0,1.0,CCCCCCCCCCCO,didier14
12462,12882,UNDECANAL,369.1,1.0,CCCCCCCCCCC=O,didier14
12463,12883,"DECAN-1,10-DIOL",425.1,1.0,OCCCCCCCCCCO,didier14
12464,12884,TRIETHYLENE GLYCOL DIMETHYL ETHER,383.1,1.0,COCCOCCOCCOC,didier14
12465,12885,TRIETHYLENE GLYCOL MONOETHYL ETHER,408.1,1.0,CCOCCOCCOCCO,didier14
12466,12886,1-DODECANOL,398.0,1.0,CCCCCCCCCCCCO,didier14
12467,12887,DODECANAL,374.1,1.0,CCCCCCCCCCCC=O,didier14
12468,12888,TETRAETHYLENEPENTAMINE,436.0,1.0,NCCNCCNCCNCCN,didier14
12469,12889,2-(2-HEXOXYETHOXY)ETHANOL,408.1,1.0,CCCCCCOCCOCCO,didier14
12470,12890,TETRAETHYLENE GLYCOL,469.0,1.0,OCCOCCOCCOCCO,didier14
12471,12891,1-TETRADECANOL,416.0,1.0,CCCCCCCCCCCCCCO,didier14
12472,12892,DIETHYLENE GLYCOL DI-n-BUTYL ETHER,391.1,1.0,CCCCOCCOCCOCCCC,didier14
12473,12893,1-ETHYLNAPHTHALENE,384.1,1.0,CCc1cccc2ccccc12,didier14
12474,12894,1-OCTADECENE,421.1,1.0,C=CCCCCCCCCCCCCCCCC,didier14
12475,12895,"2,6-NAPHTHALENEDICARBOXYLIC ACID",544.0,1.0,O=C(O)c1ccc2cc(C(=O)O)ccc2c1,didier14
12476,12896,PROPYLENE,165.0,1.0,C=CC,didier14
12477,12897,PENTAERYTHRITOL,533.1,1.0,OCC(CO)(CO)CO,didier14
12478,12898,DIOCTYL PHTHALATE,489.0,1.0,CCCCCCCCOC(=O)c1ccccc1C(=O)OCCCCCCCC,didier14
12479,12899,"2,2,3,4-TETRAMETHYLPENTANE",284.0,1.0,CC(C)C(C)C(C)(C)C,didier14
12480,12900,o-CHLOROBENZOIC ACID,435.0,1.0,O=C(O)c1ccccc1Cl,didier14
12481,12901,2-HYDROXYACETOPHENONE,371.1,1.0,O=C(CO)c1ccccc1,didier14
12482,12902,6-HYDROXYHEXANOIC ACID,444.0,1.0,O=C(O)CCCCCO,didier14
12483,12903,PENTAETHYLENE GLYCOL DIMETHYL ETHER,468.0,1.0,COCCOCCOCCOCCOCCOC,didier14
12484,12904,METHYL SALICYLATE,369.0,1.0,COC(=O)c1ccccc1O,didier14
12485,12905,ISOQUINOLINE,380.1,1.0,c1ccc2cnccc2c1,didier14
12486,12906,2-FORMYL BENZOIC ACID,436.0,1.0,O=Cc1ccccc1C(=O)O,didier14
12487,12907,DIMETHYL TEREPHTHALATE,414.1,1.0,COC(=O)c1ccc(C(=O)OC)cc1,didier14
12488,12908,"1,2-BENZENEDIOL",400.0,1.0,Oc1ccccc1O,didier14
12489,12909,"1,2,4-TRICHLOROBENZENE",378.7,1.0,Clc1ccc(Cl)c(Cl)c1,didier14
12490,12910,ETHYL VANILLIN,445.0,1.0,CCOc1cc(C=O)ccc1O,didier14
12491,12911,VANILLIN,432.0,1.0,COc1cc(C=O)ccc1O,didier14
12492,12912,TRIETHYLAMINE,258.1,1.0,CCN(CC)CC,didier14
12493,12913,"N,N-DIMETHYLANILINE",335.1,1.0,CN(C)c1ccccc1,didier14
12494,12914,m-CHLORONITROBENZENE,400.1,1.0,O=[N+]([O-])c1cccc(Cl)c1,didier14
12495,12915,ISOPHTHALIC ACID,601.0,1.0,O=C(O)c1cccc(C(=O)O)c1,didier14
12496,12916,HYDRAZOBENZENE,503.0,1.0,c1ccc(NNc2ccccc2)cc1,didier14
12497,12917,p-ETHYLPHENOL,373.1,1.0,CCc1ccc(O)cc1,didier14
12498,12918,p-HYDROXYBENZALDEHYDE,445.0,1.0,O=Cc1ccc(O)cc1,didier14
12499,12919,4-HEPTANONE,321.1,1.0,CCCC(=O)CCC,didier14
12500,12920,DIETHYL SUCCINATE,363.0,1.0,CCOC(=O)CCC(=O)OCC,didier14
12501,12921,PROPANAL,243.2,1.0,CCC=O,didier14
12502,12922,N-METHYLFORMAMIDE,376.0,1.0,CNC=O,didier14
12503,12923,DIACETONE ALCOHOL,331.0,1.0,CC(=O)CC(C)(C)O,didier14
12504,12924,3-METHYL-1-BUTANOL,316.0,1.0,CC(C)CCO,didier14
12505,12925,ACETYLACETONE,307.1,1.0,CC(=O)CC(C)=O,didier14
12506,12926,BUTANAL,262.1,1.0,CCCC=O,didier14
12507,12927,LEVULINIC ACID,410.0,1.0,CC(=O)CCC(=O)O,didier14
12508,12928,DIOCTYL ADIPATE,500.1,1.0,CCCCCCCCOC(=O)CCCCC(=O)OCCCCCCCC,didier14
12509,12929,n-BUTYL ACETATE,295.0,1.0,CCCCOC(C)=O,didier14
12510,12930,n-BUTYL STEARATE,433.1,1.0,CCCCCCCCCCCCCCCCCC(=O)OCCCC,didier14
12511,12931,2-OCTANOL,344.3,1.0,CCCCCCC(C)O,didier14
12512,12932,AZELAIC ACID,492.0,1.0,O=C(O)CCCCCCCC(=O)O,didier14
12513,12933,n-OCTANOIC ACID,393.0,1.0,CCCCCCCC(=O)O,didier14
12514,12934,HEXAMETHYLENEDIAMINE,366.0,1.0,NCCCCCCN,didier14
12515,12935,1-NONENE,295.0,1.0,C=CCCCCCCC,didier14
12516,12936,OCTANAL,324.1,1.0,CCCCCCCC=O,didier14
12517,12937,DIETHYLENE GLYCOL MONOBUTYL ETHER ACETATE,375.1,1.0,CCCCOCCOCCOC(C)=O,didier14
12518,12938,n-DECANE,319.0,1.0,CCCCCCCCCC,didier14
12519,12939,NONANAL,336.1,1.0,CCCCCCCCC=O,didier14
12520,12940,DIMETHYLAMINE,223.2,1.0,CNC,didier14
12521,12941,NEOPENTYL GLYCOL,371.1,1.0,CC(C)(CO)CO,didier14
12522,12942,PYRUVIC ACID,355.1,1.0,CC(=O)C(=O)O,didier14
12523,12943,"N,N-DIMETHYLACETAMIDE",336.1,1.0,CC(=O)N(C)C,didier14
12524,12944,PYRENE,472.0,1.0,c1cc2ccc3cccc4ccc(c1)c2c34,didier14
12525,12945,DIMETHYL PHTHALATE,419.0,1.0,COC(=O)c1ccccc1C(=O)OC,didier14
12526,12946,DI-n-PROPYL PHTHALATE,433.0,1.0,CCCOC(=O)c1ccccc1C(=O)OCCC,didier14
12527,12947,trans-3-HEXENE,261.1,1.0,CC/C=C/CC,didier14
12528,12948,DIPROPYLENE GLYCOL t-BUTYL ETHER,392.0,1.0,CC(CO)OCC(C)OC(C)(C)C,didier14
12529,12949,1-PENTADECENE,385.0,1.0,C=CCCCCCCCCCCCCC,didier14
12530,12950,trans-2-OCTENE,294.3,1.0,C/C=C/CCCCC,didier14
12531,12951,o-DIETHYLBENZENE,330.4,1.0,CCc1ccccc1CC,didier14
12532,12952,sec-BUTYLBENZENE,325.0,1.0,CCC(C)c1ccccc1,didier14
12533,12953,2-METHYL-1-BUTANOL,316.1,1.0,CCC(C)CO,didier14
12534,12954,ACETOXYACETIC ACID,440.0,1.0,CC(=O)OCC(=O)O,didier14
12535,12955,sec-BUTYLAMINE,244.3,1.0,CCC(C)N,didier14
12536,12956,"trans-1,4-DIETHYLCYCLOHEXANE",320.0,1.0,CC[C@H]1CC[C@H](CC)CC1,didier14
12537,12957,DIETHYL MALEATE,366.1,1.0,CCOC(=O)/C=C\C(=O)OCC,didier14
12538,12958,MONOETHANOLAMINE,358.1,1.0,NCCO,didier14
12539,12959,GLYCOL ALDEHYDE,360.0,1.0,O=CCO,didier14
12540,12960,ETHYL ACETATE,269.0,1.0,CCOC(C)=O,didier14
12541,12961,MALONIC ACID,496.0,1.0,O=C(O)CC(=O)O,didier14
12542,12962,m-DIETHYLBENZENE,329.0,1.0,CCc1cccc(CC)c1,didier14
12543,12963,ETHYL ACETOACETATE,330.4,1.0,CCOC(=O)CC(C)=O,didier14
12544,12964,"1,3-DICHLOROPROPANE",294.1,1.0,ClCCCCl,didier14
12545,12965,n-HEXANOIC ACID,375.0,1.0,CCCCCC(=O)O,didier14
12546,12966,n-HEPTANE,269.0,1.0,CCCCCCC,didier14
12547,12967,DI-n-PROPYLAMINE,290.1,1.0,CCCNCCC,didier14
12548,12968,n-DODECANOIC ACID,430.0,1.0,CCCCCCCCCCCC(=O)O,didier14
12549,12969,1-NONANOL,368.0,1.0,CCCCCCCCCO,didier14
12550,12970,n-NONYL ACETATE,372.1,1.0,CCCCCCCCCOC(C)=O,didier14
12551,12971,TRIETHYLENE GLYCOL n-BUTYL ETHER,416.0,1.0,CCCCOCCOCCOCCO,didier14
12552,12972,TETRAETHYLENE GLYCOL DIMETHYL ETHER,414.1,1.0,COCCOCCOCCOCCOC,didier14
12553,12973,"2,2,4-TRIMETHYL-1,3-PENTANEDIOL",383.1,1.0,CC(C)C(O)C(C)(C)CO,didier14
12554,12974,DIMETHYL ISOPHTHALATE,411.1,1.0,COC(=O)c1cccc(C(=O)OC)c1,didier14
12555,12975,trans-2-HEPTENE,272.0,1.0,C/C=C/CCCC,didier14
12556,12976,trans-3-HEPTENE,267.1,1.0,CC/C=C/CCC,didier14
12557,12977,"1,4-DICHLORO-cis-2-BUTENE",323.0,1.0,ClC/C=C\CCl,didier14