,compound,flashpoint,pure substance,smiles,source
12390,n-HEXADECYLBENZENE,466.0,1.0,CCCCCCCCCCCCCCCCc1ccccc1,didier14
12391,n-TETRADECYLBENZENE,447.0,1.0,CCCCCCCCCCCCCCc1ccccc1,didier14
12392,n-HEPTADECYLBENZENE,472.0,1.0,CCCCCCCCCCCCCCCCCc1ccccc1,didier14
12393,"1,1,2-TRIPHENYLETHANE",441.0,1.0,c1ccc(CC(c2ccccc2)c2ccccc2)cc1,didier14
12394,METHYL ISOPROPYL SULFIDE,262.0,1.0,CSC(C)C,didier14
12395,p-PHENETIDINE,389.0,1.0,CCOc1ccc(N)cc1,didier14
12396,IBUPROFEN,436.0,1.0,CC(C)Cc1ccc(C(C)C(=O)O)cc1,didier14
12397,"cis-1,3-PENTADIENE",232.0,1.0,C=C/C=C\C,didier14
12398,cis-CROTONALDEHYDE,281.1,1.0,C/C=C\C=O,didier14
12399,"2,2-DIMETHYLOCTANE",304.0,1.0,CCCCCCC(C)(C)C,didier14
12400,"2,5-DIMETHYLOCTANE",306.0,1.0,CCCC(C)CCC(C)C,didier14
12401,2-METHYL-1-HEPTENE,283.1,1.0,C=C(C)CCCCC,didier14
12402,p-ISOPROPENYLSTYRENE,360.0,1.0,C=Cc1ccc(C(=C)C)cc1,didier14
12403,2-ETHYL-1-HEXENE,279.0,1.0,C=C(CC)CCCC,didier14
12404,"1,9-DECADIENE",316.0,1.0,C=CCCCCCCC=C,didier14
12405,"2,3-DIMETHYL-1-HEXENE",281.0,1.0,C=C(C)C(C)CCC,didier14
12406,"2,2-DIMETHYL-3-ETHYLPENTANE",286.0,1.0,CCC(CC)C(C)(C)C,didier14
12407,"1,2-DIMETHYL-3-PROPYLBENZENE",345.0,1.0,CCCc1cccc(C)c1C,didier14
12408,p-tert-BUTYLSTYRENE,352.0,1.0,C=Cc1ccc(C(C)(C)C)cc1,didier14
12409,2-ETHYL-p-XYLENE,329.0,1.0,CCc1cc(C)ccc1C,didier14
12410,"1,2,4-TRIMETHYL-5-ETHYLBENZENE",347.0,1.0,CCc1cc(C)c(C)cc1C,didier14
12411,N-ETHYL-2-METHYLALLYLAMINE,280.1,1.0,C=C(C)CNCC,didier14
12412,1-NONADECENE,430.0,1.0,C=CCCCCCCCCCCCCCCCCC,didier14
12413,ISOPROPYL BUTYL ETHER,277.0,1.0,CCCCOC(C)C,didier14
12414,"2,3-DIMETHYL-2,3-DIPHENYLBUTANE",412.0,1.0,CC(C)(c1ccccc1)C(C)(C)c1ccccc1,didier14
12415,1-ETHYL-2-ISOPROPYLBENZENE,331.0,1.0,CCc1ccccc1C(C)C,didier14
12416,1-METHYL-3-(METHYLETHOXY)BENZENE,339.0,1.0,Cc1cccc(OC(C)C)c1,didier14
12417,3-METHYLHEXANAL,303.0,1.0,CCCC(C)CC=O,didier14
12418,"trans-1,3-PENTADIENE",230.0,1.0,C=C/C=C/C,didier14
12419,trans-2-DECENE,319.0,1.0,C/C=C/CCCCCCC,didier14
12420,n-TETRADECYLAMINE,406.0,1.0,CCCCCCCCCCCCCCN,didier14
12421,n-DECYLAMINE,358.1,1.0,CCCCCCCCCCN,didier14
12422,"trans-1,3-HEXADIENE",254.2,1.0,C=C/C=C/CC,didier14
12423,ETHYL METHYL DISULFIDE,299.0,1.0,CCSSC,didier14
12424,cis-2-DECENE,320.0,1.0,C/C=C\CCCCCCC,didier14
12425,DIAMYLAMINE,325.1,1.0,CCCCCNCCCCC,didier14
12426,"2,6-DIMETHYLOCTANE",307.0,1.0,CCC(C)CCCC(C)C,didier14
12427,2-PENTANETHIOL,282.5,1.0,CCCC(C)S,didier14
12428,2-BUTYL-1-DECANOL,422.0,1.0,CCCCCCCCC(CO)CCCC,didier14
12429,n-PENTADECYLBENZENE,456.0,1.0,CCCCCCCCCCCCCCCc1ccccc1,didier14
12430,n-OCTYLBENZENE,380.1,1.0,CCCCCCCCc1ccccc1,didier14
12431,n-PROPYL METHACRYLATE,304.0,1.0,C=C(C)C(=O)OCCC,didier14
12432,2-METHYL-DODECAN-1-OL,404.0,1.0,CCCCCCCCCCC(C)CO,didier14
12433,n-PROPYL BENZOATE,371.1,1.0,CCCOC(=O)c1ccccc1,didier14
12434,1-TRIDECENE,352.1,1.0,C=CCCCCCCCCCCC,didier14
12435,DINONYL ETHER,430.0,1.0,CCCCCCCCCOCCCCCCCCC,didier14
12436,CETYL METHACRYLATE,452.0,1.0,C=C(C)C(=O)OCCCCCCCCCCCCCCCC,didier14
12437,NONYLPHENOL,411.0,1.0,CCCCCCCCCc1ccccc1O,didier14
12438,3-ETHYL HEPTANAL,328.0,1.0,CCCCC(CC)CC=O,didier14
12439,4-HYDROXYSTYRENE,377.0,1.0,C=Cc1ccc(O)cc1,didier14
12440,8-METHYL-1-NONENE,316.0,1.0,C=CCCCCCC(C)C,didier14
12441,DI-n-OCTYL SULFIDE,428.0,1.0,CCCCCCCCSCCCCCCCC,didier14
12442,2-ETHYL-m-XYLENE,331.0,1.0,CCc1c(C)cccc1C,didier14
12443,PYRIMIDINE,304.1,1.0,c1cncnc1,didier14
12444,2-METHYL-1-NONENE,315.0,1.0,C=C(C)CCCCCCC,didier14
12445,sec-BUTYL ACRYLATE,299.6,1.0,C=CC(=O)OC(C)CC,didier14
12446,2-METHYLOCTANOIC ACID,391.0,1.0,CCCCCCC(C)C(=O)O,didier14
12447,ETHYL PROPYL DISULFIDE,324.0,1.0,CCCSSCC,didier14
12448,1-METHYL-3-HYDROXY-6-ISOPROPYL BENZENE,378.0,1.0,Cc1cc(O)ccc1C(C)C,didier14
12449,1-METHYL-3-HYDROXY-5-ISOPROPYL BENZENE,383.1,1.0,Cc1cc(O)cc(C(C)C)c1,didier14
12450,2-METHYL-1-TRIDECANOL,422.0,1.0,CCCCCCCCCCCC(C)CO,didier14
12451,3-(METHYLMERCAPTO)PROPANAL,334.1,1.0,CSCCC=O,didier14
12452,sec-BUTYL-tert-BUTYL ETHER,276.0,1.0,CCC(C)OC(C)(C)C,didier14
12453,ISOBUTYL-tert-BUTYL ETHER,276.0,1.0,CC(C)COC(C)(C)C,didier14
12454,VINYL PIVALATE,282.1,1.0,C=COC(=O)C(C)(C)C,didier14
12455,3-ETHYL-1-HEXENE,274.0,1.0,C=CC(CC)CCC,didier14
12456,2-ETHYL-1-PENTENE,263.0,1.0,C=C(CC)CCC,didier14
12457,1-EICOSENE,440.0,1.0,C=CCCCCCCCCCCCCCCCCCC,didier14
12458,p-ETHYLSTYRENE,334.0,1.0,C=Cc1ccc(CC)cc1,didier14
12459,5-METHYL-1-HEXENE,257.0,1.0,C=CCCC(C)C,didier14
12460,3-ETHYL-1-HEPTANOL,363.0,1.0,CCCCC(CC)CCO,didier14
12461,DIETHYL SULFIDE,263.1,1.0,CCSCC,didier14
12462,1-HEXADECANOL,427.1,1.0,CCCCCCCCCCCCCCCCO,didier14
12463,ETHYL n-OCTYL SULFIDE,366.0,1.0,CCCCCCCCSCC,didier14
12464,"N,N-DIETHYLHYDROXYLAMINE",318.1,1.0,CCN(O)CC,didier14
12465,4-METHYL-1-HEXENE,258.0,1.0,C=CCC(C)CC,didier14
12466,4-METHYL-1-OCTANOL,358.0,1.0,CCCCC(C)CCCO,didier14
12467,6-METHYL-1-OCTANOL,360.0,1.0,CCC(C)CCCCCO,didier14
12468,METHYL n-PROPYL SULFIDE,270.0,1.0,CCCSC,didier14
12469,"1,2,3,5-TETRAETHYLBENZENE",376.0,1.0,CCc1cc(CC)c(CC)c(CC)c1,didier14
12470,2-BUTYL-OCTAN-1-OL,382.1,1.0,CCCCCCC(CO)CCCC,didier14
12471,"2,4-DIMETHYLOCTANE",304.0,1.0,CCCCC(C)CC(C)C,didier14
12472,3-ETHYL-1-PENTENE,256.0,1.0,C=CC(CC)CC,didier14
12473,trans-2-HEXENE,246.0,1.0,C/C=C/CCC,didier14
12474,"1,2,3-TRIETHYLBENZENE",352.0,1.0,CCc1cccc(CC)c1CC,didier14
12475,trans-2-EICOSENE,420.0,1.0,C/C=C/CCCCCCCCCCCCCCCCC,didier14
12476,"2,2,4,4,6,8,8-HEPTAMETHYLNONANE",368.1,1.0,CC(CC(C)(C)C)CC(C)(C)CC(C)(C)C,didier14
12477,n-OCTADECYLBENZENE,480.0,1.0,CCCCCCCCCCCCCCCCCCc1ccccc1,didier14
12478,4-NONANONE,335.0,1.0,CCCCCC(=O)CCC,didier14
12479,2-METHYLHEXANOIC ACID,375.0,1.0,CCCCC(C)C(=O)O,didier14
12480,2-METHYL-1-OCTENE,296.0,1.0,C=C(C)CCCCCC,didier14
12481,NEOPENTANE,201.0,1.0,CC(C)(C)C,didier14
12482,"2,2,3-TRIMETHYLBUTANE",249.0,1.0,CC(C)C(C)(C)C,didier14
12483,6-METHYL-1-HEPTENE,276.0,1.0,C=CCCCC(C)C,didier14
12484,cis-CROTONIC ACID,352.0,1.0,C/C=C\C(=O)O,didier14
12485,n-HEPTADECANOIC ACID,469.0,1.0,CCCCCCCCCCCCCCCCC(=O)O,didier14
12486,n-BUTYL NONANOATE,361.0,1.0,CCCCCCCCC(=O)OCCCC,didier14
12487,n-EICOSANIC ACID,490.0,1.0,CCCCCCCCCCCCCCCCCCCC(=O)O,didier14
12488,tert-BUTYL CHLORIDE,268.1,1.0,CC(C)(C)Cl,didier14
12489,sec-BUTYL MERCAPTAN,250.2,1.0,CCC(C)S,didier14
12490,"2,3-DIMETHYL-1,3-BUTADIENE",251.2,1.0,C=C(C)C(=C)C,didier14
12491,1-(4-ETHYLPHENYL)-2-(4-ETHYLPHENYL)ETHANE,409.0,1.0,CCc1ccc(CCc2ccc(CC)cc2)cc1,didier14
12492,2-BUTYL-NONAN-1-OL,404.0,1.0,CCCCCCCC(CO)CCCC,didier14
12493,"cis,trans-2,4-HEXADIENE",266.1,1.0,C/C=C\C=C\C,didier14
12494,"trans,trans-2,4-HEXADIENE",266.1,1.0,C/C=C/C=C/C,didier14
12495,TRIPHENYLMETHANE,449.0,1.0,c1ccc(C(c2ccccc2)c2ccccc2)cc1,didier14
12496,"1,2,3,5-TETRAMETHYLBENZENE",336.5,1.0,Cc1cc(C)c(C)c(C)c1,didier14
12497,o-CYMENE,326.1,1.0,Cc1ccccc1C(C)C,didier14
12498,o-TOLUALDEHYDE,340.1,1.0,Cc1ccccc1C=O,didier14
12499,UNDECYL MERCAPTAN,381.0,1.0,CCCCCCCCCCCS,didier14
12500,m-CYMENE,323.1,1.0,Cc1cccc(C(C)C)c1,didier14
12501,ISOBUTYLBENZENE,325.1,1.0,CC(C)Cc1ccccc1,didier14
12502,BENZYL ETHYL ETHER,332.0,1.0,CCOCc1ccccc1,didier14
12503,PROPYL CHLORIDE,255.4,1.0,CCCCl,didier14
12504,METHYL ETHYL ETHER,236.0,1.0,CCOC,didier14
12505,"2,2,4-TRIMETHYLPENTANE",261.0,1.0,CC(C)CC(C)(C)C,didier14
12506,tert-BUTYL ACETATE,287.2,1.0,CC(=O)OC(C)(C)C,didier14
12507,ETHYL CHLOROFORMATE,275.1,1.0,CCOC(=O)Cl,didier14
12508,DIISOPENTYLSULFIDE,352.0,1.0,CC(C)CCSCCC(C)C,didier14
12509,DI-n-BUTYL SULFIDE,331.0,1.0,CCCCSCCCC,didier14
12510,n-TETRADECANOIC ACID,446.0,1.0,CCCCCCCCCCCCCC(=O)O,didier14
12511,n-DECYL FORMATE,367.0,1.0,CCCCCCCCCCOC=O,didier14
12512,n-NONYL FORMATE,353.0,1.0,CCCCCCCCCOC=O,didier14
12513,8-METHYL-1-NONANOL,377.6,1.0,CC(C)CCCCCCCO,didier14
12514,METHYL n-PROPYL ETHER,232.0,1.0,CCCOC,didier14
12515,2-CHLOROPROPENE,239.2,1.0,C=C(C)Cl,didier14
12516,"3,3-DIMETHYLPENTANE",254.0,1.0,CCC(C)(C)CC,didier14
12517,"3,3-DIMETHYLHEXANE",272.0,1.0,CCCC(C)(C)CC,didier14
12518,2-METHYL-1-BUTENE,221.0,1.0,C=C(C)CC,didier14
12519,"2,3-DIMETHYL-1-BUTENE",255.2,1.0,C=C(C)C(C)C,didier14
12520,"2,3-DIMETHYLPENTANE",258.0,1.0,CCC(C)C(C)C,didier14
12521,n-HEXADECANOIC ACID,461.0,1.0,CCCCCCCCCCCCCCCC(=O)O,didier14
12522,ETHYL n-HEXYL ETHER,303.0,1.0,CCCCCCOCC,didier14
12523,o-ETHYLANILINE,364.1,1.0,CCc1ccccc1N,didier14
12524,"2,6-DIETHYLANILINE",396.1,1.0,CCc1cccc(CC)c1N,didier14
12525,"2,3-DIMETHYLHEXANE",278.5,1.0,CCCC(C)C(C)C,didier14
12526,tert-BUTYL METHACRYLATE,300.1,1.0,C=C(C)C(=O)OC(C)(C)C,didier14
12527,TRIPHENYLETHYLENE,474.0,1.0,C(=C(c1ccccc1)c1ccccc1)c1ccccc1,didier14
12528,3-METHYLHEXANE,269.0,1.0,CCCC(C)CC,didier14
12529,3-HEXANONE,287.1,1.0,CCCC(=O)CC,didier14
12530,sec-BUTYL FORMATE,274.0,1.0,CCC(C)OC=O,didier14
12531,4-OCTANONE,318.1,1.0,CCCCC(=O)CCC,didier14
12532,cis-2-BUTENE,203.0,1.0,C/C=C\C,didier14
12533,"2,2-DIMETHYLPENTANE",258.1,1.0,CCCC(C)(C)C,didier14
12534,"2,2-DIMETHYLHEXANE",269.0,1.0,CCCCC(C)(C)C,didier14
12535,3-METHYLBUTYRALDEHYDE,268.0,1.0,CC(C)CC=O,didier14
12536,n-BUTYL VALERATE,336.0,1.0,CCCCOC(=O)CCCC,didier14
12537,2-METHYLHEXANE,250.0,1.0,CCCCC(C)C,didier14
12538,"1,4-PENTADIENE",218.0,1.0,C=CCC=C,didier14
12539,"1,5-HEXADIENE",227.2,1.0,C=CCCC=C,didier14
12540,"1,4-HEXADIENE",248.2,1.0,C=CCC=CC,didier14
12541,n-BUTYL FORMATE,291.0,1.0,CCCCOC=O,didier14
12542,DIALLYL SULFIDE,319.1,1.0,C=CCSCC=C,didier14
12543,n-OCTADECANE,438.1,1.0,CCCCCCCCCCCCCCCCCC,didier14
12544,2-METHYL-2-AMINOBUTANE,257.0,1.0,CCC(C)(C)N,didier14
12545,"2,3,3-TRIMETHYL-1-BUTENE",256.1,1.0,C=C(C)C(C)(C)C,didier14
12546,"2,2,3,3-TETRAMETHYLBUTANE",278.0,1.0,CC(C)(C)C(C)(C)C,didier14
12547,METHYL ISOPROPYL ETHER,225.0,1.0,COC(C)C,didier14
12548,p-CUMYLPHENOL,433.0,1.0,CC(C)(c1ccccc1)c1ccc(O)cc1,didier14
12549,2-PHENYLETHANOL,369.0,1.0,OCCc1ccccc1,didier14
12550,LINOLEIC ACID,467.0,1.0,CCCCC/C=C\C/C=C\CCCCCCCC(=O)O,didier14
12551,PENTAETHYLBENZENE,393.0,1.0,CCc1cc(CC)c(CC)c(CC)c1CC,didier14
12552,2-METHYL-3-ETHYLPENTANE,275.0,1.0,CCC(CC)C(C)C,didier14
12553,o-METHYLSTYRENE,320.1,1.0,C=Cc1ccccc1C,didier14
12554,"1,1-DIPHENYLETHANE",402.0,1.0,CC(c1ccccc1)c1ccccc1,didier14
12555,DI-tert-BUTYL ETHER,270.0,1.0,CC(C)(C)OC(C)(C)C,didier14
12556,"N,N-DIETHYLMETHYLAMINE",250.0,1.0,CCN(C)CC,didier14
12557,3-ETHYLPENTANE,261.0,1.0,CCC(CC)CC,didier14
12558,2-PHENYL-2-PROPANOL,360.1,1.0,CC(C)(O)c1ccccc1,didier14
12559,"1,2,3-TRIMETHYL-4-ETHYLBENZENE",346.0,1.0,CCc1ccc(C)c(C)c1C,didier14
12560,"1,2,4-TRIMETHYL-3-ETHYLBENZENE",346.0,1.0,CCc1c(C)ccc(C)c1C,didier14
12561,m-ETHYLPHENOL,367.1,1.0,CCc1cccc(O)c1,didier14
12562,m-TOLUALDEHYDE,351.1,1.0,Cc1cccc(C=O)c1,didier14
12563,TRIAMYLAMINE,376.0,1.0,CCCCCN(CCCCC)CCCCC,didier14
12564,p-METHYLSTYRENE,319.0,1.0,C=Cc1ccc(C)cc1,didier14
12565,2-METHYL-2-PENTENAL,304.1,1.0,CCC=C(C)C=O,didier14
12566,2-METHYL-1-HEXANOL,333.0,1.0,CCCCC(C)CO,didier14
12567,ETHYL ISOAMYL KETONE,318.0,1.0,CCC(=O)CCC(C)C,didier14
12568,trans-2-BUTENE,201.0,1.0,C/C=C/C,didier14
12569,DIMETHYL DISULFIDE,280.0,1.0,CSSC,didier14
12570,2-METHYL-2-PENTENE,246.0,1.0,CCC=C(C)C,didier14
12571,METHYL ISOBUTYL ETHER,243.0,1.0,COCC(C)C,didier14
12572,ETHYL ISOPROPYL ETHER,228.0,1.0,CCOC(C)C,didier14
12573,ETHYL ISOBUTYL ETHER,259.0,1.0,CCOCC(C)C,didier14
12574,cis-2-PENTENE,226.0,1.0,C/C=C\CC,didier14
12575,"2,5-DIMETHYL-1,5-HEXADIENE",280.0,1.0,C=C(C)CCC(=C)C,didier14
12576,5-METHYL-1-HEXANOL,340.0,1.0,CC(C)CCCCO,didier14
12577,METHYL n-BUTYL ETHER,263.1,1.0,CCCCOC,didier14
12578,DIISOBUTYL ETHER,281.1,1.0,CC(C)COCC(C)C,didier14
12579,METHYL n-PENTYL ETHER,271.0,1.0,CCCCCOC,didier14
12580,n-BUTYL ETHYL ETHER,277.1,1.0,CCCCOCC,didier14
12581,2-NONANOL,355.4,1.0,CCCCCCCC(C)O,didier14
12582,DI-n-PROPYL DISULFIDE,339.1,1.0,CCCSSCCC,didier14
12583,n-HEXYL FORMATE,317.0,1.0,CCCCCCOC=O,didier14
12584,n-PENTADECANE,387.0,1.0,CCCCCCCCCCCCCCC,didier14
12585,1-PENTADECANOL,424.0,1.0,CCCCCCCCCCCCCCCO,didier14
12586,DI-n-OCTYL ETHER,385.1,1.0,CCCCCCCCOCCCCCCCC,didier14
12587,n-HENEICOSANE,450.0,1.0,CCCCCCCCCCCCCCCCCCCCC,didier14
12588,1-EICOSANOL,467.0,1.0,CCCCCCCCCCCCCCCCCCCCO,didier14
12589,n-DOCOSANE,458.0,1.0,CCCCCCCCCCCCCCCCCCCCCC,didier14
12590,n-PENTACOSANE,475.0,1.0,CCCCCCCCCCCCCCCCCCCCCCCCC,didier14
12591,n-HEXACOSANE,475.0,1.0,CCCCCCCCCCCCCCCCCCCCCCCCCC,didier14
12592,TETRAPHENYLMETHANE,525.0,1.0,c1ccc(C(c2ccccc2)(c2ccccc2)c2ccccc2)cc1,didier14
12593,"1,1,2,2-TETRAPHENYLETHANE",448.0,1.0,c1ccc(C(c2ccccc2)C(c2ccccc2)c2ccccc2)cc1,didier14
12594,TETRAPHENYLETHYLENE,538.0,1.0,c1ccc(C(=C(c2ccccc2)c2ccccc2)c2ccccc2)cc1,didier14
12595,4-ISOBUTYLSTYRENE,373.0,1.0,C=Cc1ccc(CC(C)C)cc1,didier14
12596,tert-BUTYL ETHYL ETHER,254.0,1.0,CCOC(C)(C)C,didier14
12597,n-PENTYL FORMATE,300.0,1.0,CCCCCOC=O,didier14
12598,n-TRIDECANOIC ACID,438.0,1.0,CCCCCCCCCCCCC(=O)O,didier14
12599,n-TRICOSANE,467.0,1.0,CCCCCCCCCCCCCCCCCCCCCCC,didier14
12600,FORMIC ACID,321.1,1.0,O=CO,didier14
12601,n-PROPYL ISOBUTYRATE,302.0,1.0,CCCOC(=O)C(C)C,didier14
12602,cis-STILBENE,394.0,1.0,C(=C\c1ccccc1)\c1ccccc1,didier14
12603,2-ETHYL-2-HEXENAL,341.1,1.0,CCCC=C(C=O)CC,didier14
12604,n-NONADECANOIC ACID,483.0,1.0,CCCCCCCCCCCCCCCCCCC(=O)O,didier14
12605,n-TETRACOSANE,475.0,1.0,CCCCCCCCCCCCCCCCCCCCCCCC,didier14
12606,ISOPENTYL ISOVALERATE,345.0,1.0,CC(C)CCOC(=O)CC(C)C,didier14
12607,sec-BUTENYL ACETATE,288.0,1.0,C=C(CC)OC(C)=O,didier14
12608,n-UNDECYLBENZENE,417.0,1.0,CCCCCCCCCCCc1ccccc1,didier14
12609,4-METHYL-trans-2-PENTENE,239.0,1.0,C/C=C/C(C)C,didier14
12610,ACETONE,255.0,1.0,CC(C)=O,didier14
12611,1-HEPTADECENE,408.0,1.0,C=CCCCCCCCCCCCCCCC,didier14
12612,METHYL sec-BUTYL ETHER,244.0,1.0,CCC(C)OC,didier14
12613,DI-sec-BUTYL ETHER,288.0,1.0,CCC(C)OC(C)CC,didier14
12614,ISOPROPYL ACRYLATE,281.0,1.0,C=CC(=O)OC(C)C,didier14
12615,4-METHYL-1-PENTENE,234.0,1.0,C=CCC(C)C,didier14
12616,4-METHYL-cis-2-PENTENE,237.0,1.0,C/C=C\C(C)C,didier14
12617,VINYL FORMATE,254.0,1.0,C=COC=O,didier14
12618,DI-n-PENTYL ETHER,330.1,1.0,CCCCCOCCCCC,didier14
12619,1-PHENYL-2-PROPANOL,358.1,1.0,CC(O)Cc1ccccc1,didier14
12620,PENTAMETHYLBENZENE,364.1,1.0,Cc1cc(C)c(C)c(C)c1C,didier14
12621,"2,3-DIMETHYLOCTANE",309.0,1.0,CCCCCC(C)C(C)C,didier14
12622,trans-2-DODECENE,351.0,1.0,C/C=C/CCCCCCCCC,didier14
12623,cis-2-DODECENE,351.0,1.0,C/C=C\CCCCCCCCC,didier14
12624,UNDECYLAMINE,365.1,1.0,CCCCCCCCCCCN,didier14
12625,p-tert-BUTYL ETHYLBENZENE,343.0,1.0,CCc1ccc(C(C)(C)C)cc1,didier14
12626,1-(4-ETHYLPHENYL)-2-PHENYLETHANE,404.0,1.0,CCc1ccc(CCc2ccccc2)cc1,didier14
12627,trans-2-PENTADECENE,396.0,1.0,C/C=C/CCCCCCCCCCCC,didier14
12628,METHYL CHLORIDE,205.0,1.0,CCl,didier14
12629,METHYL MERCAPTAN,217.0,1.0,CS,didier14
12630,ETHYL CHLORIDE,223.2,1.0,CCCl,didier14
12631,VINYL CHLORIDE,195.0,1.0,C=CCl,didier14
12632,ETHYLAMINE,228.0,1.0,CCN,didier14
12633,ETHYL MERCAPTAN,225.0,1.0,CCS,didier14
12634,m-ETHYLSTYRENE,333.0,1.0,C=Cc1cccc(CC)c1,didier14
12635,ISOBUTANE,190.2,1.0,CC(C)C,didier14
12636,ACETYL CHLORIDE,278.0,1.0,CC(=O)Cl,didier14
12637,o-ETHYLSTYRENE,331.0,1.0,C=Cc1ccccc1CC,didier14
12638,tert-BUTYLAMINE,264.1,1.0,CC(C)(C)N,didier14
12639,"2,2-DIMETHYLBUTANE",225.0,1.0,CCC(C)(C)C,didier14
12640,"2,2-DIMETHYL-1-PROPANOL",300.0,1.0,CC(C)(C)CO,didier14
12641,NEOPENTANOIC ACID,336.1,1.0,CC(C)(C)C(=O)O,didier14
12642,2-ETHYL-1-BUTENE,247.2,1.0,C=C(CC)CC,didier14
12643,tert-BUTYL FORMATE,264.1,1.0,CC(C)(C)OC=O,didier14
12644,2-METHYL-1-PENTENE,241.0,1.0,C=C(C)CCC,didier14
12645,"2,5-DIMETHYL-2,4-HEXADIENE",297.1,1.0,CC(C)=CC=C(C)C,didier14
12646,cis-3-HEXENE,245.0,1.0,CC/C=C\CC,didier14
12647,cis-3-HEPTENE,264.0,1.0,CC/C=C\CCC,didier14
12648,cis-1-PROPENYLBENZENE,311.0,1.0,C/C=C\c1ccccc1,didier14
12649,cis-2-HEXENE,247.0,1.0,C/C=C\CCC,didier14
12650,alpha-METHYLBENZYL ALCOHOL FORMATE,349.0,1.0,CC(OC=O)c1ccccc1,didier14
12651,2-METHYL OCTANAL,328.0,1.0,CCCCCCC(C)C=O,didier14
12652,ISOPROPYL ISOBUTYL ETHER,268.0,1.0,CC(C)COC(C)C,didier14
12653,ISOPENTANE,217.2,1.0,CCC(C)C,didier14
12654,ISOPRENE,219.3,1.0,C=CC(=C)C,didier14
12655,2-METHYLPROPANAL,266.0,1.0,CC(C)C=O,didier14
12656,METHACROLEIN,275.1,1.0,C=C(C)C=O,didier14
12657,METHYL ETHYL KETONE,267.0,1.0,CCC(C)=O,didier14
12658,"1,1-DICHLOROPROPANE",280.0,1.0,CCC(Cl)Cl,didier14
12659,PROPIONIC ACID,328.0,1.0,CCC(=O)O,didier14
12660,ACRYLIC ACID,324.0,1.0,C=CC(=O)O,didier14
12661,"2,3-DIMETHYLBUTANE",244.0,1.0,CC(C)C(C)C,didier14
12662,METHACRYLIC ACID,340.0,1.0,C=C(C)C(=O)O,didier14
12663,p-tert-AMYLPHENOL,384.0,1.0,CCC(C)(C)c1ccc(O)cc1,didier14
12664,METHYL METHACRYLATE,284.1,1.0,C=C(C)C(=O)OC,didier14
12665,METHYL ISOPROPENYL KETONE,294.1,1.0,C=C(C)C(C)=O,didier14
12666,1-UNDECENE,327.0,1.0,C=CCCCCCCCCC,didier14
12667,trans-1-PROPENYLBENZENE,325.1,1.0,C/C=C/c1ccccc1,didier14
12668,4-ETHYL-m-XYLENE,330.0,1.0,CCc1ccc(C)cc1C,didier14
12669,"1,2,4-TRIETHYLBENZENE",353.1,1.0,CCc1ccc(CC)c(CC)c1,didier14
12670,HEXAMETHYLBENZENE,387.0,1.0,Cc1c(C)c(C)c(C)c(C)c1C,didier14
12671,2-ETHYL BUTYRIC ACID,360.0,1.0,CCC(CC)C(=O)O,didier14
12672,DIPHENYL DISULFIDE,436.0,1.0,c1ccc(SSc2ccccc2)cc1,didier14
12673,THYMOL,374.1,1.0,Cc1ccc(C(C)C)c(O)c1,didier14
12674,ETHYL tert-PENTYL ETHER,268.0,1.0,CCOC(C)(C)CC,didier14
12675,m-TERPHENYL,464.0,1.0,c1ccc(-c2cccc(-c3ccccc3)c2)cc1,didier14
12676,BIPHENYL,386.0,1.0,c1ccc(-c2ccccc2)cc1,didier14
12677,2-METHYLHEXANAL,305.0,1.0,CCCCC(C)C=O,didier14
12678,n-PROPYL ACRYLATE,293.0,1.0,C=CC(=O)OCCC,didier14
12679,"trans-2-METHYL-1,3-PENTADIENE",253.2,1.0,C=C(C)/C=C/C,didier14
12680,"N,N-DIMETHYL-n-BUTYLAMINE",270.1,1.0,CCCCN(C)C,didier14
12681,3-ETHYL-o-XYLENE,338.1,1.0,CCc1cccc(C)c1C,didier14
12682,5-ETHYL-m-XYLENE,326.0,1.0,CCc1cc(C)cc(C)c1,didier14
12683,4-ETHYL-o-XYLENE,331.0,1.0,CCc1ccc(C)c(C)c1,didier14
12684,2-PHENYLPROPIONALDEHYDE,342.0,1.0,CC(C=O)c1ccccc1,didier14
12685,1-PHENYL-1-PROPANOL,363.1,1.0,CCC(O)c1ccccc1,didier14
12686,METHYL BENZOATE,355.1,1.0,COC(=O)c1ccccc1,didier14
12687,ETHYL BENZOATE,357.1,1.0,CCOC(=O)c1ccccc1,didier14
12688,o-CHLOROTOLUENE,324.0,1.0,Cc1ccccc1Cl,didier14
12689,"3,4-XYLENOL",376.0,1.0,Cc1ccc(O)cc1C,didier14
12690,ALLYL METHACRYLATE,306.1,1.0,C=CCOC(=O)C(=C)C,didier14
12691,3-METHYLPENTANE,241.0,1.0,CCC(C)CC,didier14
12692,2-METHYLBUTYRALDEHYDE,271.0,1.0,CCC(C)C=O,didier14
12693,METHYL ACRYLATE,270.0,1.0,C=CC(=O)OC,didier14
12694,ETHYL METHACRYLATE,293.1,1.0,C=C(C)C(=O)OCC,didier14
12695,ISOBUTYL ISOBUTYRATE,311.1,1.0,CC(C)COC(=O)C(C)C,didier14
12696,ISOBUTYL METHACRYLATE,314.1,1.0,C=C(C)C(=O)OCC(C)C,didier14
12697,n-BUTYL METHACRYLATE,322.0,1.0,C=C(C)C(=O)OCCCC,didier14
12698,BENZOTRICHLORIDE,354.0,1.0,ClC(Cl)(Cl)c1ccccc1,didier14
12699,p-tert-BUTYLPHENOL,386.0,1.0,CC(C)(C)c1ccc(O)cc1,didier14
12700,CUMENE,304.1,1.0,CC(C)c1ccccc1,didier14
12701,alpha-METHYLSTYRENE,313.1,1.0,C=C(C)c1ccccc1,didier14
12702,ACETOPHENONE,355.4,1.0,CC(=O)c1ccccc1,didier14
12703,BENZOYL CHLORIDE,345.0,1.0,O=C(Cl)c1ccccc1,didier14
12704,m-DIISOPROPYLBENZENE,349.8,1.0,CC(C)c1cccc(C(C)C)c1,didier14
12705,METHYL para-TOLUATE,363.7,1.0,COC(=O)c1ccc(C)cc1,didier14
12706,p-CYMENE,320.0,1.0,Cc1ccc(C(C)C)cc1,didier14
12707,p-CHLORONITROBENZENE,400.1,1.0,O=[N+]([O-])c1ccc(Cl)cc1,didier14
12708,p-NITROANILINE,472.1,1.0,Nc1ccc([N+](=O)[O-])cc1,didier14
12709,p-DINITROBENZENE,433.0,1.0,O=[N+]([O-])c1ccc([N+](=O)[O-])cc1,didier14
12710,CYCLOPENTYLAMINE,290.1,1.0,NC1CCCC1,didier14
12711,ETHYLBENZENE,288.1,1.0,CCc1ccccc1,didier14
12712,N-METHYLCYCLOHEXYLAMINE,302.1,1.0,CNC1CCCCC1,didier14
12713,N-METHYLANILINE,351.0,1.0,CNc1ccccc1,didier14
12714,PHENYLHYDRAZINE,362.1,1.0,NNc1ccccc1,didier14
12715,DICYCLOHEXYLAMINE,377.0,1.0,C1CCC(NC2CCCCC2)CC1,didier14
12716,DIPHENYL ETHER,369.0,1.0,c1ccc(Oc2ccccc2)cc1,didier14
12717,DI(2-ETHYLHEXYL)ADIPATE,466.0,1.0,CCCCC(CC)COC(=O)CCCCC(=O)OCC(CC)CCCC,didier14
12718,n-PROPYLBENZENE,303.1,1.0,CCCc1ccccc1,didier14
12719,N-ETHYLANILINE,358.1,1.0,CCNc1ccccc1,didier14
12720,ACETANILIDE,446.1,1.0,CC(=O)Nc1ccccc1,didier14
12721,4-METHOXYPHENYLACETIC ACID,437.0,1.0,COc1ccc(CC(=O)O)cc1,didier14
12722,2-ETHYL-1-HEXANOL,346.0,1.0,CCCCC(CC)CO,didier14
12723,p-DIETHYLBENZENE,329.1,1.0,CCc1ccc(CC)cc1,didier14
12724,"1,4-CYCLOHEXANEDIMETHANOL",434.1,1.0,OCC1CCC(CO)CC1,didier14
12725,2-METHYL-1-PENTANOL,319.0,1.0,CCCC(C)CO,didier14
12726,METHYL CYANOACETATE,383.1,1.0,COC(=O)CC#N,didier14
12727,ETHYL PROPIONATE,285.0,1.0,CCOC(=O)CC,didier14