,Unnamed: 0,compound,flashpoint,pure substance,smiles,source
12558,12978,8-HYDROXYQUINOLINE,404.0,1.0,Oc1cccc2cccnc12,didier14
12559,12979,cis-3-OCTENE,290.0,1.0,CC/C=C\CCCC,didier14
12560,12980,trans-4-OCTENE,281.0,1.0,CCC/C=C/CCC,didier14
12561,12981,trans-3-OCTENE,282.0,1.0,CC/C=C/CCCC,didier14
12562,12982,"2-METHYL-1,3-PENTANEDIOL",394.0,1.0,CCC(O)C(C)CO,didier14
12563,12983,2-ETHYL HEXANOIC ACID,387.1,1.0,CCCCC(CC)C(=O)O,didier14
12564,12984,p-METHOXYPHENOL,398.0,1.0,COc1ccc(O)cc1,didier14
12565,12985,TRI-n-HEPTYL TRIMELLITATE,546.0,1.0,CCCCCCCOC(=O)c1ccc(C(=O)OCCCCCCC)c(C(=O)OCCCCCCC)c1,didier14
12566,12986,TETRAETHYLENE GLYCOL MONOBUTYL ETHER,436.0,1.0,CCCCOCCOCCOCCOCCO,didier14
12567,12987,ETHYLENE GLYCOL 2-ETHYLHEXYL ETHER,383.1,1.0,CCCCC(CC)COCCO,didier14
12568,12988,"cis-1,2-DICHLOROETHYLENE",277.0,1.0,Cl/C=C\Cl,didier14
12569,12989,"trans-1,2-DICHLOROETHYLENE",275.0,1.0,Cl/C=C/Cl,didier14
12570,12990,3-AMINO-1-PROPANOL,352.6,1.0,NCCCO,didier14
12571,12991,PROPYLENE GLYCOL n-PROPYL ETHER,321.1,1.0,CCCOCC(C)O,didier14
12572,12992,1-ETHOXY-2-PROPANOL,315.1,1.0,CCOCC(C)O,didier14
12573,12993,CYCLOHEXYL MERCAPTAN,316.1,1.0,SC1CCCCC1,didier14
12574,12994,METHYL-4-FORMYLBENZOATE,403.0,1.0,COC(=O)c1ccc(C=O)cc1,didier14
12575,12995,3-ETHYLHEPTANE,295.0,1.0,CCCCC(CC)CC,didier14
12576,12996,5-METHYLNONANE,311.0,1.0,CCCCC(C)CCCC,didier14
12577,12997,METHYL tert-BUTYL ETHER,240.2,1.0,COC(C)(C)C,didier14
12578,12998,1-n-BUTYLNAPHTHALENE,401.0,1.0,CCCCc1cccc2ccccc12,didier14
12579,12999,"1,1-DIMETHYLCYCLOPENTANE",257.0,1.0,CC1(C)CCCC1,didier14
12580,13000,n-HEPTYL MERCAPTAN,319.1,1.0,CCCCCCCS,didier14
12581,13001,ETHYLCYCLOPENTANE,269.0,1.0,CCC1CCCC1,didier14
12582,13002,BIS(CYANOETHYL)ETHER,445.0,1.0,N#CCCOCCC#N,didier14
12583,13003,"2,4,4-TRIMETHYLHEXANE",283.0,1.0,CCC(C)(C)CC(C)C,didier14
12584,13004,"2,3,3,4-TETRAMETHYLPENTANE",304.0,1.0,CC(C)C(C)(C)C(C)C,didier14
12585,13005,1-METHYL-1-ETHYLCYCLOPENTANE,279.0,1.0,CCC1(C)CCCC1,didier14
12586,13006,ETHYLCYCLOHEXANE,295.1,1.0,CCC1CCCCC1,didier14
12587,13007,n-PROPYLCYCLOHEXANE,304.0,1.0,CCCC1CCCCC1,didier14
12588,13008,n-BUTYLCYCLOHEXANE,321.0,1.0,CCCCC1CCCCC1,didier14
12589,13009,4-METHYLNONANE,311.0,1.0,CCCCCC(C)CCC,didier14
12590,13010,n-DECYLCYCLOHEXANE,404.0,1.0,CCCCCCCCCCC1CCCCC1,didier14
12591,13011,1-TRIACONTENE,517.0,1.0,C=CCCCCCCCCCCCCCCCCCCCCCCCCCCCC,didier14
12592,13012,2-(2-PENTOXYETHOXY)ETHANOL,383.0,1.0,CCCCCOCCOCCO,didier14
12593,13013,"1,2-BENZENEDICARBOXYLIC ACID, HEPTYL, NONYL ESTER",500.0,1.0,CCCCCCCCCOC(=O)c1ccccc1C(=O)OCCCCCCC,didier14
12594,13014,n-BUTYLCYCLOPENTANE,305.0,1.0,CCCCC1CCCC1,didier14
12595,13015,n-PROPYLCYCLOPENTANE,288.0,1.0,CCCC1CCCC1,didier14
12596,13016,DIMERCAPTOETHYL ETHER,371.1,1.0,SC(S)COCC(S)S,didier14
12597,13017,"2-METHYL-1,3-PROPANEDIOL",386.0,1.0,CC(CO)CO,didier14
12598,13018,CHRYSENE,510.0,1.0,c1ccc2c(c1)ccc1c3ccccc3ccc21,didier14
12599,13019,"trans-3,5-DIMETHOXYSTILBENE",489.0,1.0,COc1cc(/C=C/c2ccccc2)cc(OC)c1,didier14
12600,13020,3-METHYLOCTANE,297.0,1.0,CCCCCC(C)CC,didier14
12601,13021,4-METHYLOCTANE,295.0,1.0,CCCCC(C)CCC,didier14
12602,13022,ETHYLENE GLYCOL DIACRYLATE,373.1,1.0,C=CC(=O)OCCOC(=O)C=C,didier14
12603,13023,tert-BUTYLFORMAMIDE,368.1,1.0,CC(C)(C)NC=O,didier14
12604,13024,DIPROPYL MALEATE,391.0,1.0,CCCOC(=O)/C=C\C(=O)OCCC,didier14
12605,13025,AMINOCAPRONITRILE,378.0,1.0,CCCCC(N)C#N,didier14
12606,13026,"BENZENE-1,2,4-TRICARBOXYLIC ACID TRIMETHYL ESTER",468.0,1.0,COC(=O)c1ccc(C(=O)OC)c(C(=O)OC)c1,didier14
12607,13027,ACRYLOXY PROPIONIC ACID,419.0,1.0,C=CC(=O)OC(C)C(=O)O,didier14
12608,13028,TRIPROPYLENE GLYCOL,413.1,1.0,CC(O)COC(C)COC(C)CO,didier14
12609,13029,DIPROPYLENE GLYCOL,391.0,1.0,CC(O)COC(C)CO,didier14
12610,13030,TRIPROPYLENE GLYCOL MONOMETHYL ETHER,384.0,1.0,COC(C)COC(C)COC(C)CO,didier14
12611,13031,4-HYDROXYBUTYRALDEHYDE,346.0,1.0,O=CCCCO,didier14
12612,13032,ACRIDINE,445.0,1.0,c1ccc2nc3ccccc3cc2c1,didier14
12613,13033,1-n-NONYLNAPHTHALENE,449.0,1.0,CCCCCCCCCc1cccc2ccccc12,didier14
12614,13034,1-n-DECYLNAPHTHALENE,458.0,1.0,CCCCCCCCCCc1cccc2ccccc12,didier14
12615,13035,DIISODECYL PHTHALATE,505.4,1.0,CC(C)CCCCCCCOC(=O)c1ccccc1C(=O)OCCCCCCCC(C)C,didier14
12616,13036,DIISOOCTYL PHTHALATE,504.0,1.0,CC(C)CCCCCOC(=O)c1ccccc1C(=O)OCCCCCC(C)C,didier14
12617,13037,1-n-PROPYLNAPHTHALENE,387.0,1.0,CCCc1cccc2ccccc12,didier14
12618,13038,ETHYLENE GLYCOL MONOPROPYL ETHER,322.1,1.0,CCCOCCO,didier14
12619,13039,ADAMANTANE,316.0,1.0,C1C2CC3CC1CC(C2)C3,didier14
12620,13040,DIISONONYL PHTHALATE,489.0,1.0,CC(C)CCCCCCOC(=O)c1ccccc1C(=O)OCCCCCCC(C)C,didier14
12621,13041,1-n-HEXYLNAPHTHALENE,425.0,1.0,CCCCCCc1cccc2ccccc12,didier14
12622,13042,CYCLOPENTANE,233.0,1.0,C1CCCC1,didier14
12623,13043,PYRIDAZINE,358.1,1.0,c1ccnnc1,didier14
12624,13044,DIPROPYLENE GLYCOL n-PROPYL ETHER,370.9,1.0,CCCOC(C)COC(C)CO,didier14
12625,13045,DIPROPYLENE GLYCOL MONOETHYL ETHER,364.0,1.0,CCOC(C)COC(C)CO,didier14
12626,13046,4-HYDROXYMETHYL BENZOIC ACID,495.0,1.0,O=C(O)c1ccc(CO)cc1,didier14
12627,13047,HYDRAZINE,311.0,1.0,NN,didier14
12628,13048,"1,2,4-BUTANETRIOL",440.0,1.0,OCCC(O)CO,didier14
12629,13049,ETHYLBENZENE HYDROPEROXIDE,414.0,1.0,CCc1ccccc1.[O-]O,didier14
12630,13050,2-METHYLOCTANE,296.0,1.0,CCCCCCC(C)C,didier14
12631,13051,n-DECANOIC ACID,412.0,1.0,CCCCCCCCCC(=O)O,didier14
12632,13052,3-METHYL-1-HEXENE,267.1,1.0,C=CC(C)CCC,didier14
12633,13053,DIPROPYLENE GLYCOL MONOMETHYL ETHER,347.1,1.0,COC(C)COC(C)CO,didier14
12634,13054,"2,2,5-TRIMETHYLHEXANE",286.0,1.0,CC(C)CCC(C)(C)C,didier14
12635,13055,DI-n-UNDECYL PHTHALATE,535.0,1.0,CCCCCCCCCCCOC(=O)c1ccccc1C(=O)OCCCCCCCCCCC,didier14
12636,13056,DI-n-HEPTYL PHTHALATE,485.0,1.0,CCCCCCCOC(=O)c1ccccc1C(=O)OCCCCCCC,didier14
12637,13057,"1,2,3,4-TETRAMETHYLCYCLOHEXANE",319.0,1.0,CC1CCC(C)C(C)C1C,didier14
12638,13058,6-AMINOHEXANAMIDE,444.0,1.0,NCCCCCC(N)=O,didier14
12639,13059,3-HYDROXY-2-METHYL PROPIONALDEHYDE,352.0,1.0,CC(C=O)CO,didier14
12640,13060,ISOPROPYLCYCLOPENTANE,283.0,1.0,CC(C)C1CCCC1,didier14
12641,13061,1-ISOPROPOXY-2-PROPANOL,309.0,1.0,CC(O)COC(C)C,didier14
12642,13062,ALLYL-TERT-BUTYLPEROXIDE,286.0,1.0,C=CCOOC(C)(C)C,didier14
12643,13063,6-AMINOHEXANOL,390.0,1.0,NCCCCCCO,didier14
12644,13064,"N,N'-DI-tert-BUTYLETHYLENEDIAMINE",334.0,1.0,CC(C)(C)NCCNC(C)(C)C,didier14
12645,13065,CYCLOHEXYL FORMATE,324.1,1.0,O=COC1CCCCC1,didier14
12646,13066,"1,2,3-BUTANETRIOL",474.0,1.0,CC(O)C(O)CO,didier14
12647,13067,CYANOGEN,204.0,1.0,N#CC#N,didier14
12648,13068,"1,5-PENTANEDIAMINE",335.1,1.0,NCCCCCN,didier14
12649,13069,DI-n-OCTYL TEREPHTHALATE,507.0,1.0,CCCCCCCCOC(=O)c1ccc(C(=O)OCCCCCCCC)cc1,didier14
12650,13070,n-BUTYLHYDROPEROXIDE,325.0,1.0,CCCCOO,didier14
12651,13071,"1,2,3,4-TETRAMETHYLBENZENE",341.1,1.0,Cc1ccc(C)c(C)c1C,didier14
12652,13072,CITRACONIC ACID,493.0,1.0,C/C(=C/C(=O)O)C(=O)O,didier14
12653,13073,FORMALDEHYDE,206.0,1.0,C=O,didier14
12654,13074,LACTIC ACID,410.0,1.0,CC(O)C(=O)O,didier14
12655,13075,5-NONANONE,333.1,1.0,CCCCC(=O)CCCC,didier14
12656,13076,ISOVALERIC ACID,350.0,1.0,CC(C)CC(=O)O,didier14
12657,13077,SUBERIC ACID,489.0,1.0,O=C(O)CCCCCCC(=O)O,didier14
12658,13078,ACETYLSALICYLIC ACID,436.0,1.0,CC(=O)Oc1ccccc1C(=O)O,didier14
12659,13079,2-METHYL-2-BUTENE,228.2,1.0,CC=C(C)C,didier14
12660,13080,ISOBUTYL MERCAPTAN,264.1,1.0,CC(C)CS,didier14
12661,13081,"2,3-BUTANEDIOL",358.1,1.0,CC(O)C(C)O,didier14
12662,13082,"1,2,3-TRIMETHYLBENZENE",317.1,1.0,Cc1cccc(C)c1C,didier14
12663,13083,"2,3-XYLENOL",365.0,1.0,Cc1cccc(O)c1C,didier14
12664,13084,TRIMELLITIC ACID,550.0,1.0,O=C(O)c1ccc(C(=O)O)c(C(=O)O)c1,didier14
12665,13085,"1,1-DIMETHOXYETHANE",256.1,1.0,COC(C)OC,didier14
12666,13086,n-PENTYLBENZENE,338.1,1.0,CCCCCc1ccccc1,didier14
12667,13087,AMINOACETONITRILE,339.0,1.0,N#CCN,didier14
12668,13088,"1,2-ETHANEDITHIOL",317.1,1.0,SCCS,didier14
12669,13089,m-DICHLOROBENZENE,345.0,1.0,Clc1cccc(Cl)c1,didier14
12670,13090,ETHYLIDENE DIACETATE,337.0,1.0,CC(=O)OC(C)OC(C)=O,didier14
12671,13091,ISOBUTYL FORMATE,277.0,1.0,CC(C)COC=O,didier14
12672,13092,2-HEPTANOL,332.1,1.0,CCCCCC(C)O,didier14
12673,13093,1-CHLOROPENTANE,286.0,1.0,CCCCCCl,didier14
12674,13094,GLUTARONITRILE,417.0,1.0,N#CCCCC#N,didier14
12675,13095,n-HEXADECANE,408.1,1.0,CCCCCCCCCCCCCCCC,didier14
12676,13096,METHYL ISOBUTYRATE,276.1,1.0,COC(=O)C(C)C,didier14
12677,13097,METHYL LACTATE,322.1,1.0,COC(=O)C(C)O,didier14
12678,13098,PROPYLENE GLYCOL ETHYL ETHER ACETATE,327.0,1.0,CCOCC(C)OC(C)=O,didier14
12679,13099,BENZAMIDE,430.0,1.0,NC(=O)c1ccccc1,didier14
12680,13100,METHYL PROPIONATE,271.0,1.0,CCC(=O)OC,didier14
12681,13101,"3,3-DIMETHYL-1-BUTENE",245.2,1.0,C=CC(C)(C)C,didier14
12682,13102,"2,3,3-TRIMETHYLPENTANE",273.0,1.0,CCC(C)(C)C(C)C,didier14
12683,13103,3-METHYL-1-BUTENE,217.2,1.0,C=CC(C)C,didier14
12684,13104,"2,3-DIMETHYL-2-BUTENE",257.1,1.0,CC(C)=C(C)C,didier14
12685,13105,METHYL ISOPROPYL KETONE,279.1,1.0,CC(=O)C(C)C,didier14
12686,13106,"2,2,3-TRIMETHYLPENTANE",270.0,1.0,CCC(C)C(C)(C)C,didier14
12687,13107,BENZANTHRACENE,508.0,1.0,c1ccc2cc3c(ccc4ccccc43)cc2c1,didier14
12688,13108,3-METHYL-2-PENTANONE,285.1,1.0,CCC(C)C(C)=O,didier14
12689,13109,ETHYL ISOPROPYL KETONE,286.1,1.0,CCC(=O)C(C)C,didier14
12690,13110,"2,3,4-TRIMETHYLPENTANE",273.0,1.0,CC(C)C(C)C(C)C,didier14
12691,13111,DIISOPROPYL KETONE,288.1,1.0,CC(C)C(=O)C(C)C,didier14
12692,13112,n-OCTADECANOIC ACID,476.1,1.0,CCCCCCCCCCCCCCCCCC(=O)O,didier14
12693,13113,"1,2-PROPYLENE GLYCOL",372.0,1.0,CC(O)CO,didier14
12694,13114,"2,6-XYLENOL",346.1,1.0,Cc1cccc(C)c1O,didier14
12695,13115,"2,6-DIMETHYLNAPHTHALENE",381.0,1.0,Cc1ccc2cc(C)ccc2c1,didier14
12696,13116,"2,7-DIMETHYLNAPHTHALENE",382.0,1.0,Cc1ccc2ccc(C)cc2c1,didier14
12697,13117,"3,4-DIMETHYLHEXANE",277.0,1.0,CCC(C)C(C)CC,didier14
12698,13118,3-PENTANOL,300.0,1.0,CCC(O)CC,didier14
12699,13119,"1,2-BUTANEDIOL",363.1,1.0,CCC(O)CO,didier14
12700,13120,METHOXYACETONE,293.0,1.0,COCC(C)=O,didier14
12701,13121,1-tert-BUTOXY-2-[2-(HYDROXY)PROPOXY]PROPANE,400.0,1.0,CC(O)COC(C)COC(C)(C)C,didier14
12702,13122,3-METHYL-1-PENTANOL,331.1,1.0,CCC(C)CCO,didier14
12703,13123,"2,4-DIMETHYLHEXANE",283.1,1.0,CCC(C)CC(C)C,didier14
12704,13124,4-METHYLHEPTANE,279.1,1.0,CCCC(C)CCC,didier14
12705,13125,3-METHYLHEPTANE,279.0,1.0,CCCCC(C)CC,didier14
12706,13126,n-BUTYL PROPIONATE,305.4,1.0,CCCCOC(=O)CC,didier14
12707,13127,"1,1-DIMETHYLCYCLOHEXANE",276.0,1.0,CC1(C)CCCCC1,didier14
12708,13128,1-METHYLCYCLOHEXANOL,338.1,1.0,CC1(O)CCCCC1,didier14
12709,13129,3-METHYLNONANE,311.0,1.0,CCCCCCC(C)CC,didier14
12710,13130,2-HEXANONE,296.1,1.0,CCCCC(C)=O,didier14
12711,13131,ALLYL ACETATE,295.4,1.0,C=CCOC(C)=O,didier14
12712,13132,"2,5-DIMETHYLHEXANE",271.0,1.0,CC(C)CCC(C)C,didier14
12713,13133,2-METHYLHEPTANE,277.1,1.0,CCCCCC(C)C,didier14
12714,13134,1-HEXENE,242.0,1.0,C=CCCCC,didier14
12715,13135,1-HEPTENE,265.1,1.0,C=CCCCCC,didier14
12716,13136,n-HEPTACOSANE,475.0,1.0,CCCCCCCCCCCCCCCCCCCCCCCCCCC,didier14
12717,13137,alpha-HYDROXYISOBUTYRIC ACID,396.0,1.0,CC(C)(O)C(=O)O,didier14
12718,13138,NEOHEXANOIC ACID,352.1,1.0,CC(C)(C)CC(=O)O,didier14
12719,13139,3-METHYL-2-BUTANOL,299.1,1.0,CC(C)C(C)O,didier14
12720,13140,"2,6-DIETHYLNAPHTHALENE",410.0,1.0,CCc1ccc2cc(CC)ccc2c1,didier14
12721,13141,p-AMINOAZOBENZENE,466.0,1.0,Nc1ccc(N=Nc2ccccc2)cc1,didier14
12722,13142,2-MERCAPTOETHANOL,340.1,1.0,OCCS,didier14
12723,13143,DIETHYL ETHER,228.2,1.0,CCOCC,didier14
12724,13144,2-PENTANOL,307.0,1.0,CCCC(C)O,didier14
12725,13145,ACETAMIDE,398.0,1.0,CC(N)=O,didier14
12726,13146,1-PHENYLNAPHTHALENE,435.0,1.0,c1ccc(-c2cccc3ccccc23)cc1,didier14
12727,13147,"2,6-DINITROTOLUENE",417.0,1.0,Cc1c([N+](=O)[O-])cccc1[N+](=O)[O-],didier14
12728,13148,2-METHYL-1-HEXENE,267.1,1.0,C=C(C)CCCC,didier14
12729,13149,"3,4-DINITROTOLUENE",453.0,1.0,Cc1ccc([N+](=O)[O-])c([N+](=O)[O-])c1,didier14
12730,13150,o-ETHYLTOLUENE,312.1,1.0,CCc1ccccc1C,didier14
12731,13151,"cis-2-BUTENE-1,4-DIOL",401.1,1.0,OC/C=C\CO,didier14
12732,13152,"1,2-DICHLOROBUTANE",297.0,1.0,CCC(Cl)CCl,didier14
12733,13153,"2,3-DICHLORO-1-PROPANOL",365.0,1.0,OCC(Cl)CCl,didier14
12734,13154,METHYL t-BUTYL SULFIDE,270.1,1.0,CSC(C)(C)C,didier14
12735,13155,DIMETHYL CARBONATE,289.9,1.0,COC(=O)OC,didier14
12736,13156,m-CHLOROBENZOYL CHLORIDE,372.0,1.0,O=C(Cl)c1cccc(Cl)c1,didier14
12737,13157,"3,5-DINITROTOLUENE",443.0,1.0,Cc1cc([N+](=O)[O-])cc([N+](=O)[O-])c1,didier14
12738,13158,"2,5-DINITROTOLUENE",438.0,1.0,Cc1cc([N+](=O)[O-])ccc1[N+](=O)[O-],didier14
12739,13159,2-PENTOXYETHANOL,347.0,1.0,CCCCCOCCO,didier14
12740,13160,4-CARBOXYBENZALDEHYDE,548.0,1.0,O=Cc1ccc(C(=O)O)cc1,didier14
12741,13161,"1,4-CYCLOHEXANEDICARBOXYLIC ACID",508.1,1.0,O=C(O)C1CCC(C(=O)O)CC1,didier14
12742,13162,3-ETHYLHEXANE,279.0,1.0,CCCC(CC)CC,didier14
12743,13163,m-ETHYLTOLUENE,311.1,1.0,CCc1cccc(C)c1,didier14
12744,13164,CYCLOHEXYL ACETATE,330.1,1.0,CC(=O)OC1CCCCC1,didier14
12745,13165,p-ETHYLTOLUENE,309.1,1.0,CCc1ccc(C)cc1,didier14
12746,13166,METHYL n-BUTYRATE,287.0,1.0,CCCC(=O)OC,didier14
12747,13167,DIMETHYL MALEATE,386.1,1.0,COC(=O)/C=C\C(=O)OC,didier14
12748,13168,METHYL ETHYL SULFIDE,258.1,1.0,CCSC,didier14
12749,13169,ANILINE,343.1,1.0,Nc1ccccc1,didier14
12750,13170,METHOXYACETIC ACID,388.0,1.0,COCC(=O)O,didier14
12751,13171,"2,4-PENTANEDIOL",374.1,1.0,CC(O)CC(C)O,didier14
12752,13172,2-HEXANOL,319.3,1.0,CCCCC(C)O,didier14
12753,13173,1-NITROBUTANE,320.1,1.0,CCCC[N+](=O)[O-],didier14
12754,13174,1-CHLORO-3-PROPANOL,346.1,1.0,OCCCCl,didier14
12755,13175,HEXANAMIDE,410.0,1.0,CCCCCC(N)=O,didier14
12756,13176,METHYL n-BUTYL SULFIDE,289.0,1.0,CCCCSC,didier14
12757,13177,ETHYL PROPYL ETHER,247.0,1.0,CCCOCC,didier14
12758,13178,n-PENTYL ACETATE,296.1,1.0,CCCCCOC(C)=O,didier14
12759,13179,HEXANENITRILE,320.0,1.0,CCCCCC#N,didier14
12760,13180,"2,2'-IMINOBIS-ACETONITRILE",413.0,1.0,N#CCNCC#N,didier14
12761,13181,"1,2-DIETHOXYETHANE",300.1,1.0,CCOCCOCC,didier14
12762,13182,n-TRIDECANE,352.0,1.0,CCCCCCCCCCCCC,didier14
12763,13183,n-TETRADECANE,373.1,1.0,CCCCCCCCCCCCCC,didier14
12764,13184,1-HEXADECENE,405.1,1.0,C=CCCCCCCCCCCCCCC,didier14
12765,13185,n-HEPTADECANE,421.1,1.0,CCCCCCCCCCCCCCCCC,didier14
12766,13186,n-NONADECANE,441.0,1.0,CCCCCCCCCCCCCCCCCCC,didier14
12767,13187,n-OCTACOSANE,475.0,1.0,CCCCCCCCCCCCCCCCCCCCCCCCCCCC,didier14
12768,13188,n-NONACOSANE,475.0,1.0,CCCCCCCCCCCCCCCCCCCCCCCCCCCCC,didier14
12769,13189,"1,1,1,2-TETRACHLOROETHANE",334.0,1.0,ClCC(Cl)(Cl)Cl,didier14
12770,13190,n-TRIACONTANE,475.0,1.0,CCCCCCCCCCCCCCCCCCCCCCCCCCCCCC,didier14
12771,13191,ETHANOL,286.0,1.0,CCO,didier14
12772,13192,ACETIC ACID,316.0,1.0,CC(=O)O,didier14
12773,13193,cis-2-HEPTENE,265.0,1.0,C/C=C\CCCC,didier14
12774,13194,trans-2-PENTENE,225.0,1.0,C/C=C/CC,didier14
12775,13195,n-NONYL n-UNDECYL PHTHALATE,524.0,1.0,CCCCCCCCCCCOC(=O)c1ccccc1C(=O)OCCCCCCCCC,didier14
12776,13196,BENZOIC ACID,394.3,1.0,O=C(O)c1ccccc1,didier14
12777,13197,HEXANAL,300.0,1.0,CCCCCC=O,didier14
12778,13198,METHANOL,284.0,1.0,CO,didier14
12779,13199,ISOPROPANOL,285.1,1.0,CC(C)O,didier14
12780,13200,THIOGLYCOLIC ACID,398.0,1.0,O=C(O)CS,didier14
12781,13201,"N,N-DIMETHYLFORMAMIDE",331.0,1.0,CN(C)C=O,didier14
12782,13202,"2,2,4-TRIMETHYL-1,3-PENTANEDIOL DIISOBUTYRATE",394.0,1.0,CC(C)C(=O)OCC(C)(C)C(OC(=O)C(C)C)C(C)C,didier14
12783,13203,DIETHYLENE GLYCOL MONOPROPYL ETHER,372.0,1.0,CCCOCCOCCO,didier14
12784,13204,MALIC ACID,515.0,1.0,O=C(O)CC(O)C(=O)O,didier14
12785,13205,ISOPROPYLCYCLOHEXANE,308.1,1.0,CC(C)C1CCCCC1,didier14
12786,13206,SALICYLIC ACID,430.0,1.0,O=C(O)c1ccccc1O,didier14
12787,13207,"1,3-DIMETHYLADAMANTANE",325.1,1.0,CC12CC3CC(C1)CC(C)(C3)C2,didier14
12788,13208,sec-BUTYLCYCLOHEXANE,319.0,1.0,CCC(C)C1CCCCC1,didier14
12789,13209,1-PROPANOL,291.0,1.0,CCCO,didier14
12790,13210,DICYCLOHEXYL SULFIDE,393.0,1.0,C1CCC(SC2CCCCC2)CC1,didier14
12791,13211,1-BUTANOL,306.0,1.0,CCCCO,didier14
12792,13212,1-PENTANOL,320.0,1.0,CCCCCO,didier14
12793,13213,BENZENE,262.0,1.0,c1ccccc1,didier14
12794,13214,"2,2,3,3-TETRAMETHYLPENTANE",289.0,1.0,CCC(C)(C)C(C)(C)C,didier14
12795,13215,"3,3,5-TRIMETHYLHEPTANE",301.0,1.0,CCC(C)CC(C)(C)CC,didier14
12796,13216,"2,2',2''-NITRILOTRIS-ACETONITRILE",487.0,1.0,N#CCN(CC#N)CC#N,didier14
12797,13217,ETHANE,138.2,1.0,CC,didier14
12798,13218,ETHYLENE,124.0,1.0,C=C,didier14
12799,13219,METHYLAMINE,215.0,1.0,CN,didier14
12800,13220,PROPANE,169.2,1.0,CCC,didier14
12801,13221,ACETONITRILE,275.1,1.0,CC#N,didier14
12802,13222,ACETALDEHYDE,235.0,1.0,CC=O,didier14
12803,13223,DIMETHYL SULFIDE,237.2,1.0,CSC,didier14
12804,13224,ISOPROPYL CHLORIDE,238.2,1.0,CC(C)Cl,didier14
12805,13225,ISOPROPYLAMINE,236.2,1.0,CC(C)N,didier14
12806,13226,ISOPROPYL MERCAPTAN,238.2,1.0,CC(C)S,didier14
12807,13227,"1,1-DICHLOROETHANE",261.1,1.0,CC(Cl)Cl,didier14
12808,13228,"1,1-DICHLOROETHYLENE",251.2,1.0,C=C(Cl)Cl,didier14
12809,13229,NITROMETHANE,308.1,1.0,C[N+](=O)[O-],didier14
12810,13230,2-METHYL-2-PROPANOL,284.3,1.0,CC(C)(C)O,didier14
12811,13231,"2,3-DICHLOROBUTANE",291.1,1.0,CC(Cl)C(C)Cl,didier14
12812,13232,2-METHYL-2-BUTANOL,293.1,1.0,CCC(C)(C)O,didier14
12813,13233,ACETONE CYANOHYDRIN,336.1,1.0,CC(C)(O)C#N,didier14
12814,13234,TRICHLOROACETALDEHYDE,323.0,1.0,O=CC(Cl)(Cl)Cl,didier14
12815,13235,TRIPROPYLENE GLYCOL MONOETHYL ETHER,405.0,1.0,CCOC(C)COC(C)COC(C)CO,didier14
12816,13236,t-BUTYL HYDROPEROXIDE,299.8,1.0,CC(C)(C)OO,didier14
12817,13237,"3,3-DIMETHYL-2-BUTANONE",285.1,1.0,CC(=O)C(C)(C)C,didier14
12818,13238,3-METHYL-1-PENTENE,245.2,1.0,C=CC(C)CC,didier14
12819,13239,"3,4-DICHLORO-1-BUTENE",301.1,1.0,C=CC(Cl)CCl,didier14
12820,13240,ETHYL-3-ETHOXYPROPIONATE,331.1,1.0,CCOCCC(=O)OCC,didier14
12821,13241,cis-2-OCTENE,294.0,1.0,C/C=C\CCCCC,didier14
12822,13242,cis-4-OCTENE,290.0,1.0,CCC/C=C\CCC,didier14
12823,13243,CYCLOHEXYL PEROXIDE,381.0,1.0,C1CCC(OOC2CCCCC2)CC1,didier14
12824,13244,3-METHYL-3-PENTANOL,297.1,1.0,CCC(C)(O)CC,didier14
12825,13245,"1,2-DIMETHOXYPROPANE",273.7,1.0,COCC(C)OC,didier14
12826,13246,CITRIC ACID,549.0,1.0,O=C(O)CC(O)(CC(=O)O)C(=O)O,didier14
12827,13247,TRIMETHYLOLPROPANE,445.1,1.0,CCC(CO)(CO)CO,didier14
12828,13248,"1,1-DIETHYLCYCLOHEXANE",322.1,1.0,CCC1(CC)CCCCC1,didier14
12829,13249,ISOBUTYLAMINE,255.3,1.0,CC(C)CN,didier14
12830,13250,ISOBUTYRONITRILE,281.5,1.0,CC(C)C#N,didier14
12831,13251,2-METHYL-1-PROPANOL,301.0,1.0,CC(C)CO,didier14
12832,13252,sec-BUTYL CHLORIDE,244.0,1.0,CCC(C)Cl,didier14
12833,13253,"1,2-DICHLOROPROPANE",286.1,1.0,CC(Cl)CCl,didier14
12834,13254,"2,3-DICHLOROPROPENE",283.1,1.0,C=C(Cl)CCl,didier14
12835,13255,"1,2-PROPANEDIAMINE",306.1,1.0,CC(N)CN,didier14
12836,13256,2-BUTANOL,296.1,1.0,CCC(C)O,didier14
12837,13257,1-AMINO-2-PROPANOL,347.0,1.0,CC(O)CN,didier14
12838,13258,LACTONITRILE,350.1,1.0,CC(O)C#N,didier14
12839,13259,N-METHYLACETAMIDE,381.1,1.0,CNC(C)=O,didier14
12840,13260,METHYL ACETATE,263.1,1.0,COC(C)=O,didier14
12841,13261,PERACETIC ACID,313.1,1.0,CC(=O)OO,didier14
12842,13262,METHYL CHLOROFORMATE,285.1,1.0,COC(=O)Cl,didier14
12843,13263,NITROETHANE,301.0,1.0,CC[N+](=O)[O-],didier14
12844,13264,ISOBUTYRIC ACID,329.1,1.0,CC(C)C(=O)O,didier14
12845,13265,DICHLOROACETYL CHLORIDE,339.0,1.0,O=C(Cl)C(Cl)Cl,didier14
12846,13266,DICHLOROACETIC ACID,383.1,1.0,O=C(O)C(Cl)Cl,didier14
12847,13267,2-NITROPROPANE,297.1,1.0,CC(C)[N+](=O)[O-],didier14
12848,13268,BISPHENOL A,480.1,1.0,CC(C)(c1ccc(O)cc1)c1ccc(O)cc1,didier14
12849,13269,CUMENE HYDROPEROXIDE,322.0,1.0,CC(C)c1ccccc1.[O-]O,didier14
12850,13270,p-MENTHANE HYDROPEROXIDE,404.0,1.0,CC1CCC(C(C)C)CC1.[O-]O,didier14
12851,13271,2-HYDROXYETHYL ACRYLATE,371.1,1.0,C=CC(=O)OCCO,didier14
12852,13272,"trans-2-BUTENE-1,4-DIOL",401.1,1.0,OC/C=C/CO,didier14
12853,13273,2-NONANONE,337.1,1.0,CCCCCCCC(C)=O,didier14
12854,13274,"2,6-DIAMINOTOLUENE",419.0,1.0,Cc1c(N)cccc1N,didier14
12855,13275,CYCLOHEXYLBENZENE,372.0,1.0,c1ccc(C2CCCCC2)cc1,didier14
12856,13276,"DIMETHYL-2,6-NAPHTHALENEDICARBOXYLATE",479.0,1.0,COC(=O)c1ccc2cc(C(=O)OC)ccc2c1,didier14
12857,13277,o-TERPHENYL,436.0,1.0,c1ccc(-c2ccccc2-c2ccccc2)cc1,didier14
12858,13278,ANTHRAQUINONE,458.1,1.0,O=C1c2ccccc2C(=O)c2ccccc21,didier14
12859,13279,DIETHYL PHTHALATE,390.1,1.0,CCOC(=O)c1ccccc1C(=O)OCC,didier14
12860,13280,DIISOBUTYL PHTHALATE,434.1,1.0,CC(C)COC(=O)c1ccccc1C(=O)OCC(C)C,didier14