,compound,flashpoint,pure substance,smiles,source
769,PHENYLACETONITRILE,374.15,1,c1(CC#N)ccccc1,dippr
770,"N,N-DIETHYLHYDROXYLAMINE",318.15,1,CCN(O)CC,dippr
771,TRIOLEIN,603.0,1,C(COC(CCCCCCC\C=C/CCCCCCCC)=O)(COC(CCCCCCC\C=C/CCCCCCCC)=O)OC(CCCCCCC\C=C/CCCCCCCC)=O,dippr
772,DIETHYLSULFITE,326.15,1,CCOS(=O)OCC,dippr
773,1-ETHOXY-2-PROPANOL,313.15,1,CC(O)COCC,dippr
774,METHANESULFONYL CHLORIDE,383.15,1,CS(=O)(=O)Cl,dippr
775,tert-BUTYL METHACRYLATE,300.15,1,CC(C)(C)OC(=O)C(=C)C,dippr
776,TETRAETHOXYSILANE,324.82,1,[Si](OCC)(OCC)(OCC)OCC,dippr
777,gamma-AMINOPROPYLTRIETHOXYSILANE,369.26,1,[Si](OCC)(OCC)(OCC)CCCN,dippr
778,HEXADECAMETHYLCYCLOOCTASILOXANE,405.0,1,[Si]1(C)(C)O[Si](C)(C)O[Si](C)(C)O[Si](C)(C)O[Si](C)(C)O[Si](C)(C)O[Si](C)(C)O[Si](C)(C)O1,dippr
779,EICOSAMETHYLNONASILOXANE,432.04,1,C[Si](C)(C)O[Si](C)(C)O[Si](C)(C)O[Si](C)(C)O[Si](C)(C)O[Si](C)(C)O[Si](C)(C)O[Si](C)(C)O[Si](C)(C)(C),dippr
780,HEXACOSAMETHYLDODECASILOXANE,471.0,1,C[Si](C)(C)O[Si](C)(C)O[Si](C)(C)O[Si](C)(C)O[Si](C)(C)O[Si](C)(C)O[Si](C)(C)O[Si](C)(C)O[Si](C)(C)O[Si](C)(C)O[Si](C)(C)O[Si](C)(C)(C),dippr
781,METHYL DICHLOROSILANE,241.15,1,C[SiH](Cl)Cl,dippr
782,METHYL TRICHLOROSILANE,276.15,1,C[Si](Cl)(Cl)Cl,dippr
783,VINYLTRICHLOROSILANE,283.15,1,C=C[Si](Cl)(Cl)Cl,dippr
784,METHYL SILICATE,294.15,1,CO[Si](OC)(OC)OC,dippr
785,"[3-(2,3-EPOXYPROXY)PROPYL]TRIMETHOXYSILANE",408.15,1,CO[Si](OC)(OC)CCCOCC1CO1,dippr
786,3-CHLOROPROPYLTRICHLOROSILANE,357.15,1,C(Cl)CC[Si](Cl)(Cl)Cl,dippr
787,METHYLTRIACETOXYSILANE,358.15,1,[Si](C)(OC(=O)C)(OC(=O)C)OC(=O)C,dippr
788,ETHYLTRIACETOXYSILANE,377.15,1,[Si](CC)(OC(=O)C)(OC(=O)C)OC(=O)C,dippr
789,TRIETHYL ESTER PHOSPHOROUS ACID,317.15,1,P(OCC)(OCC)OCC,dippr
790,(3-GLYCIDOXYPROPYL)METHYLDIETHOXYSILANE,401.15,1,O1CC1COCCC[Si](OCC)(OCC)C,dippr
791,"(3,3,3-TRIFLUOROPROPYL)METHYLDICHLOROSILANE",307.85,1,FC(CC[Si](Cl)(Cl)C)(F)F,dippr
792,NICKEL CARBONYL,253.35,1,[Ni](C#O)(C#O)(C#O)C#O,dippr
793,DIMETHYLCHLOROSILANE,245.15,1,C[SiH](C)(Cl),dippr
794,TRIMETHYLCHLOROSILANE,245.0,1,C[Si](C)(Cl)C,dippr
795,DIMETHYLDICHLOROSILANE,264.15,1,C[Si](C)(Cl)Cl,dippr
796,DECAMETHYLCYCLOPENTASILOXANE,350.15,1,[Si]1(C)(C)O[Si](C)(C)O[Si](C)(C)O[Si](C)(C)O[Si](C)(C)O1,dippr
797,DODECAMETHYLCYCLOHEXASILOXANE,366.15,1,[Si]1(C)(C)O[Si](C)(C)O[Si](C)(C)O[Si](C)(C)O[Si](C)(C)O[Si](C)(C)O1,dippr
798,ETHYLTRICHLOROSILANE,288.15,1,CC[Si](Cl)(Cl)Cl,dippr
799,DICHLORODIETHYLSILANE,297.15,1,CC[Si](Cl)(Cl)CC,dippr
800,DIMETHYLMERCURY,278.15,1,C[Hg]C,dippr
801,HEXACHLOROSILANE,353.15,1,Cl[Si](Cl)(Cl)[Si](Cl)(Cl)Cl,dippr
802,DIGLYCOLIC ACID,500.0,1,OC(=O)COCC(=O)O,dippr
803,LEVULINIC ACID,410.0,1,OC(=O)CCC(=O)C,dippr
804,GUAIACOL,355.0,1,c1(O)ccccc1(OC),dippr
805,ETHYLENE GLYCOL MONOPROPYL ETHER,322.15,1,CCCOCCO,dippr
806,2-(2-BUTOXYETHOXY)ETHANOL,378.15,1,CCCCOCCOCCO,dippr
807,4-CHLORO-3-NITROBENZOTRIFLUORIDE,374.15,1,c1(Cl)ccc(C(F)(F)F)cc1([N+]([O-])=O),dippr
808,"3,4-DICHLOROPHENYL ISOCYANATE",386.0,1,c1(N=C=O)cc([Cl])c([Cl])cc1,dippr
809,3-NITROBENZOTRIFLUORIDE,361.0,1,c1(C(F)(F)F)cc(N(=O)=O)ccc1,dippr
810,"1-CHLORO-2,4-DINITROBENZENE",467.0,1,c1(N(=O)=O)c(Cl)ccc(N(=O)=O)c1,dippr
811,p-DIMETHYLAMINOBENZALDEHYDE,420.15,1,c1(N(C)C)ccc(C(=O))cc1,dippr
812,ETHYL CHLOROFORMATE,289.15,1,ClC(=O)OCC,dippr
813,METHANESULFONIC ACID,443.15,1,O=S(C)(O)=O,dippr
814,METHYL CHLOROFORMATE,285.15,1,ClC(=O)OC,dippr
815,"1,2-DICHLORO-4-NITROBENZENE",396.15,1,c1(N(=O)=O)cc(Cl)c(Cl)cc1,dippr
816,o-CHLORONITROBENZENE,397.15,1,c1(N(=O)=O)c(Cl)cccc1,dippr
817,TRIETHYL PHOSPHATE,372.0,1,CCOP(=O)(OCC)OCC,dippr
818,TRIMETHYL PHOSPHATE,358.15,1,COP(=O)(OC)OC,dippr
819,CYCLOHEXANONE OXIME,362.15,1,C1(=NO)CCCCC1,dippr
820,VINYLTRIMETHOXYSILANE,296.15,1,C=C[Si](OC)(OC)OC,dippr
821,TRIMETHOXYSILANE,269.15,1,CO[SiH](OC)OC,dippr
822,DIMETHYLDIMETHOXYSILANE,263.15,1,CO[Si](C)(C)OC,dippr
823,PHENYLTRICHLOROSILANE,364.15,1,c1ccccc1([Si](Cl)(Cl)Cl),dippr
824,PHENYLMETHYLDICHLOROSILANE,353.15,1,c1ccccc1([Si](Cl)(Cl)C),dippr
825,TETRADECAMETHYLHEXASILOXANE,375.15,1,C[Si](C)(C)O[Si](C)(C)O[Si](C)(C)O[Si](C)(C)O[Si](C)(C)O[Si](C)(C)C,dippr
826,DECAMETHYLTETRASILOXANE,336.15,1,C[Si](C)(C)O[Si](C)(C)O[Si](C)(C)O[Si](C)(C)C,dippr
827,PYRUVIC ACID,355.15,1,CC(=O)C(=O)O,dippr
828,TRI-o-CRESYL PHOSPHATE,498.15,1,P(=O)(Oc1c(C)cccc1)(Oc1c(C)cccc1)Oc1c(C)cccc1,dippr
829,TRIPHENYL PHOSPHATE,493.15,1,c1ccccc1(OP(=O)(Oc2ccccc2)Oc3ccccc3),dippr
830,ETHYL ALUMINUM SESQUICHLORIDE,253.15,1,C[CH2-][Al+++]1([CH2-]C)[Cl-][Al+++]([CH2-]C)([Cl-])[Cl-]1,dippr
831,1-AMINO-2-PROPANOL,347.04,1,OC(C)CN,dippr
832,METHYL CHLOROACETATE,324.82,1,ClCC(=O)OC,dippr
833,ACETOACETANILIDE,423.15,1,c1ccccc1(NC(=O)CC(=O)C),dippr
834,OXAZOLE,292.0,1,O1C=NC=C1,dippr
835,ACETANILIDE,434.15,1,c1ccccc1(NC(=O)C),dippr
836,LACTONITRILE,350.15,1,CC(O)C#N,dippr
837,DIMETHYL SULFATE,365.65,1,COS(=O)(=O)OC,dippr
838,DIETHYL SULFATE,377.15,1,CCOS(=O)(=O)OCC,dippr
839,TARTARIC ACID,483.15,1,OC(=O)[C@](O)([H])([C@@]([H])(C(=O)O)(O)),dippr
840,ETHYL LACTATE,331.0,1,CC(O)C(=O)OCC,dippr
841,2-ETHOXYETHYL ACETATE,327.15,1,CC(=O)OCCOCC,dippr
842,DIETHYLENE GLYCOL ETHYL ETHER ACETATE,369.15,1,CCOCCOCCOC(=O)C,dippr
843,METHYL ACETOACETATE,343.0,1,CC(=O)CC(=O)OC,dippr
844,ETHYL ACETOACETATE,343.15,1,CC(=O)CC(=O)OCC,dippr
845,METHYL CYANOACETATE,380.65,1,N#CCC(=O)OC,dippr
846,ETHYL CYANOACETATE,383.15,1,N#CCC(=O)OCC,dippr
847,3-METHOXYPROPIONITRILE,338.15,1,COCCC#N,dippr
848,ISOXAZOLE,285.0,1,C1=CON=C1,dippr
849,ETHANESULFONYL CHLORIDE,356.48,1,CCS(=O)(=O)Cl,dippr
850,tert-BUTYLFORMAMIDE,355.15,1,CC(C)(C)NC=O,dippr
851,N-METHYLACETAMIDE,381.15,1,CC(=O)NC,dippr
852,THIODIGLYCOL,433.15,1,OCCSCCO,dippr
853,DIMERCAPTOETHYL ETHER,371.15,1,SCCOCCS,dippr
854,2-MERCAPTOETHANOL,340.15,1,SCCO,dippr
855,ETHYLTHIOETHANOL,350.15,1,OCCSCC,dippr
856,"1,2-ETHANEDITHIOL",318.15,1,SCCS,dippr
857,DIETHYLETHANOLAMINE,330.15,1,CCN(CC)CCO,dippr
858,METHYLETHANOLAMINE,345.15,1,CNCCO,dippr
859,DIMETHYLETHANOLAMINE,312.15,1,CN(C)CCO,dippr
860,3-METHOXYISOPROPYLAMINE,281.15,1,COCC(N)C,dippr
861,ETHYLENE GLYCOL MONOBUTYL ETHER ACETATE,344.15,1,CC(=O)OCCOCCCC,dippr
862,2-HYDROXYETHYL ACRYLATE,378.0,1,C=CC(=O)OCCO,dippr
863,ETHYL-3-ETHOXYPROPIONATE,331.15,1,CCOCCC(=O)OCC,dippr
864,DI-(2-CHLOROETHOXY)METHANE,383.15,1,ClCCOCOCCCl,dippr
865,1-METHYLVINYL ACETATE,283.0,1,CC(=O)OC(=C)C,dippr
866,2-PENTOXYETHANOL,348.15,1,CCCCCOCCO,dippr
867,METHOXYACETONE,297.15,1,CC(=O)COC,dippr
868,2-(2-PENTOXYETHOXY)ETHANOL,383.0,1,CCCCCOCCOCCO,dippr
869,PROPYLENE GLYCOL n-BUTYL ETHER,332.15,1,CCCCOCC(O)C,dippr
870,DIPROPYLENE GLYCOL n-BUTYL ETHER,373.55,1,CC(O)COC(C)COCCCC,dippr
871,TRIETHYLENE GLYCOL BIS(2-ETHYLHEXANOATE),480.15,1,CCCCC(CC)C(=O)OCCOCCOCCOC(=O)C(CC)CCCC,dippr
872,4-(2-AMINOETHYL)MORPHOLINE,359.15,1,N1(CCN)CCOCC1,dippr
873,N-ETHYLMORPHOLINE,304.15,1,N1(CC)CCOCC1,dippr
874,METHYL-3-MERCAPTOPROPIONATE,333.15,1,SCCC(=O)OC,dippr
875,1-METHOXY-2-PROPANOL PROPANOATE,327.15,1,COCC(C)OC(=O)CC,dippr
876,ETHYL LEVULINATE,363.15,1,CC(=O)CCC(=O)OCC,dippr
877,SUCROSE ACETATE ISOBUTYRATE,500.15,1,CC(C)C(=O)OC1C(COC(=O)C)OC(OC2(COC(=O)C(C)C)C(OC(=O)C(C)C)C(OC(=O)C(C)C)C(COC(=O)C)O2)C(OC(=O)C(C)C)C1OC(=O)C(C)C,dippr
878,IRON PENTACARBONYL,258.15,1,[Fe](C#O)(C#O)(C#O)(C#O)C#O,dippr
879,1-ETHYL-3-METHYLIMIDAZOLIUM ETHYLSULFATE,430.15,1,CCN1C=C[N+](C)=C1.S(=O)(=O)([O-])OCC,dippr
880,TRI-n-BUTYL PHOSPHATE,418.15,1,O=P(OCCCC)(OCCCC)OCCCC,dippr
881,2-AMINO-2-METHYL-1-PROPANOL,340.15,1,OCC(N)(C)C,dippr
882,o-ANISIDINE,373.15,1,c1c(N)c(OC)ccc1,dippr
883,4-METHYLGUAIACOL,372.15,1,Oc1ccc(C)cc1OC,dippr
884,Benzene,262.0,1,c1ccccc1,dippr
885,Toluene,279.15,1,c1ccccc1(C),dippr
886,ETHYLBENZENE,296.15,1,c1ccccc1(CC),dippr
887,"1,2-DIMETHYLBENZENE",305.15,1,c1(C)ccccc1(C),dippr
888,"1,3-DIMETHYLBENZENE",298.15,1,c1(C)cc(C)ccc1,dippr
889,"1,4-DIMETHYLBENZENE",299.0,1,c1(C)ccc(C)cc1,dippr
890,PROPYLBENZENE,312.15,1,c1(CCC)ccccc1,dippr
891,o-ETHYLTOLUENE,316.15,1,c1(CC)c(C)cccc1,dippr
892,m-ETHYLTOLUENE,311.15,1,c1(CC)cc(C)ccc1,dippr
893,p-ETHYLTOLUENE,312.15,1,c1(CC)ccc(C)cc1,dippr
894,"1,2,3-TRIMETHYLBENZENE",324.15,1,c1(C)c(C)c(C)ccc1,dippr
895,"1,2,4-TRIMETHYLBENZENE",318.65,1,c1(C)c(C)cc(C)cc1,dippr
896,MESITYLENE,317.55,1,c1(C)cc(C)cc(C)c1,dippr
897,ISOBUTYLBENZENE,325.15,1,c1(CC(C)C)ccccc1,dippr
898,sec-BUTYLBENZENE,325.0,1,c1(C(C)CC)ccccc1,dippr
899,tert-BUTYLBENZENE,317.15,1,c1(C(C)(C)C)ccccc1,dippr
900,o-DIETHYLBENZENE,330.37,1,c1(CC)c(CC)cccc1,dippr
901,m-DIETHYLBENZENE,329.0,1,c1(CC)cc(CC)ccc1,dippr
902,p-DIETHYLBENZENE,330.0,1,c1(CC)ccc(CC)cc1,dippr
903,"1,2,3,4-TETRAMETHYLBENZENE",347.15,1,c1(C)c(C)c(C)c(C)cc1,dippr
904,"1,2,4,5-TETRAMETHYLBENZENE",346.15,1,c1(C)c(C)cc(C)c(C)c1,dippr
905,"1,3,5-TRIS(METHYLETHYL)BENZENE",359.82,1,c1(C(C)C)cc(C(C)C)cc(C(C)C)c1,dippr
906,"1,2,3,4,5-PENTAMETHYL BENZENE",364.15,1,c1(C)c(C)c(C)c(C)c(C)c1,dippr
907,"1,2,4-TRIETHYLBENZENE",356.15,1,c1(CC)c(CC)cc(CC)cc1,dippr
908,1-HEPTYLBENZENE,370.65,1,c1(CCCCCCC)ccccc1,dippr
909,CYCLOHEXYLBENZENE,372.0,1,c1ccccc1(C2CCCCC2),dippr
910,p-TERPHENYL,480.0,1,c1ccccc1(c2ccc(c3ccccc3)cc2),dippr
911,m-TERPHENYL,464.0,1,c1ccccc1(c2cc(c3ccccc3)ccc2),dippr
912,o-TERPHENYL,436.0,1,c1ccccc1(c2c(c3ccccc3)cccc2),dippr
913,"1,2-DIPHENYLETHANE",398.15,1,c1ccccc1CCc2ccccc2,dippr
914,n-PENTYLBENZENE,339.15,1,c1ccccc1(CCCCC),dippr
915,HEXYLBENZENE,356.15,1,c1ccccc1(CCCCCC),dippr
916,1-OCTYLBENZENE,380.15,1,c1ccccc1(CCCCCCCC),dippr
917,2-PHENYL-1-BUTENE,325.15,1,C=C(c1ccccc1)CC,dippr
918,PHENYLETHENE,305.0,1,C=Cc1ccccc1,dippr
919,1-ETHENYL-2-METHYL BENZENE,320.15,1,C=Cc1c(C)cccc1,dippr
920,1-ETHENYL-3-METHYL BENZENE,324.15,1,C=Cc1cc(C)ccc1,dippr
921,1-((3E)PENT-3-ENYL)-2-METHYLBENZENE,361.0,1,C1(CCC=CC)=CC=CC=C1C,dippr
922,2-ETHYL-1-VINYLBENZENE,333.15,1,CCC1=C(C=C)C=CC=C1,dippr
923,3-ETHYL-1-VINYLBENZENE,335.65,1,CCC1=CC(C=C)=CC=C1,dippr
924,p-METHYLSTYRENE,320.65,1,C=Cc1ccc(C)cc1,dippr
925,alpha-METHYLSTYRENE,315.65,1,c1(C(C)=C)ccccc1,dippr
926,m-DIVINYL BENZENE,340.15,1,c1(C=C)cc(C=C)ccc1,dippr
927,ETHYNYLBENZENE,304.15,1,c1(C#C)ccccc1,dippr
928,cis-1-PROPENYLBENZENE,320.65,1,c1ccccc1/C=C\C,dippr
929,trans-1-PROPENYLBENZENE,325.15,1,c1ccccc1/C=C/C,dippr
930,NAPHTHALENE,353.15,1,c1cccc2ccccc21,dippr
931,1-METHYLNAPHTHALENE,367.15,1,c1(C)cccc2ccccc21,dippr
932,2-METHYLNAPHTHALENE,370.15,1,c1c(C)ccc2ccccc21,dippr
933,1-ETHYLNAPHTHALENE,384.15,1,c1(CC)cccc2ccccc21,dippr
934,"1,2,3,4-TETRAHYDRONAPHTHALENE",344.0,1,C1CCCc2ccccc21,dippr
935,2-ETHYLNAPHTHALENE,377.15,1,c1cccc2c1(cc(CC)cc2),dippr
936,INDENE,331.15,1,c1(CC=C2)c2cccc1,dippr
937,PHENANTHRENE,444.0,1,C1=CC2=C(C=C1)C1=C(C=CC=C1)C=C2,dippr
938,PYRENE,472.0,1,C1=CC2=C3C(=C1)C=CC1=CC=CC(=C31)C=C2,dippr
939,ADAMANTANE,359.6,1,C1C2CC3CC1CC(C2)C3,dippr
940,VINYLNORBORNENE,295.15,1,C1(CC2C=CC1C2)C=C,dippr
941,"1,3-DIMETHYLADAMANTANE",325.15,1,C1C2CC3(CC1CC(C2)(C3)C)C,dippr
942,INDANE,321.65,1,C1=CC2=C(C=C1)CCC2,dippr
943,alpha-TERPINENE,319.15,1,CC(C)C1=CC=C(CC1)C,dippr
944,gamma-TERPINENE,325.65,1,CC(C)C1=CCC(=CC1)C,dippr
945,2-NORBORNENE,258.15,1,C1CC2C=CC1C2,dippr
946,5-ETHYLIDENE-2-NORBORNENE,298.15,1,C1C(C2C=CC1C2)=CC,dippr
947,sec-BUTYLCYCLOHEXANE,323.65,1,CCC(C1CCCCC1)C,dippr
948,BICYCLO[2.2.2]OCTANE,313.15,1,C1CC2CCC1CC2,dippr
949,CAMPHENE,307.15,1,C1(C)(C)C(=C)C(C2)CCC12,dippr
950,alpha-PINENE,305.0,1,C1C(C2(C)(C))CC2C(C)=C1,dippr
951,beta-PINENE,310.65,1,C1C(=C)C(C2)C(C)(C)C2C1,dippr