,compound,flashpoint,pure substance,smiles,source
175,CYCLOPENTANONE,299.0,1,C1(=O)CCCC1,dippr
176,CYCLOHEXANONE,316.15,1,C1(=O)CCCCC1,dippr
177,2-OCTANONE,329.15,1,CC(=O)CCCCCC,dippr
178,ACETOPHENONE,350.15,1,c1ccccc1(C(=O)C),dippr
179,beta-PROPIOLACTONE,343.15,1,C1COC1(=O),dippr
180,gamma-BUTYROLACTONE,367.15,1,C1CCC(=O)O1,dippr
181,epsilon-CAPROLACTONE,382.15,1,C1(=O)OCCCCC1,dippr
182,gamma-VALEROLACTONE,369.26,1,C1C(C)OC(=O)C1,dippr
183,ETHYL ISOPROPYL KETONE,286.15,1,CCC(=O)C(C)C,dippr
184,METHYL ISOPROPENYL KETONE,278.15,1,CC(=O)C(=C)C,dippr
185,DIKETENE,307.0,1,C=C1CC(=O)O1,dippr
186,METHANOL,284.15,1,CO,dippr
187,ETHANOL,286.15,1,CCO,dippr
188,1-PROPANOL,297.59,1,CCCO,dippr
189,ISOPROPANOL,285.15,1,CC(O)C,dippr
190,1-BUTANOL,310.5,1,CCCCO,dippr
191,2-METHYL-1-PROPANOL,302.32,1,OCC(C)C,dippr
192,2-BUTANOL,296.15,1,CCC(O)C,dippr
193,2-METHYL-2-PROPANOL,284.26,1,CC(C)(O)C,dippr
194,1-PENTANOL,322.15,1,CCCCCO,dippr
195,2-PENTANOL,307.15,1,CCCC(O)C,dippr
196,2-METHYL-2-BUTANOL,292.15,1,CC(C)(O)CC,dippr
197,2-METHYL-1-BUTANOL,316.15,1,OCC(C)CC,dippr
198,"2,2-DIMETHYL-1-PROPANOL",303.15,1,OCC(C)(C)C,dippr
199,1-HEXANOL,333.15,1,CCCCCCO,dippr
200,2-HEXANOL,318.15,1,CC(O)CCCC,dippr
201,3-HEXANOL,314.15,1,CCC(O)CCC,dippr
202,2-METHYL-1-PENTANOL,323.15,1,OCC(C)CCC,dippr
203,3-METHYL-1-PENTANOL,331.15,1,CCC(C)CCO,dippr
204,3-METHYL-3-PENTANOL,297.15,1,CCC(C)(O)CC,dippr
205,3-PENTANOL,303.15,1,CCC(O)CC,dippr
206,2-ETHYL-1-HEXANOL,346.0,1,OCC(CC)CCCC,dippr
207,2-METHYL-1-HEXANOL,333.65,1,OCC(C)CCCC,dippr
208,3-METHYL-1-BUTANOL,316.0,1,OCCC(C)C,dippr
209,3-METHYL-2-BUTANOL,299.15,1,CC(O)C(C)C,dippr
210,2-HEPTANOL,332.15,1,CC(O)CCCCC,dippr
211,3-HEPTANOL,327.15,1,CCC(O)CCCC,dippr
212,5-METHYL-1-HEXANOL,338.15,1,OCCCCC(C)C,dippr
213,4-METHYL-2-PENTANOL,314.0,1,CC(O)CC(C)C,dippr
214,1-OCTANOL,359.7,1,CCCCCCCCO,dippr
215,2-OCTANOL,344.15,1,CCCCCCC(O)C,dippr
216,1-NONANOL,369.15,1,CCCCCCCCCO,dippr
217,2-NONANOL,355.15,1,CCCCCCCC(O)C,dippr
218,1-DECANOL,377.15,1,CCCCCCCCCCO,dippr
219,1-UNDECANOL,386.15,1,CCCCCCCCCCCO,dippr
220,8-METHYL-1-NONANOL,370.65,1,CC(C)CCCCCCCO,dippr
221,1-DODECANOL,400.0,1,CCCCCCCCCCCCO,dippr
222,1-TETRADECANOL,421.15,1,CCCCCCCCCCCCCCO,dippr
223,1-HEXADECANOL,443.0,1,CCCCCCCCCCCCCCCCO,dippr
224,1-OCTADECANOL,458.15,1,CCCCCCCCCCCCCCCCCCO,dippr
225,2-ETHYL-1-BUTANOL,326.15,1,OCC(CC)CC,dippr
226,CYCLOHEXANOL,334.15,1,OC1CCCCC1,dippr
227,cis-2-METHYLCYCLOHEXANOL,331.15,1,C1[C@](O)([H])([C@](C)([H])(CCC1)),dippr
228,trans-2-METHYLCYCLOHEXANOL,331.15,1,C1[C@](O)([H])([C@@](C)([H])(CCC1)),dippr
229,cis-4-METHYLCYCLOHEXANOL,343.15,1,C1[C@](O)([H])(CC[C@](C)([H])(C1)),dippr
230,L-MENTHOL,366.15,1,C1[C@H](C(C)C)([C@](O)([H])(C[C@](C)([H])(C1))),dippr
231,TETRAHYDROFURFURYL ALCOHOL,343.15,1,OCC1OCCC1,dippr
232,ALLYL ALCOHOL,294.0,1,C=CCO,dippr
233,2-PHENYL-2-PROPANOL,360.15,1,c1ccccc1(C(C)(C)O),dippr
234,2-BUTYL-OCTAN-1-OL,382.15,1,CCCCCCC(CCCC)CO,dippr
235,"2,3-XYLENOL",368.15,1,c1c(O)c(C)c(C)cc1,dippr
236,"2,4-XYLENOL",368.15,1,c1c(O)c(C)cc(C)c1,dippr
237,4-METHYL-CYCLOHEXANE-METHANOL,354.0,1,C1(C)CCC(C[OH])CC1,dippr
238,"2,5-XYLENOL",368.15,1,c1c(O)c(C)ccc1(C),dippr
239,"2,6-XYLENOL",358.15,1,c1(C)c(O)c(C)ccc1,dippr
240,PHENOL,352.15,1,c1ccccc1(O),dippr
241,o-CRESOL,354.0,1,c1(O)c(C)cccc1,dippr
242,m-CRESOL,359.15,1,c1(O)cc(C)ccc1,dippr
243,p-CRESOL,359.15,1,c1(O)ccc(C)cc1,dippr
244,o-ETHYLPHENOL,358.15,1,c1(O)c(CC)cccc1,dippr
245,p-HYDROQUINONE,438.0,1,c1(O)ccc(O)cc1,dippr
246,p-ETHYLPHENOL,373.15,1,c1(O)ccc(CC)cc1,dippr
247,p-tert-BUTYLPHENOL,386.0,1,c1(O)ccc(C(C)(C)C)cc1,dippr
248,ETHYLENE GLYCOL,384.15,1,OCCO,dippr
249,DIETHYLENE GLYCOL,413.15,1,OCCOCCO,dippr
250,TRIETHYLENE GLYCOL,429.15,1,OCCOCCOCCO,dippr
251,TETRAETHYLENE GLYCOL,469.0,1,OCCOCCOCCOCCO,dippr
252,"2,2,4,4-TETRAMETHYL-1,3-CYCLOBUTANEDIOL",392.15,1,OC1C(C)(C)C(O)C1(C)C,dippr
253,"1,2-PROPYLENE GLYCOL",372.0,1,OC(C)CO,dippr
254,DIPROPYLENE GLYCOL,391.0,1,CC(O)COCC(O)C,dippr
255,NEOPENTYL GLYCOL,380.15,1,OCC(C)(C)CO,dippr
256,TRIPROPYLENE GLYCOL,413.15,1,CC(O)COC(C)COCC(O)C,dippr
257,"2-METHYL-1,3-PROPANEDIOL",393.5,1,OCC(C)CO,dippr
258,"1,3-BUTANEDIOL",382.0,1,OCCC(O)C,dippr
259,HEXYLENE GLYCOL,366.0,1,CC(O)(C)CC(O)C,dippr
260,GLYCEROL,464.15,1,OCC(O)CO,dippr
261,MONO-TERT-BUTYLHYDROQUINONE,444.15,1,c1(C(C)(C)(C))c(O)ccc(O)c1,dippr
262,p-tert-BUTYLCATECHOL,425.0,1,c1cc(C(C)(C)C)cc(O)c1(O),dippr
263,"2,2,4-TRIMETHYL-1,3-PENTANEDIOL",382.65,1,OCC(C)(C)C(O)C(C)C,dippr
264,"2-METHYL-1,3-PENTANEDIOL",383.15,1,CCC(O)C(C)CO,dippr
265,"2,3-BUTANEDIOL",358.15,1,CC(O)C(O)C,dippr
266,"cis-2-BUTENE-1,4-DIOL",401.15,1,OC/C=C\CO,dippr
267,"trans-2-BUTENE-1,4-DIOL",401.15,1,OC/C=C/CO,dippr
268,"1,4-BUTANEDIOL",407.15,1,OCCCCO,dippr
269,"1,2-BENZENEDIOL",400.0,1,c1(O)c(O)cccc1,dippr
270,"1,3-BENZENEDIOL",444.0,1,c1(O)cc(O)ccc1,dippr
271,PENTAERYTHRITOL,533.15,1,OCC(C(O))(C(O))CO,dippr
272,FORMIC ACID,323.15,1,C(=O)O,dippr
273,ACETIC ACID,312.04,1,CC(=O)O,dippr
274,PROPIONIC ACID,330.0,1,CCC(=O)O,dippr
275,n-DECANOIC ACID,421.15,1,CCCCCCCCCC(=O)O,dippr
276,n-BUTYRIC ACID,345.15,1,CCCC(=O)O,dippr
277,n-PENTANOIC ACID,359.15,1,CCCCC(=O)O,dippr
278,ISOBUTYRIC ACID,333.15,1,CC(C)C(=O)O,dippr
279,ISOVALERIC ACID,351.15,1,CC(C)CC(=O)O,dippr
280,n-HEXANOIC ACID,375.15,1,CCCCCC(=O)O,dippr
281,2-METHYLHEXANOIC ACID,370.65,1,CCCCC(C)C(=O)O,dippr
282,"1,4-CYCLOHEXANEDICARBOXYLIC ACID",508.15,1,C1(C(=O)O)CCC(C(=O)O)CC1,dippr
283,n-OCTANOIC ACID,400.15,1,CCCCCCCC(=O)O,dippr
284,CYCLOPENTYLACETIC ACID,382.15,1,C1CCCC1(CC(=O)O),dippr
285,n-DODECANOIC ACID,437.0,1,CCCCCCCCCCCC(=O)O,dippr
286,cis-CROTONIC ACID,353.15,1,C/C=C\C(=O)O,dippr
287,trans-CROTONIC ACID,363.15,1,C/C=C/C(=O)O,dippr
288,n-OCTADECANOIC ACID,469.0,1,CCCCCCCCCCCCCCCCCC(=O)O,dippr
289,ACRYLIC ACID,324.0,1,C=CC(=O)O,dippr
290,METHACRYLIC ACID,340.0,1,C=C(C)C(=O)O,dippr
291,OLEIC ACID,462.0,1,CCCCCCCC/C=C\CCCCCCCC(=O)O,dippr
292,BENZOIC ACID,394.26,1,c1ccccc1(C(=O)O),dippr
293,SALICYLIC ACID,430.0,1,c1(O)ccccc1(C(=O)O),dippr
294,PHTHALIC ACID,441.15,1,c1(C(=O)O)c(C(=O)O)cccc1,dippr
295,TEREPHTHALIC ACID,533.15,1,c1(C(=O)O)ccc(C(=O)O)cc1,dippr
296,PERACETIC ACID,313.15,1,OOC(=O)C,dippr
297,ACETIC ANHYDRIDE,322.594,1,CC(=O)OC(=O)C,dippr
298,PROPIONIC ANHYDRIDE,336.0,1,CCC(=O)OC(=O)CC,dippr
299,BUTYRIC ANHYDRIDE,355.0,1,CCCC(=O)OC(=O)CCC,dippr
300,SUCCINIC ANHYDRIDE,425.0,1,C1(=O)OC(=O)CC1,dippr
301,GLUTARIC ANHYDRIDE,446.15,1,C1(=O)OC(=O)CCC1,dippr
302,PHTHALIC ANHYDRIDE,425.0,1,c1cc2C(=O)OC(=O)c2cc1,dippr
303,MALEIC ANHYDRIDE,375.15,1,O1C(=O)C=CC1(=O),dippr
304,TRIMELLITIC ANHYDRIDE,522.5,1,c1c(C(=O)O)cc2C(=O)OC(=O)c2c1,dippr
305,n-PROPYL FORMATE,270.15,1,CCCOC(=O),dippr
306,n-BUTYL FORMATE,286.15,1,CCCCOC(=O),dippr
307,ISOBUTYL FORMATE,283.15,1,C(=O)OCC(C)C,dippr
308,n-OCTYL FORMATE,349.5,1,CCCCCCCCOC=O,dippr
309,METHYL ACETATE,260.15,1,CC(=O)OC,dippr
310,ETHYL ACETATE,269.0,1,CC(=O)OCC,dippr
311,n-PROPYL ACETATE,283.70599999999996,1,CC(=O)OCCC,dippr
312,n-BUTYL ACETATE,298.15,1,CC(=O)OCCCC,dippr
313,ISOBUTYL ACETATE,291.0,1,CC(=O)OCC(C)C,dippr
314,ISOPENTYL ACETATE,306.15,1,CC(=O)OCCC(C)C,dippr
315,ALLYL ACETATE,286.15,1,CC(=O)OCC=C,dippr
316,sec-BUTYL ACETATE,289.0,1,CC(=O)OC(C)CC,dippr
317,METHYL PROPIONATE,271.0,1,CCC(=O)OC,dippr
318,ETHYL PROPIONATE,285.0,1,CCC(=O)OCC,dippr
319,n-PROPYL PROPIONATE,294.15,1,CCC(=O)OCCC,dippr
320,n-BUTYL PROPIONATE,313.15,1,CCC(=O)OCCCC,dippr
321,n-PROPYL n-BUTYRATE,310.15,1,CCCOC(=O)CCC,dippr
322,METHYL n-BUTYRATE,287.0,1,CCCC(=O)OC,dippr
323,ETHYL n-BUTYRATE,297.15,1,CCCC(=O)OCC,dippr
324,METHYL ACRYLATE,270.0,1,C=CC(=O)OC,dippr
325,ETHYL ACRYLATE,280.93,1,C=CC(=O)OCC,dippr
326,n-BUTYL ACRYLATE,310.15,1,CCCCOC(=O)C=C,dippr
327,ETHYL ISOVALERATE,299.15,1,CC(C)CC(=O)OCC,dippr
328,METHYL METHACRYLATE,284.15,1,C=C(C)C(=O)OC,dippr
329,n-PROPYL METHACRYLATE,306.15,1,CCCOC(=O)C(C)=C,dippr
330,DIOCTYL PHTHALATE,489.0,1,c1cc(C(=O)OCC(CC)CCCC)c(C(=O)OCC(CC)CCCC)cc1,dippr
331,n-PENTYL ACETATE,310.15,1,CC(=O)OCCCCC,dippr
332,2-ETHYLHEXYL ACETATE,344.15,1,CC(=O)OCC(CC)CCCC,dippr
333,BENZYL ACETATE,363.15,1,CC(=O)OCc1ccccc1,dippr
334,ISOBUTYL ISOBUTYRATE,311.15,1,CC(C)COC(=O)C(C)C,dippr
335,ISOPENTYL ISOVALERATE,333.15,1,CC(C)CC(=O)OCCC(C)C,dippr
336,n-BUTYL BENZOATE,379.15,1,CCCCOC(=O)c1ccccc1,dippr
337,ETHYLENE CARBONATE,425.0,1,C1OC(=O)OC1,dippr
338,n-OCTYL ACETATE,356.15,1,CC(=O)OCCCCCCCC,dippr
339,n-NONYL ACETATE,372.15,1,CC(=O)OCCCCCCCCC,dippr
340,n-DECYL ACETATE,386.5,1,CC(=O)OCCCCCCCCCC,dippr
341,METHYL SALICYLATE,369.0,1,c1cc(C(=O)OC)c(O)cc1,dippr
342,DIISOBUTYL PHTHALATE,444.5,1,c1c(C(=O)OCC(C)C)c(C(=O)OCC(C)C)ccc1,dippr
343,DIMETHYL ISOPHTHALATE,411.15,1,c1c(C(=O)OC)cc(C(=O)OC)cc1,dippr
344,n-BUTYL STEARATE,433.15,1,CCCCCCCCCCCCCCCCCC(=O)OCCCC,dippr
345,DIBUTYL SEBACATE,470.15,1,CCCCOC(=O)CCCCCCCCC(=O)OCCCC,dippr
346,n-BUTYL n-BUTYRATE,323.15,1,CCCCOC(=O)CCC,dippr
347,2-ETHYLHEXYL ACRYLATE,355.15,1,C=CC(=O)OCC(CC)CCCC,dippr
348,ETHYLENE GLYCOL DIACETATE,361.15,1,CC(=O)OCCOC(=O)C,dippr
349,ISOBUTYL METHACRYLATE,314.15,1,CC(C)COC(=O)C(=C)C,dippr
350,n-BUTYL METHACRYLATE,322.0,1,C=C(C)C(=O)OCCCC,dippr
351,METHYL BENZOATE,352.5,1,c1c(C(=O)OC)cccc1,dippr
352,ETHYL BENZOATE,361.15,1,c1c(C(=O)OCC)cccc1,dippr
353,DIETHYL CARBONATE,298.15,1,CCOC(=O)OCC,dippr
354,DIETHYL OXALATE,348.15,1,CCOC(=O)C(=O)OCC,dippr
355,DIETHYL MALONATE,358.15,1,CCOC(=O)CC(=O)OCC,dippr
356,METHYL DECANOATE,367.15,1,CCCCCCCCCC(=O)OC,dippr
357,ISOPROPYL MYRISTATE,424.5,1,CCCCCCCCCCCCCC(=O)OC(C)C,dippr
358,2-METHYLTETRAHYDROFURAN,262.15,1,O(C(CC1)C)C1,dippr
359,DIETHYL ETHER,228.15,1,CCOCC,dippr
360,DIISOPROPYL ETHER,245.0,1,CC(C)OC(C)C,dippr
361,METHYL tert-BUTYL ETHER,244.15,1,COC(C)(C)C,dippr
362,DI-sec-BUTYL ETHER,285.65,1,CCC(C)OC(C)CC,dippr
363,METHYL ETHYL ETHER,236.0,1,COCC,dippr
364,DI-n-HEXYL ETHER,354.65,1,CCCCCCOCCCCCC,dippr
365,DIVINYL ETHER,226.15,1,C=COC=C,dippr
366,ETHYL PROPYL ETHER,253.15,1,CCOCCC,dippr
367,ANETHOLE,362.15,1,CC=Cc1ccc(OC)cc1,dippr
368,"1,4-DIOXANE",284.15,1,C1OCCOC1,dippr
369,TRIOXANE,318.15,1,C1OCOCO1,dippr
370,DI-tert-BUTYL ETHER,275.65,1,CC(C)(C)OC(C)(C)C,dippr
371,DI-n-OCTYL ETHER,412.0,1,CCCCCCCCOCCCCCCCC,dippr
372,DI-n-PENTYL ETHER,330.15,1,CCCCCOCCCCC,dippr
373,METHYL sec-BUTYL ETHER,243.0,1,COC(C)CC,dippr
374,METHYL tert-PENTYL ETHER,262.15,1,COC(C)(C)CC,dippr
375,tert-BUTYL ETHYL ETHER,253.15,1,CCOC(C)(C)C,dippr
376,ACETAL,286.15,1,CCOC(C)OCC,dippr
377,TRIETHYL ORTHOFORMATE,308.15,1,CCOC(OCC)OCC,dippr
378,ETHYL HYDROPEROXIDE,305.65,1,CCOO,dippr
379,"1,2-EPOXY-2-METHYLPROPANE",241.15,1,CC1(C)CO1,dippr
380,"1,2-PROPYLENE OXIDE",236.0,1,CC1OC1,dippr
381,BUTYL VINYL ETHER,272.0,1,CCCCOC=C,dippr
382,TRIETHYLENE GLYCOL DIMETHYL ETHER,383.15,1,COCCOCCOCCOC,dippr
383,"1,2-DIMETHOXYETHANE",271.48,1,COCCOC,dippr
384,DIETHYLENE GLYCOL DIMETHYL ETHER,330.15,1,COCCOCCOC,dippr
385,TETRAETHYLENE GLYCOL DIMETHYL ETHER,414.15,1,COCCOCCOCCOCCOC,dippr
386,DIETHYLENE GLYCOL DIETHYL ETHER,344.15,1,CCOCCOCCOCC,dippr
387,DIETHYLENE GLYCOL DI-n-BUTYL ETHER,391.15,1,CCCCOCCOCCOCCCC,dippr
388,ANISOLE,318.65,1,c1ccccc1(OC),dippr
389,PHENETOLE,328.0,1,c1ccccc1(OCC),dippr
390,DIBENZYL ETHER,408.15,1,c1ccccc1(COCc1ccccc1),dippr
391,ALLYL GLYCIDYL ETHER,321.15,1,C=CCOCC1(OC1),dippr
392,DIPHENYL ETHER,388.15,1,c1ccccc1(Oc1ccccc1),dippr
393,"1,1-DIMETHOXYETHANE",256.15,1,COC(C)OC,dippr
394,METHYL VINYL ETHER,217.15,1,C=COC,dippr
395,"1,2-EPOXYBUTANE",258.15,1,CCC1CO1,dippr
396,t-BUTYL HYDROPEROXIDE,299.82,1,CC(C)(C)OO,dippr
397,DICUMYL PEROXIDE,344.15,1,c1ccccc1(C(C)(C)OOC(C)(C)c1ccccc1),dippr
398,"2,5-DIHYDROFURAN",257.15,1,C1OCC=C1,dippr
399,FURAN,237.0,1,C1=COC=C1,dippr
400,TETRAHYDROFURAN,259.15,1,C1COCC1,dippr
401,DIBENZOFURAN,403.15,1,c1cccc2c3ccccc3Oc21,dippr
402,DI-t-BUTYL PEROXIDE,277.15,1,CC(C)(C)OOC(C)(C)C,dippr
403,2-METHYLBENZOFURAN,340.15,1,c1cccc2oc(C)cc21,dippr
404,"1,2-DIMETHOXYPROPANE",273.15,1,CC(OC)COC,dippr
405,"1,4-DICHLORO-trans-2-BUTENE",326.15,1,ClC/C=C/CCl,dippr
406,"1,4-DICHLOROBUTANE",325.15,1,ClCCCCCl,dippr
407,"1,1-DICHLOROETHANE",263.15,1,CC(Cl)Cl,dippr
408,"1,2-DICHLOROETHANE",286.0,1,ClCCCl,dippr
409,"1,2-DICHLOROPROPANE",286.15,1,C(Cl)C(Cl)C,dippr
410,ISOPROPYL CHLORIDE,238.15,1,C(Cl)(C)C,dippr
411,"1,2,3-TRICHLOROPROPANE",347.0,1,C(Cl)C(Cl)C(Cl),dippr
412,"1,2-DICHLOROBUTANE",298.65,1,C(Cl)C(Cl)CC,dippr
413,"2,3-DICHLOROBUTANE",291.15,1,CC(Cl)C(Cl)C,dippr
414,TRICHLOROETHYLENE,305.15,1,C(Cl)=C(Cl)Cl,dippr
415,CHLOROCYCLOHEXANE,305.0,1,C1CCCCC1(Cl),dippr
416,BENZYL CHLORIDE,333.15,1,c1ccccc1(CCl),dippr
417,3-CHLORO-o-XYLENE,346.0,1,c1(C)c(C)c(Cl)ccc1,dippr
418,4-CHLORO-o-XYLENE,340.15,1,c1(C)c(C)cc(Cl)cc1,dippr
419,MONOCHLOROBENZENE,301.15,1,c1ccccc1(Cl),dippr
420,o-DICHLOROBENZENE,339.0,1,c1(Cl)ccccc1(Cl),dippr
421,m-DICHLOROBENZENE,336.15,1,c1c(Cl)cccc1(Cl),dippr
422,p-DICHLOROBENZENE,339.0,1,c1cc(Cl)ccc1(Cl),dippr
423,HEXACHLOROBENZENE,515.0,1,c1(Cl)c(Cl)c(Cl)c(Cl)c(Cl)c1(Cl),dippr
424,o-CHLOROTOLUENE,316.15,1,c1(C)ccccc1(Cl),dippr
425,p-CHLOROTOLUENE,322.15,1,c1cc(C)ccc1(Cl),dippr
426,"2,4-DICHLOROTOLUENE",352.15,1,c1c(Cl)c(C)ccc1(Cl),dippr
427,"cis-1,2-DICHLOROETHYLENE",277.0,1,Cl/C=C\Cl,dippr
428,"trans-1,2-DICHLOROETHYLENE",267.15,1,Cl/C=C/Cl,dippr
429,CHLOROPRENE,253.15,1,C=C(Cl)C=C,dippr
430,n-BUTYL CHLORIDE,263.75,1,CCCCCl,dippr
431,sec-BUTYL CHLORIDE,258.15,1,CCC(Cl)C,dippr
432,1-CHLOROPENTANE,284.15,1,CCCCCCl,dippr
433,1-CHLORONAPHTHALENE,394.15,1,c12c(Cl)cccc1cccc2,dippr
434,"1,1-DICHLOROETHYLENE",248.15,1,C=C(Cl)Cl,dippr
435,"1,2,4-TRICHLOROBENZENE",378.15,1,c1(Cl)c(Cl)cc(Cl)cc1,dippr
436,"1,4-DICHLORO-cis-2-BUTENE",328.15,1,ClC/C=C\CCl,dippr
437,2-CHLOROPROPENE,239.15,1,CC(Cl)=C,dippr
438,"3,4-DICHLORO-1-BUTENE",301.15,1,C=CC(Cl)CCl,dippr
439,"(Z)-1,3-DICHLORO-2-BUTENE",300.15,1,ClC/C=C(C)\Cl,dippr
440,BENZYL DICHLORIDE,361.15,1,c1ccccc1C(Cl)Cl,dippr
441,"1,2-DIFLUOROBENZENE",274.15,1,Fc1c(F)cccc1,dippr
442,m-DIBROMOBENZENE,366.15,1,c1(Br)cc(Br)ccc1,dippr
443,BROMOBENZENE,324.26,1,c1(Br)ccccc1,dippr
444,ISOPROPYL IODIDE,293.15,1,CC(I)C,dippr
445,DIMETHYLAMINE,223.15,1,CNC,dippr
446,TRIETHYLAMINE,262.15,1,CCN(CC)CC,dippr
447,DI-n-PROPYLAMINE,280.65,1,CCCNCCC,dippr
448,"N,N-DIMETHYL-n-BUTYLAMINE",270.15,1,CCCCN(C)C,dippr
449,"N,N-DIETHYLMETHYLAMINE",250.15,1,CCN(C)CC,dippr
450,DIETHYLAMINE,245.15,1,CCNCC,dippr
451,n-PENTYLAMINE,280.15,1,CCCCCN,dippr
452,ISOBUTYLAMINE,260.15,1,CC(C)CN,dippr
453,HYDRAZINE,313.15,1,NN,dippr
454,DIISOBUTYLAMINE,297.35,1,CC(C)CNCC(C)C,dippr
455,ISOPROPYLAMINE,236.15,1,CC(C)N,dippr
456,PYRROLE,312.0,1,C1=CC=CN1,dippr
457,METHYL DIETHANOLAMINE,411.15,1,CN(CCO)CCO,dippr
458,TRIETHANOLAMINE,463.15,1,OCCN(CCO)CCO,dippr
459,sec-BUTYLAMINE,254.15,1,CCC(N)C,dippr
460,CYCLOHEXYLAMINE,299.65,1,C1(N)CCCCC1,dippr
461,DEHYDROABIETYLAMINE,464.0,1,C1C[C@](C)(CN)([C@@]2([H])(CCC3=CC(C(C)C)=CC=C3C2(C)C1)),dippr
462,HEXAMETHYLENEDIAMINE,354.15,1,NCCCCCCN,dippr
463,BENZYLAMINE,338.15,1,c1(CN)ccccc1,dippr
464,o-TOLUIDINE,358.15,1,c1(C)c(N)cccc1,dippr
465,m-TOLUIDINE,359.0,1,c1(C)cc(N)ccc1,dippr
466,p-TOLUIDINE,360.0,1,c1(C)ccc(N)cc1,dippr
467,TRIETHYLENETETRAMINE,408.15,1,NCCNCCNCCN,dippr
468,ETHYLENEDIAMINE,311.0,1,NCCN,dippr
469,ETHYLENEIMINE,262.04,1,C1CN1,dippr
470,DIISOPROPYLAMINE,266.15,1,CC(C)NC(C)C,dippr
471,DI-n-BUTYLAMINE,315.0,1,CCCCNCCCC,dippr
472,PIPERIDINE,280.15,1,C1CCCCN1,dippr
473,p-AMINODIPHENYLAMINE,466.5,1,c1ccccc1Nc2ccc(N)cc2,dippr
474,QUINOLINE,374.0,1,c1(cccn2)c2cccc1,dippr
475,HEXAMETHYLENETETRAMINE,523.15,1,C1N2CN3CN1CN(C3)C2,dippr
476,"1,2-PROPANEDIAMINE",306.15,1,CC(N)CN,dippr
477,"N,N-DIETHYLANILINE",358.15,1,c1ccccc1N(CC)CC,dippr
478,N-METHYLPYRROLE,288.15,1,n1(C)cccc1,dippr
479,DIPHENYLAMINE,426.0,1,c1ccccc1Nc2ccccc2,dippr
480,QUINALDINE,383.15,1,c1(ccc(C)n2)c2cccc1,dippr
481,NITROMETHANE,308.15,1,C[N+](=O)[O-],dippr
482,NITROETHANE,303.15,1,CC[N+](=O)[O-],dippr
483,1-NITROPROPANE,308.15,1,CCC[N+](=O)[O-],dippr
484,2-NITROPROPANE,301.0,1,CC([N+](=O)[O-])C,dippr
485,MORPHOLINE,308.15,1,C1NCCOC1,dippr
486,PYRROLIDINE,276.0,1,C1CCCN1,dippr
487,N-METHYLPYRROLIDINE,259.0,1,C1CCCN1(C),dippr
488,1-NITROBUTANE,320.15,1,CCCC[N+](=O)[O-],dippr
489,HYDROGEN CYANIDE,255.15,1,C#N,dippr
490,ACETONITRILE,275.15,1,CC#N,dippr
491,PROPIONITRILE,280.15,1,CCC#N,dippr
492,ACRYLONITRILE,268.15,1,C=CC#N,dippr
493,SUCCINONITRILE,405.0,1,N#CCCC#N,dippr
494,o-NITROTOLUENE,379.0,1,c1(C)c([N+](=O)[O-])cccc1,dippr
495,p-NITROTOLUENE,379.0,1,c1(C)ccc([N+](=O)[O-])cc1,dippr
496,m-NITROTOLUENE,375.0,1,c1(C)cc([N+](=O)[O-])ccc1,dippr
497,BUTYRONITRILE,291.15,1,CCCC#N,dippr
498,VALERONITRILE,307.15,1,CCCCC#N,dippr
499,MALONONITRILE,385.15,1,N#CCC#N,dippr
500,HEXANENITRILE,316.15,1,CCCCCC#N,dippr
501,ISOBUTYRONITRILE,281.48,1,CC(C)C#N,dippr
502,BENZONITRILE,344.15,1,c1(C#N)ccccc1,dippr
503,PYRIDINE,293.15,1,n1ccccc1,dippr
504,ANILINE,344.15,1,c1(N)ccccc1,dippr
505,"2,4-TOLUENE DIISOCYANATE",400.15,1,C1=CC(=C(C=C1N=C=O)N=C=O)C,dippr
506,HEXAMETHYLENEIMINE,301.15,1,C1CCCCCN1,dippr
507,N-METHYLANILINE,351.0,1,c1(NC)ccccc1,dippr
508,"N,N-DIMETHYLANILINE",348.15,1,c1(N(C)C)ccccc1,dippr
509,2-METHYLPYRIDINE,299.15,1,n1c(C)cccc1,dippr
510,cis-CROTONITRILE,288.65,1,C/C=C\C#N,dippr
511,n-PROPYL MERCAPTAN,253.15,1,CCCS,dippr
512,tert-BUTYL MERCAPTAN,249.15,1,CC(C)(C)S,dippr
513,ISOBUTYL MERCAPTAN,264.15,1,CC(C)CS,dippr
514,n-HEXYL MERCAPTAN,305.65,1,CCCCCCS,dippr
515,n-NONYL MERCAPTAN,351.15,1,CCCCCCCCCS,dippr
516,n-OCTYL MERCAPTAN,341.15,1,CCCCCCCCS,dippr
517,ISOPROPYL MERCAPTAN,239.0,1,CC(S)C,dippr
518,CYCLOHEXYL MERCAPTAN,312.15,1,C1(S)CCCCC1,dippr
519,BENZYL MERCAPTAN,343.15,1,c1(CS)ccccc1,dippr
520,METHYL ETHYL SULFIDE,258.15,1,CSCC,dippr
521,METHYL t-BUTYL SULFIDE,270.15,1,CSC(C)(C)C,dippr
522,DI-n-PROPYL SULFIDE,305.15,1,CCCSCCC,dippr
523,DIETHYL SULFIDE,263.15,1,CCSCC,dippr
524,DIMETHYL SULFIDE,237.15,1,CSC,dippr
525,THIOPHENE,266.45,1,S1C=CC=C1,dippr
526,BENZOTHIOPHENE,364.15,1,c1(SC=C2)c2cccc1,dippr
527,DIETHYL DISULFIDE,313.15,1,CCSSCC,dippr
528,n-DECYL MERCAPTAN,371.15,1,CCCCCCCCCCS,dippr
529,n-PENTYL MERCAPTAN,291.15,1,CCCCCS,dippr
530,DIMETHYL DISULFIDE,288.15,1,CSSC,dippr
531,DI-n-PROPYL DISULFIDE,339.15,1,CCCSSCCC,dippr
532,2-METHYL BENZOTHIOPHENE,386.15,1,c1cccc(C=C(C)S2)c21,dippr
533,n-DODECYL MERCAPTAN,393.0,1,CCCCCCCCCCCCS,dippr
534,tert-OCTYL MERCAPTAN,304.0,1,CC(S)(C)CC(C)(C)C,dippr
535,n-HEPTYL MERCAPTAN,323.65,1,CCCCCCCS,dippr
536,DIALLYL SULFIDE,298.65,1,C=CCSCC=C,dippr
537,n-BUTYL MERCAPTAN,274.15,1,CCCCS,dippr
538,PHENYL MERCAPTAN,328.15,1,c1(S)ccccc1,dippr
539,TETRAHYDROTHIOPHENE,291.0,1,S1CCCC1,dippr
540,DIMETHYL SULFOXIDE,361.0,1,CS(=O)C,dippr
541,DI-n-PROPYL SULFONE,399.15,1,CCCS(=O)(=O)CCC,dippr
542,DI-n-BUTYL SULFONE,416.15,1,CCCCS(=O)(=O)CCCC,dippr
543,ACETYL CHLORIDE,269.15,1,CC(=O)Cl,dippr
544,CHLOROACETIC ACID,399.15,1,ClCC(=O)O,dippr
545,DICHLOROACETYL CHLORIDE,339.0,1,ClC(Cl)C(=O)Cl,dippr
546,BENZOYL CHLORIDE,345.0,1,c1(C(=O)Cl)ccccc1,dippr
547,p-CHLOROBENZOTRIFLUORIDE,316.0,1,c1(C(F)(F)F)ccc(Cl)cc1,dippr
548,o-CHLOROANILINE,363.71,1,c1(N)c(Cl)cccc1,dippr
549,CHLOROMETHYL METHYL ETHER,265.15,1,ClCOC,dippr
550,"1,3-DICHLORO-2-PROPANOL",358.15,1,ClCC(O)CCl,dippr
551,DI(2-CHLOROETHYL)ETHER,348.15,1,ClCCOCCCl,dippr
552,3-(METHYLMERCAPTO)PROPANAL,334.15,1,CSCCC=O,dippr
553,3-MERCAPTOPROPIONIC ACID,366.15,1,SCCC(=O)O,dippr
554,"N,N-DIMETHYLFORMAMIDE",330.15,1,CN(C)C=O,dippr
555,UREA,395.0,1,NC(=O)N,dippr
556,epsilon-CAPROLACTAM,412.65,1,N1CCCCCC1=O,dippr
557,alpha-EPICHLOROHYDRIN,304.0,1,ClCC1CO1,dippr
558,ACETONE CYANOHYDRIN,347.15,1,CC(C)(O)C#N,dippr
559,TRI-n-BUTYL BORATE,366.0,1,CCCCOB(OCCCC)OCCCC,dippr
560,TRIPHENYLPHOSPHINE,453.15,1,P(c1ccccc1)(c2ccccc2)(c3ccccc3),dippr
561,HEXAMETHYL PHOSPHORAMIDE,378.705,1,P(=O)(N(C)C)(N(C)C)(N(C)C),dippr
562,NITROBENZENE,361.0,1,c1([N+](=O)[O-])ccccc1,dippr
563,FURFURAL,333.15,1,O1C=CC=C1(C=O),dippr
564,ETHYLENE GLYCOL DIACRYLATE,373.15,1,C=CC(=O)OCCOC(=O)C=C,dippr
565,PROPYLENE GLYCOL MONOMETHYL ETHER ACETATE,316.0,1,CC(=O)OC(C)COC,dippr
566,DIPROPYLENE GLYCOL MONOMETHYL ETHER ACETATE,359.0,1,COCC(C)OCC(C)OC(=O)C,dippr
567,METHOXYDIHYDROPYRAN,299.15,1,O1C=CCCC1(OC),dippr
568,SULFUR,480.0,1,[S],dippr
569,CARBON DISULFIDE,243.15,1,S=C=S,dippr