,compound,flashpoint,pure substance,smiles,source
907,m-TERPHENYL,464.0,1,c1ccccc1(c2cc(c3ccccc3)ccc2),dippr
908,o-TERPHENYL,436.0,1,c1ccccc1(c2c(c3ccccc3)cccc2),dippr
909,"1,2-DIPHENYLETHANE",398.15,1,c1ccccc1CCc2ccccc2,dippr
910,n-PENTYLBENZENE,339.15,1,c1ccccc1(CCCCC),dippr
911,HEXYLBENZENE,356.15,1,c1ccccc1(CCCCCC),dippr
912,1-OCTYLBENZENE,380.15,1,c1ccccc1(CCCCCCCC),dippr
913,2-PHENYL-1-BUTENE,325.15,1,C=C(c1ccccc1)CC,dippr
914,PHENYLETHENE,305.0,1,C=Cc1ccccc1,dippr
915,1-ETHENYL-2-METHYL BENZENE,320.15,1,C=Cc1c(C)cccc1,dippr
916,1-ETHENYL-3-METHYL BENZENE,324.15,1,C=Cc1cc(C)ccc1,dippr
917,1-((3E)PENT-3-ENYL)-2-METHYLBENZENE,361.0,1,C1(CCC=CC)=CC=CC=C1C,dippr
918,2-ETHYL-1-VINYLBENZENE,333.15,1,CCC1=C(C=C)C=CC=C1,dippr
919,3-ETHYL-1-VINYLBENZENE,335.65,1,CCC1=CC(C=C)=CC=C1,dippr
920,p-METHYLSTYRENE,320.65,1,C=Cc1ccc(C)cc1,dippr
921,alpha-METHYLSTYRENE,315.65,1,c1(C(C)=C)ccccc1,dippr
922,m-DIVINYL BENZENE,340.15,1,c1(C=C)cc(C=C)ccc1,dippr
923,ETHYNYLBENZENE,304.15,1,c1(C#C)ccccc1,dippr
924,cis-1-PROPENYLBENZENE,320.65,1,c1ccccc1/C=C\C,dippr
925,trans-1-PROPENYLBENZENE,325.15,1,c1ccccc1/C=C/C,dippr
926,NAPHTHALENE,353.15,1,c1cccc2ccccc21,dippr
927,1-METHYLNAPHTHALENE,367.15,1,c1(C)cccc2ccccc21,dippr
928,2-METHYLNAPHTHALENE,370.15,1,c1c(C)ccc2ccccc21,dippr
929,1-ETHYLNAPHTHALENE,384.15,1,c1(CC)cccc2ccccc21,dippr
930,"1,2,3,4-TETRAHYDRONAPHTHALENE",344.0,1,C1CCCc2ccccc21,dippr
931,2-ETHYLNAPHTHALENE,377.15,1,c1cccc2c1(cc(CC)cc2),dippr
932,INDENE,331.15,1,c1(CC=C2)c2cccc1,dippr
933,PHENANTHRENE,444.0,1,C1=CC2=C(C=C1)C1=C(C=CC=C1)C=C2,dippr
934,PYRENE,472.0,1,C1=CC2=C3C(=C1)C=CC1=CC=CC(=C31)C=C2,dippr
935,ADAMANTANE,359.6,1,C1C2CC3CC1CC(C2)C3,dippr
936,VINYLNORBORNENE,295.15,1,C1(CC2C=CC1C2)C=C,dippr
937,"1,3-DIMETHYLADAMANTANE",325.15,1,C1C2CC3(CC1CC(C2)(C3)C)C,dippr
938,INDANE,321.65,1,C1=CC2=C(C=C1)CCC2,dippr
939,alpha-TERPINENE,319.15,1,CC(C)C1=CC=C(CC1)C,dippr
940,gamma-TERPINENE,325.65,1,CC(C)C1=CCC(=CC1)C,dippr
941,2-NORBORNENE,258.15,1,C1CC2C=CC1C2,dippr
942,5-ETHYLIDENE-2-NORBORNENE,298.15,1,C1C(C2C=CC1C2)=CC,dippr
943,sec-BUTYLCYCLOHEXANE,323.65,1,CCC(C1CCCCC1)C,dippr
944,BICYCLO[2.2.2]OCTANE,313.15,1,C1CC2CCC1CC2,dippr
945,CAMPHENE,307.15,1,C1(C)(C)C(=C)C(C2)CCC12,dippr
946,alpha-PINENE,305.0,1,C1C(C2(C)(C))CC2C(C)=C1,dippr
947,beta-PINENE,310.65,1,C1C(=C)C(C2)C(C)(C)C2C1,dippr