smiles,compound,flashpoint,source,pure substance
CC1CCCC1,methylcyclopentane,246,Saldana11,1
C=C1CCCC1,methylenecyclopentane,254,Saldana11,1
CCCCCCCCCCCCCCCCCCCC1CCCCC1,nonadecylcyclohexane,,Saldana11,1
CCCCCCCCCC1CCCCC1,nonylcyclohexane,,Saldana11,1
CCCCCCCCCCCCCCCCCCC1CCCCC1,octadecylcyclohexane,,Saldana11,1
CCCCCCCCC1CCCCC1,octylcyclohexane,,Saldana11,1
CCCCCCCCC1CCCC2CCCCC12,octyldecalin,,Saldana11,1
CCCCCCCCCCCCCCCC1CCCCC1,pentadecylcyclohexane,,Saldana11,1
CCCCCC1CCCCC1,pentylcyclohexane,339,Saldana11,1
C=CCC1CCCCC1,prop-2-enylcyclohexane,302,Saldana11,1
C=CCC1CCCC1,prop-2-enylcyclopentane,285,Saldana11,1
CCCC1CCCCC1,propylcyclohexane,304,Saldana11,1
CCCC1CCCC1,propylcyclopentane,289,Saldana11,1
CCCC1CCCC2CCCCC12,propyldecalin,,Saldana11,1
CC[C@@H](C)C1CCCC2CCCCC12,sec-(R)butyldecalin,,Saldana11,1
CC[C@H](C)C1CCCC2CCCCC12,sec-(S)butyldecalin,,Saldana11,1
CC1=CCC(=C(C)C)CC1,terpinolene,311,Saldana11,1
CC(C)(C)C1CCCCC1,tert-butylcyclohexane,315,Saldana11,1
CC(C)(C)C1CCCC2CCCCC12,tert-butyldecalin,,Saldana11,1
CCCCCCCCCCCCCCC1CCCCC1,tetradecylcyclohexane,,Saldana11,1
C[C@@H]1CCCC[C@H]1C,"trans-1,2-dimethylcyclohexane",280,Saldana11,1
C[C@@H]1CCC[C@@H](C)C1,"trans-1,3-dimethylcyclohexane",281,Saldana11,1
C[C@@H]1CC[C@@H](C)CC1,"trans-1,4-dimethylcyclohexane",284,Saldana11,1
C1CC[C@@H]2CCCC[C@H]2C1,trans-decalin,325,Saldana11,1
CCCCCCCCCCCCCC1CCCCC1,tridecylcyclohexane,,Saldana11,1
CCCCCCCCCCCC1CCCCC1,undecylcyclohexane,,Saldana11,1
CCCCCCCCC[C@@H](C)/C=C/[C@H](C)CCCCCCCCC,"(11E)-(10R,13R)-dimethyldoeicos-11-ene",,Saldana11,1
CCCCCCCCC[C@@H](C)/C=C/[C@@H](C)CCCCCCCCC,"(11E)-(10R,13S)-dimethyldoeicos-11-ene",,Saldana11,1
CCCCCCCCC[C@H](C)/C=C/[C@@H](C)CCCCCCCCC,"(11E)-(10S,13S)-dimethyldoeicos-11-ene",,Saldana11,1
CCCCCCCCC[C@@H](C)/C=C\[C@H](C)CCCCCCCCC,"(11Z)-(10R,13R)-dimethyldoeicos-11-ene",,Saldana11,1
CCCCCCCCC[C@@H](C)/C=C\[C@@H](C)CCCCCCCCC,"(11Z)-(10R,13S)-dimethyldoeicos-11-ene",,Saldana11,1
CCCCCCCCC[C@H](C)/C=C\[C@@H](C)CCCCCCCCC,"(11Z)-(10S,13S)-dimethyldoeicos-11-ene",,Saldana11,1
C/C=C/C=C/C,"(2E,4E)-hexa-2,4-diene",266,Saldana11,1
CCC/C=C/C,(2E)-2-hexene,246,Saldana11,1
CC/C=C/C,(2E)-2-pentene,228,Saldana11,1
CCC/C=C/CC,(2E)-3-heptene,267,Saldana11,1
CC/C(=C/C)/C,(2E)-3-methylpent-2-ene,246,Saldana11,1
C/C=C/C(C)C,(2E)-4-methylpent-2-ene,239,Saldana11,1
CCCC/C=C/C,(2E)-hept-2-ene,272,Saldana11,1
CCCCC/C=C/C,(2E)-oct-2-ene,294,Saldana11,1
C/C=C/C=C\C,"(2Z,4E)-hexa-2,4-diene",266,Saldana11,1
CC/C(=C\C)/C,(2Z)-3-methylpent-2-ene,245,Saldana11,1
C/C=C\C(C)C,(2Z)-4-methylpent-2-ene,237,Saldana11,1
C/C=C\C,(2Z)-but-2-ene,200,Saldana11,1
CCCC/C=C\C,(2Z)-hept-2-ene,265,Saldana11,1
CCC/C=C\C,(2Z)-hex-2-ene,247,Saldana11,1
CCCCC/C=C\C,(2Z)-oct-2-ene,294,Saldana11,1
CC/C=C\C,(2Z)-pent-2-ene,226,Saldana11,1
CC/C=C/C=C,"(3E)-1,3-hexadiene",254,Saldana11,1
CC/C=C/CC,(3E)-3-hexene,261,Saldana11,1
CCCC/C=C/CC,(3E)-3-octene,282,Saldana11,1
CCC/C=C\CC,(3Z)-hept-3-ene,264,Saldana11,1
CC/C=C\CC,(3Z)-hex-3-ene,245,Saldana11,1
CCCC/C=C\CC,(3Z)-oct-3-ene,290,Saldana11,1
CCCCCCC/C=C(\CCC)/CCCC,(4E)-4-butyldodec-4-ene,,Saldana11,1
C=CC/C=C/C,"(4E)-hexa-1,4-diene",248,Saldana11,1
CCC/C=C/CCC,(4E)-oct-4-ene,281,Saldana11,1
CCCCCCC/C=C(/CCC)\CCCC,(4Z)-4-butyldodec-4-ene,,Saldana11,1
CCCCCCC/C(=C\CCC)/CCCC,(4Z)-5-butyldodec-4-ene,,Saldana11,1
C=CC/C=C\C,"(4Z)-hexa-1,4-diene",248,Saldana11,1
CCC/C=C\CCC,(4Z)-oct-4-ene,290,Saldana11,1
CCCCCCC/C(=C/CCC)/CCCC,(5E)-5-butyldodec-4-ene,,Saldana11,1
CCCCCC/C(=C(\C)/CCC=C(C)C)/C,"(6E)-2,6,7-trimethyltridec-2,6-diene",,Saldana11,1
CCCCCC/C(=C(/C)\CCC=C(C)C)/C,"(6Z)-2,6,7-trimethyltridec-2,6-diene",,Saldana11,1
CCCCCC[C@@H](C)/C=C/[C@H](C)CCCCCC,"(8E)-(7R,10R)-dimethylhexadec-8-ene",,Saldana11,1
CCCCCC[C@@H](C)/C=C/[C@@H](C)CCCCCC,"(8E)-(7R,10S)-dimethylhexadec-8-ene",,Saldana11,1
CCCCCC[C@H](C)/C=C/[C@@H](C)CCCCCC,"(8E)-(7S,10S)-dimethylhexadec-8-ene",,Saldana11,1
CCCCCCC/C(=C/CCCCCC)/CCC,(8E)-8-propylpentadec-8-ene,,Saldana11,1
CCCCCC[C@@H](C)/C=C\[C@H](C)CCCCCC,"(8Z)-(7R,10R)-dimethylhexadec-8-ene",,Saldana11,1
CCCCCC[C@@H](C)/C=C\[C@@H](C)CCCCCC,"(8Z)-(7R,10S)-dimethylhexadec-8-ene",,Saldana11,1
CCCCCC[C@H](C)/C=C\[C@@H](C)CCCCCC,"(8Z)-(7S,10S)-dimethylhexadec-8-ene",,Saldana11,1
CCCCCCC/C(=C\CCCCCC)/CCC,(8Z)-8-propylpentadec-8-ene,,Saldana11,1
CCCCCCCC/C(=C/CCCCCCC)/C,(9E)-9-methylheptadec-9-ene,,Saldana11,1
CCCCCCCC/C(=C\CCCCCCC)/C,(9Z)-9-methylheptadec-9-ene,,Saldana11,1
CC1=CCCCC1,1-methylcyclohex-1-ene,272,Saldana11,1
CC1=CCCC1,1-methylcyclopent-1-ene,256,Saldana11,1
CC1CCCC(=C1)C,"1,3-dimethylcyclohex-1-ene",285,Saldana11,1
CCC(=C)CC,2-ethylbut-1-ene,247,Saldana11,1
CCCC(=C)CC,2-ethylpent-1-ene,263,Saldana11,1
CCC(=C)C,2-methylbut-1-ene,226,Saldana11,1
CC=C(C)C,2-methylbut-2-ene,228,Saldana11,1
CCCCCC(=C)C,2-methylhept-1-ene,283,Saldana11,1
CCCCC=C(C)C,2-methylhept-2-ene,281,Saldana11,1
CCCCC(=C)C,2-methylhex-1-ene,267,Saldana11,1
CCCC(=C)C,2-methylpent-1-ene,247,Saldana11,1
CCC=C(C)C,2-methylpent-2-ene,250,Saldana11,1
CC(=C)C,2-methylprop-1-ene,197,Saldana11,1
C=C(CC(C)(C)C)CC(C)(C)CC(C)(C)C,"2,2,6,6,8,8-hexamethyl-4-methylene-nonane",,Saldana11,1
CC(=C)C(C)C,"2,3-dimethylbut-1-ene",255,Saldana11,1
CC(=C(C)C)C,"2,3-dimethylbut-2-ene",257,Saldana11,1
CC(=C)C(=C)C,"2,3-dimethylbuta-1,3-diene",251,Saldana11,1
CCCC(C)C(=C)C,"2,3-dimethylhex-1-ene",281,Saldana11,1
CCC(C)C(=C)C,"2,3-dimethylpent-1-ene",256,Saldana11,1
CC(=C)C(C)(C)C,"2,3,3-trimethylbut-1-ene",256,Saldana11,1
CC(C)C(=C(C)C)C,"2,3,4-trimethylpent-2-ene",275,Saldana11,1
CC(=C)CC(C)(C)C,"2,4,4-trimethylpent-1-ene",268,Saldana11,1
CC(=CC(C)(C)C)C,"2,4,4-trimethylpent-2-ene",272,Saldana11,1
CC(=C)CCC(=C)C,"2,5-dimethylhexa-1,5-diene",280,Saldana11,1
CC(=CC=C(C)C)C,"2,5-dimethylhexa-2,4-diene",297,Saldana11,1
CC(C)CCCC(=C)C,"2,6-dimethylhept-1-ene",,Saldana11,1
CCCC(CC)C=C,3-ethylhex-1-ene,274,Saldana11,1
CCC(CC)C=C,3-ethylpent-1-ene,256,Saldana11,1
CCC(=CC)CC,3-ethylpent-2-ene,267,Saldana11,1
C=CC(C)C,3-methylbut-1-ene,217,Saldana11,1
C=C=C(C)C,"3-methylbuta-1,2-diene",261,Saldana11,1
CC1CCCC=C1,3-methylcyclohex-1-ene,270,Saldana11,1
CC(CCC)C=C,3-methylhex-1-ene,255,Saldana11,1
CC(CC)C=C,3-methylpent-1-ene,245,Saldana11,1
CC=C(C)C=C,"3-methylpenta-1,3-diene",245,Saldana11,1
CCC(=CCCCCCCC=C(CC)CC)CC,"3,12-diethyltetradeca-3,11-diene",,Saldana11,1
C=CC(C)(C)C,"3,3-dimethylbut-1-ene",245,Saldana11,1
C=CC1CCC=CC1,4-ethenylcyclohex-1-ene,289,Saldana11,1
CC1CCC=CC1,4-methylcyclohex-1-ene,,Saldana11,1
CCCC(C)CC=C,4-methylhept-1-ene,275,Saldana11,1
CC(CC=C)CC,4-methylhex-1-ene,258,Saldana11,1
C=CCC(C)C,4-methylpent-1-ene,242,Saldana11,1
C=CC=C(C)C,"4-methylpenta-1,3-diene",255,Saldana11,1
C=CCC(C)(C)C,"4,4-dimethylpent-1-ene",261,Saldana11,1
C=CCCC(C)C,5-methylhex-1-ene,263,Saldana11,1
CCCCCCCC=C(CCCCCC)CCCCCC,7-hexylpentadec-7-ene,,Saldana11,1
C=CCCCCC(C)C,7-methyloct-1-ene,291,Saldana11,1
CCCCCC[C@@H](CCCC)CCCCC=C,7(R)-7-butyltridec-1-ene,,Saldana11,1
CCCCCC[C@H](CCCC)CCCCC=C,7(S)-7-butyltridec-1-ene,,Saldana11,1
CCC=C,but-1-ene,193,Saldana11,1
C=CC=C,"buta-1,3-diene",197,Saldana11,1
C1CCC=CCC1,cycloheptene,267,Saldana11,1
C1CCC=CC1,cyclohexene,243,Saldana11,1
C1CCCC=CCC1,cyclooctene,298,Saldana11,1
C1CC=CC1,cyclopentene,244,Saldana11,1
CCCCCCCCC=C,dec-1-ene,311,Saldana11,1
C=CCCCCCCC=C,"dec-1,9-diene",,Saldana11,1
CCCCCCCCCCC=C,dodec-1-ene,346,Saldana11,1
C=CC1CCCCC1,ethenylcyclohexane,,Saldana11,1
CCCCCC=C,hept-1-ene,265,Saldana11,1
CCCCCC#C,hept-1-yne,,Saldana11,1
C=CCCCC=C,"hepta-1,6-diene",263,Saldana11,1
CCCCCCCCCCCCCCCC=C,heptadec-1-ene,408,Saldana11,1
CCCCC=C,hex-1-ene,247,Saldana11,1
C=CCCC=C,"hexa-1,5-diene",246,Saldana11,1
CCCCCCCCCCCCCCC=C,hexadec-1-ene,405,Saldana11,1
C=CC(=C)C,isoprene,219,Saldana11,1
CCCCCCCC=C,non-1-ene,298,Saldana11,1
C=CCCCCCC=C,"nona-1,8-diene",299,Saldana11,1
CCCCCCC=C,oct-1-ene,281,Saldana11,1
C=CCCCCC=C,"octa-1,7-diene",282,Saldana11,1
CCCCCCCCCCCCCCCCC=C,octadec-1-ene,421,Saldana11,1
CCCC=C,pent-1-ene,222,Saldana11,1
CCCCCCCCCCCCCC=C,pentadec-1-ene,385,Saldana11,1
CC=C,propylene,165,Saldana11,1
CCCCCCCCCCCCC=C,tetradec-1-ene,370,Saldana11,1
CCCCCCCCCCCC=C,tridec-1-ene,352,Saldana11,1
CCCCCCCCCC=C,undec-1-ene,327,Saldana11,1
CCCCCCCCC[C@@H](C)CC[C@H](C)CCCCCCCCC,"(10R,13R)-dimethyldocosane",,Saldana11,1
CCCCCCCCC[C@@H](C)CC[C@@H](C)CCCCCCCCC,"(10R,13S)-dimethyldocosane",,Saldana11,1
CCCCCCCCC[C@H](C)CC[C@@H](C)CCCCCCCCC,"(10S,13S)-dimethyldocosane",,Saldana11,1
CCCCCCCCCCC[C@@H](C)CCCC[C@H](C)CC,"(3R,10R)-dimethylnonadecane",,Saldana11,1
CCCCCCCCCCC[C@H](C)CCCC[C@H](C)CC,"(3R,10S)-dimethylnonadecane",,Saldana11,1
CCCCCCCCCC[C@@H](C)[C@H](C)CC,"(3R,4R)-dimethyltetradecane",,Saldana11,1
CCCCCCCCCC[C@H](C)[C@H](C)CC,"(3R,4S)-dimethyltetradecane",,Saldana11,1
CCC(CC)CCCCC[C@@H](C)C[C@H](C)CC,"(3R,5R)-dimethyl-11-ethyltridecane",,Saldana11,1
CCCCCCCC(CC)[C@H](C)C[C@H](C)CC,"(3R,5R)-dimethyl-6-ethyltridecane",,Saldana11,1
CCC[C@@H](CC)[C@H](C)C[C@H](C)CC,"(3R,5R)-dimethyl-6(R)-ethylnonane",,Saldana11,1
CCC(CC)CCC[C@@H](C)C[C@H](C)CC,"(3R,5R)-dimethyl-9-ethylundecane",,Saldana11,1
CCCC[C@@H](C)C[C@H](C)CC,"(3R,5R)-dimethylnonane",,Saldana11,1
CC[C@@H](C)C[C@@H](C)[C@H](C)CC,"(3R,5S,6R)-trimethyloctane",,Saldana11,1
CCC(CC)CCCCC[C@H](C)C[C@H](C)CC,"(3R,5S)-dimethyl-11-ethyltridecane",,Saldana11,1
CCCCCCCC(CC)[C@@H](C)C[C@H](C)CC,"(3R,5S)-dimethyl-6-ethyltridecane",,Saldana11,1
CCCCC[C@@H](CC)[C@H](C)C[C@H](C)CC,"(3R,5S)-dimethyl-6(R)-ethylundecane",,Saldana11,1
CCC(CC)CCC[C@H](C)C[C@H](C)CC,"(3R,5S)-dimethyl-9-ethylundecane",,Saldana11,1
CCCC[C@H](C)C[C@H](C)CC,"(3R,5S)-dimethylnonane",,Saldana11,1
CCCCC[C@@H](C)CC[C@H](C)CC,"(3R,6R)-dimethylundecane",,Saldana11,1
CCCCC[C@H](C)CC[C@H](C)CC,"(3R,6S)-dimethylundecane",,Saldana11,1
CCCCCC[C@@H](C)CCC[C@H](C)CC,"(3R,7R)-dimethyltridecane",,Saldana11,1
CCCCCC[C@H](C)CCC[C@H](C)CC,"(3R,7S)-dimethyltridecane",,Saldana11,1
CCCCCCC[C@@H](C)CCCC[C@H](C)CC,"(3R,8R)-dimethylpentadecane",,Saldana11,1
CCCCCCC[C@H](C)CCCC[C@H](C)CC,"(3R,8S)-dimethylpentadecane",,Saldana11,1
CCCCCCCCC[C@@H](C)CCCC[C@H](C)CC,"(3R,9R)-dimethylheptadecane",,Saldana11,1
CCCCCCCCC[C@H](C)CCCC[C@H](C)CC,"(3R,9S)-dimethylheptadecane",,Saldana11,1
CCCCCCCCCCC[C@@H](C)CCCC[C@@H](C)CC,"(3S,10R)-dimethylnonadecane",,Saldana11,1
CCCCCCCCCCC[C@H](C)CCCC[C@@H](C)CC,"(3S,10S)-dimethylnonadecane",,Saldana11,1
CCCCCCCCCC[C@@H](C)[C@@H](C)CC,"(3S,4R)-dimethyltetradecane",,Saldana11,1
CCCCCCCCCC[C@H](C)[C@@H](C)CC,"(3S,4S)-dimethyltetradecane",,Saldana11,1
CCC(CC)CCCCC[C@@H](C)C[C@@H](C)CC,"(3S,5R)-dimethyl-11-ethyltridecane",,Saldana11,1
CCCCCCCC(CC)[C@H](C)C[C@@H](C)CC,"(3S,5R)-dimethyl-6-ethyltridecane",,Saldana11,1
CCC(CC)CCC[C@@H](C)C[C@@H](C)CC,"(3S,5R)-dimethyl-9-ethylundecane",,Saldana11,1
CCCC[C@@H](C)C[C@@H](C)CC,"(3S,5R)-dimethylnonane",,Saldana11,1
CCC(CC)CCCCC[C@H](C)C[C@@H](C)CC,"(3S,5S)-dimethyl-11-ethyltridecane",,Saldana11,1
CCCCCCCC(CC)[C@@H](C)C[C@@H](C)CC,"(3S,5S)-dimethyl-6-ethyltridecane",,Saldana11,1
CCC(CC)CCC[C@H](C)C[C@@H](C)CC,"(3S,5S)-dimethyl-9-ethylundecane",,Saldana11,1
CCCC[C@H](C)C[C@@H](C)CC,"(3S,5S)-dimethylnonane",,Saldana11,1
CCCCC[C@@H](C)CC[C@@H](C)CC,"(3S,6R)-dimethylundecane",,Saldana11,1
CCCCC[C@H](C)CC[C@@H](C)CC,"(3S,6S)-dimethylundecane",,Saldana11,1
CCCCCC[C@@H](C)CCC[C@@H](C)CC,"(3S,7R)-dimethyltridecane",,Saldana11,1
CCCCCC[C@H](C)CCC[C@@H](C)CC,"(3S,7S)-dimethyltridecane",,Saldana11,1
CCCCCCC[C@@H](C)CCCC[C@@H](C)CC,"(3S,8R)-dimethylpentadecane",,Saldana11,1
CCCCCCC[C@H](C)CCCC[C@@H](C)CC,"(3S,8S)-dimethylpentadecane",,Saldana11,1
CCCCCCCCC[C@@H](C)CCCC[C@@H](C)CC,"(3S,9R)-dimethylheptadecane",,Saldana11,1
CCCCCCCCC[C@H](C)CCCC[C@@H](C)CC,"(3S,9S)-dimethylheptadecane",,Saldana11,1
CCC[C@@H](CC)[C@H](CC)CCC,"(4R,5R)-diethyloctane",,Saldana11,1
CCC[C@@H](CC)[C@@H](CC)CCC,"(4R,5S)-diethyloctane",,Saldana11,1
CCC[C@H](CC)[C@@H](CC)CCC,"(4S,5S)-diethyloctane",,Saldana11,1
CCCCCCCC[C@@H](C)[C@H](C)CCCC,"(5R,6R)-dimethyltetradecane",,Saldana11,1
CCCCCCCC[C@H](C)[C@H](C)CCCC,"(5R,6S)-dimethyltetradecane",,Saldana11,1
CCCCCCCC[C@@H](C)[C@@H](C)CCCC,"(5S,6R)-dimethyltetradecane",,Saldana11,1
CCCCCCCC[C@H](C)[C@@H](C)CCCC,"(5S,6S)-dimethyltetradecane",,Saldana11,1
CCCCCC[C@@H](CC)[C@H](CC)CCCCCC,"(7R,8R)-diethyltetradecane",,Saldana11,1
CCCCCC[C@@H](C)[C@H](C)CCCCCC,"(7R,8R)-dimethyltetradecane",,Saldana11,1
CCCCCC[C@@H](CC)[C@@H](CC)CCCCCC,"(7R,8S)-diethyltetradecane",,Saldana11,1
CCCCCC[C@@H](C)[C@@H](C)CCCCCC,"(7R,8S)-dimethyltetradecane",,Saldana11,1
CCCCCC[C@H](CC)[C@@H](CC)CCCCCC,"(7S,8S)-diethyltetradecane",,Saldana11,1
CCCCCC[C@H](C)[C@@H](C)CCCCCC,"(7S,8S)-dimethyltetradecane",,Saldana11,1
CCCCCCCC[C@@H](C)[C@H](C)CCCCCCCC,"(9R,10R)-dimethyloctadecane",,Saldana11,1
CCCCCCCC[C@@H](CCC)[C@H](CCC)CCCCCCCC,"(9R,10R)-dipropyloctadecane",,Saldana11,1
CCCCCCCC[C@@H](C)[C@@H](C)CCCCCCCC,"(9R,10S)-dimethyloctadecane",,Saldana11,1
CCCCCCCC[C@@H](CCC)[C@@H](CCC)CCCCCCCC,"(9R,10S)-dipropyloctadecane",,Saldana11,1
CCCCCCCC[C@H](C)[C@@H](C)CCCCCCCC,"(9S,10S)-dimethyloctadecane",,Saldana11,1
CCCCCCCC[C@H](CCC)[C@@H](CCC)CCCCCCCC,"(9S,10S)-dipropyloctadecane",,Saldana11,1
CCCCC(CC)C(C)C,2-methyl-3-ethylheptane,,Saldana11,1
CCCC(CC)C(C)C,2-methyl-3-ethylhexane,,Saldana11,1
CCCC(CC)CC(C)C,2-methyl-4-ethylheptane,,Saldana11,1
CCC(CC)CC(C)C,2-methyl-4-ethylhexane,,Saldana11,1
CCCCCCCCC(C)C,2-methyldecane,,Saldana11,1
CCCCCCCCCCC(C)C,2-methyldodecane,,Saldana11,1
CCCCCCCCCCCCCCCCCCC(C)C,2-methyleicosane,,Saldana11,1
CCCCCCCCCCCCCCCC(C)C,2-methylheptadecane,,Saldana11,1
CCCCCC(C)C,2-methylheptane,277,Saldana11,1
CCCCCCCCCCCCCCC(C)C,2-methylhexadecane,,Saldana11,1
CCCCC(C)C,2-methylhexane,255,Saldana11,1
CCCCCCCCCCCCCCCCCC(C)C,2-methylnonadecane,,Saldana11,1
CCCCCCCC(C)C,2-methylnonane,314,Saldana11,1
CCCCCCCCCCCCCCCCC(C)C,2-methyloctadecane,,Saldana11,1
CCCCCCC(C)C,2-methyloctane,297,Saldana11,1
CCCCCCCCCCCCCC(C)C,2-methylpentadecane,,Saldana11,1
CCCCCCCCCCCCC(C)C,2-methyltetradecane,,Saldana11,1
CCCCCCCCCCCC(C)C,2-methyltridecane,,Saldana11,1
CCCCCCCCCC(C)C,2-methylundecane,,Saldana11,1
CCC(C)(C)C,"2,2-dimethylbutane",225,Saldana11,1
CCCCCCCCC(C)(C)C,"2,2-dimethyldecane",,Saldana11,1
CCCCCC(C)(C)C,"2,2-dimethylheptane",297,Saldana11,1
CCCCC(C)(C)C,"2,2-dimethylhexane",269,Saldana11,1
CCCCCCC(C)(C)C,"2,2-dimethyloctane",304,Saldana11,1
CCCC(C)(C)C,"2,2-dimethylpentane",258,Saldana11,1
CC(C)(C)C,"2,2-dimethylpropane",208,Saldana11,1
CC(C)C(C)(C)C,"2,2,3-trimethylbutane",249,Saldana11,1
CCCC(C)C(C)(C)C,"2,2,3-trimethylhexane",288,Saldana11,1
CCC(C)C(C)(C)C,"2,2,3-trimethylpentane",270,Saldana11,1
CC(C)(C)C(C)(C)C,"2,2,3,3-tetramethylbutane",278,Saldana11,1
CCCC(C)(C)C(C)(C)C,"2,2,3,3-tetramethylhexane",304,Saldana11,1
CCC(C)(C)C(C)(C)C,"2,2,3,3-tetramethylpentane",289,Saldana11,1
CCC(C)C(C)C(C)(C)C,"2,2,3,4-tetramethylhexane",304,Saldana11,1
CC(C)C(C)C(C)(C)C,"2,2,3,4-tetramethylpentane",284,Saldana11,1
CCC(C)CC(C)(C)C,"2,2,4-trimethylhexane",288,Saldana11,1
CC(C)CC(C)(C)C,"2,2,4-trimethylpentane",261,Saldana11,1
CCC(C)(C)CC(C)(C)C,"2,2,4,4-tetramethylhexane",304,Saldana11,1
CC(C)(C)CC(C)(C)C,"2,2,4,4-tetramethylpentane",276,Saldana11,1
CC(CC(C)(C)C)CC(C)(C)CC(C)(C)C,"2,2,4,4,6,8,8-heptamethylnonane",368,Saldana11,1
C[C@H](CC(C)(C)C)CC(C)(C)CC(C)(C)C,"2,2,4,4,6(R),8,8-heptamethylnonane",,Saldana11,1
C[C@@H](CC(C)(C)C)CC(C)(C)CC(C)(C)C,"2,2,4,4,6(S),8,8-heptamethylnonane",,Saldana11,1
CC(CC(C)(C)C)CC(C)(C)C,"2,2,4,6,6-pentamethylheptane",,Saldana11,1
CC(C)CCC(C)(C)C,"2,2,5-trimethylhexane",286,Saldana11,1
CC(C)(C)CCC(C)(C)C,"2,2,5,5-tetramethylhexane",289,Saldana11,1
CC(C)C(C)C,"2,3-dimethylbutane",244,Saldana11,1
CCCCCCCC(C)C(C)C,"2,3-dimethyldecane",,Saldana11,1
CCCCC(C)C(C)C,"2,3-dimethylheptane",288,Saldana11,1
CCCC(C)C(C)C,"2,3-dimethylhexane",278,Saldana11,1
CCCCCC(C)C(C)C,"2,3-dimethyloctane",309,Saldana11,1
CCC(C)C(C)C,"2,3-dimethylpentane",258,Saldana11,1
CCCC(C)(C)C(C)C,"2,3,3-trimethylhexane",288,Saldana11,1
CCC(C)(C)C(C)C,"2,3,3-trimethylpentane",273,Saldana11,1
CCC(C)C(C)(C)C(C)C,"2,3,3,4-tetramethylhexane",304,Saldana11,1
CC(C)C(C)(C)C(C)C,"2,3,3,4-tetramethylpentane",284,Saldana11,1
CCC(C)C(C)C(C)C,"2,3,4-trimethylhexane",288,Saldana11,1
CC(C)C(C)C(C)C,"2,3,4-trimethylpentane",273,Saldana11,1
CCC(C)(C)C(C)C(C)C,"2,3,4,4-tetramethylhexane",304,Saldana11,1
CC(C)C(C)C(C)C(C)C,"2,3,4,5-tetramethylhexane",304,Saldana11,1
CCC(C)CC(C)C(C)C,"2,3,5-trimethylheptane",304,Saldana11,1
CC(C)CC(C)C(C)C,"2,3,5-trimethylhexane",288,Saldana11,1
CC[C@@H](C)C(C)C,"2,3(R)-dimethylpentane",,Saldana11,1
C[C@H](C(C)C)C(C)[C@H](C)C(C)C,"2,3(R),4,5(R),6-pentamethylheptane",,Saldana11,1
C[C@H](C(C)C)C(C)[C@@H](C)C(C)C,"2,3(R),4,5(S),6-pentamethylheptane",,Saldana11,1
CC[C@H](C)C(C)C,"2,3(S)-dimethylpentane",,Saldana11,1
C[C@@H](C(C)C)C(C)[C@@H](C)C(C)C,"2,3(S),4,5(S),6-pentamethylheptane",,Saldana11,1
CCCCCCC(C)CC(C)C,"2,4-dimethyldecane",,Saldana11,1
CCCC(C)CC(C)C,"2,4-dimethylheptane",288,Saldana11,1
CCC(C)CC(C)C,"2,4-dimethylhexane",283,Saldana11,1
CC(C)CC(C)C,"2,4-dimethylpentane",261,Saldana11,1
CCC(C)(C)CC(C)C,"2,4,4-trimethylhexane",288,Saldana11,1
CCC(C)C(C)CC(C)C,"2,4,5-trimethylheptane",304,Saldana11,1
CC(C)CC(C)CC(C)C,"2,4,6-trimethylheptane",304,Saldana11,1
CCCCCC(C)CCC(C)C,"2,5-dimethyldecane",,Saldana11,1
CCC(C)CCC(C)C,"2,5-dimethylheptane",288,Saldana11,1
CC(C)CCC(C)C,"2,5-dimethylhexane",271,Saldana11,1
CCCCCC[C@@H](C)CCC(C)C,"2,5(R)-dimethylundecane",,Saldana11,1
CCCCCC[C@H](C)CCC(C)C,"2,5(S)-dimethylundecane",,Saldana11,1
CCCCC(C)CCCC(C)C,"2,6-dimethyldecane",,Saldana11,1
CC(C)CCCC(C)C,"2,6-dimethylheptane",299,Saldana11,1
CCC(C)CCCC(C)C,"2,6-dimethyloctane",307,Saldana11,1
CC(CCCCC(C)CCCC(C)CCCC(C)C)CCCC(C)CCCC(C)C,"2,6,10,15,19,23-hexamethyltetracosane",490,Saldana11,1
CC[C@H](CC(C)C)[C@H](CC)CC(C)C,"2,7-dimethyl-(4R,5R)-diethyloctane",,Saldana11,1
CC[C@H](CC(C)C)[C@@H](CC)CC(C)C,"2,7-dimethyl-(4R,5S)-diethyloctane",,Saldana11,1
CC[C@@H](CC(C)C)[C@@H](CC)CC(C)C,"2,7-dimethyl-(4S,5S)-diethyloctane",,Saldana11,1
CCCC(C)CCCCC(C)C,"2,7-dimethyldecane",,Saldana11,1
CC(C)CCCCC(C)C,"2,7-dimethyloctane",314,Saldana11,1
CCC(C)CCCCCC(C)C,"2,8-dimethyldecane",,Saldana11,1
CC(C)CCC(CCC(C)C)C(CCC(C)C)CCC(C)C,"2,9-dimethyl-5,6-diisoamyldecane",,Saldana11,1
CC(C)CCCCCCC(C)C,"2,9-dimethyldecane",,Saldana11,1
CCC(CC)C(C)C,3-ethyl-2-methylpentane,276,Saldana11,1
CCCC(CC)C(C)(C)C,"3-ethyl-2,2-dimethylhexane",311,Saldana11,1
CCC(CC)C(C)(C)C,"3-ethyl-2,2-dimethylpentane",286,Saldana11,1
CCC(C)(CC)C(C)C,"3-ethyl-2,3-dimethylpentane",288,Saldana11,1
CCC(C)(C(C)C)C(C)C,"3-ethyl-2,3,4-trimethylpentane",304,Saldana11,1
CCC(C(C)C)C(C)C,"3-ethyl-2,4-dimethylpentane",288,Saldana11,1
CCCCC(C)(CC)CC,3-ethyl-3-methylheptane,314,Saldana11,1
CCC(C)(CC)CC,3-ethyl-3-methylpentane,276,Saldana11,1
CCC(CC)C(C)CC,3-ethyl-4-methylhexane,288,Saldana11,1
CCC(C)CC(CC)CC,3-ethyl-5-methylheptane,304,Saldana11,1
CCCCCCCC(CC)CC,3-ethyldecane,,Saldana11,1
CCCCCCCCCC(CC)CC,3-ethyldodecane,,Saldana11,1
CCCCCCCCCCCCCCCCCC(CC)CC,3-ethyleicosane,,Saldana11,1
CCCCCCCCCCCCCCC(CC)CC,3-ethylheptadecane,,Saldana11,1
CCCCC(CC)CC,3-ethylheptane,,Saldana11,1
CCCCCCCCCCCCCC(CC)CC,3-ethylhexadecane,,Saldana11,1
CCCC(CC)CC,3-ethylhexane,278,Saldana11,1
CCCCCCCCCCCCCCCCC(CC)CC,3-ethylnonadecane,,Saldana11,1
CCCCCCC(CC)CC,3-ethylnonane,,Saldana11,1
CCCCCCCCCCCCCCCC(CC)CC,3-ethyloctadecane,,Saldana11,1
CCCCCC(CC)CC,3-ethyloctane,,Saldana11,1
CCCCCCCCCCCCC(CC)CC,3-ethylpentadecane,,Saldana11,1
CCC(CC)CC,3-ethylpentane,261,Saldana11,1
CCCCCCCCCCCC(CC)CC,3-ethyltetradecane,,Saldana11,1
CCCCCCCCCCC(CC)CC,3-ethyltridecane,,Saldana11,1
CCCCCCCCC(CC)CC,3-ethylundecane,,Saldana11,1
CCCCC(C)(CC)CC,3-methyl-3-ethylheptane,,Saldana11,1
CCCC(C)(CC)CC,3-methyl-3-ethylhexane,,Saldana11,1
CCCCCCCC(C)CC,3-methyldecane,,Saldana11,1
CCCCCCCCCC(C)CC,3-methyldodecane,,Saldana11,1
CCCCCCCCCCCCCCCCCC(C)CC,3-methyleicosane,,Saldana11,1
CCCCC(C)CC,3-methylheptane,279,Saldana11,1
CCCCCCCCCCCCCC(C)CC,3-methylhexadecane,,Saldana11,1
CCCC(C)CC,3-methylhexane,269,Saldana11,1
CCCCCCC(C)CC,3-methylnonane,311,Saldana11,1
CCCCCCCCCCCCCCCC(C)CC,3-methyloctadecane,,Saldana11,1
CCCCCC(C)CC,3-methyloctane,297,Saldana11,1
CCC(C)CC,3-methylpentane,241,Saldana11,1