compound,smiles,flashpoint,pure substance,source
ALLYLTRICHLOROGERMANE,C=CC[Ge](Cl)(Cl)Cl,328.15,1,gelest_germanium
ALLYLTRIETHYLGERMANE,C=CC[Ge](CC)(CC)CC,321.15,1,gelest_germanium
ALLYLTRIMETHYLGERMANE,C=CC[Ge](C)(C)C,274.15,1,gelest_germanium
BIS(CHLOROMETHYL)DIMETHYLGERMANE,C[Ge](C)(CCl)CCl,324.15,1,gelest_germanium
t-BUTYLDIMETHYLCHLOROGERMANE,CC(C)(C)[Ge](C)(C)Cl,307.15,1,gelest_germanium
n-BUTYLTRICHLOROGERMANE,CCCC[Ge](Cl)(Cl)Cl,355.15,1,gelest_germanium
DI-n-BUTYLDICHLOROGERMANE,CCCC[Ge](Cl)(Cl)CCCC,380.15,1,gelest_germanium
DICHLOROMETHYLTRIMETHYLGERMANE,C[Ge](C)(C)C(Cl)Cl,306.15,1,gelest_germanium
DIETHYLDICHLOROGERMANE,CC[Ge](Cl)(Cl)CC,325.15,1,gelest_germanium
DIMETHYLAMINOTRIMETHYLGERMANE,CN(C)[Ge](C)(C)C,263.15,1,gelest_germanium
DIPHENYLDICHLOROGERMANE,Cl[Ge](Cl)(c1ccccc1)c1ccccc1,433.15,1,gelest_germanium
DIPHENYLGERMANE,c1ccc([GeH2]c2ccccc2)cc1,377.15,1,gelest_germanium
ETHYLTRICHLOROGERMANE,CC[Ge](Cl)(Cl)Cl,324.15,1,gelest_germanium
HEXAMETHYLDIGERMANE,C[Ge](C)(C)[Ge](C)(C)C,287.15,1,gelest_germanium
METHACRYLOXYMETHYLTRIMETHYLGERMANE,C=C(C)C(=O)OC[Ge](C)(C)C,336.15,1,gelest_germanium
METHYLTRICHLOROGERMANE,C[Ge](Cl)(Cl)Cl,283.15,1,gelest_germanium
METHYLTRIETHOXYGERMANE,CCO[Ge](C)(OCC)OCC,313.15,1,gelest_germanium
TETRAALLYLGERMANE,C=CC[Ge](CC=C)(CC=C)CC=C,343.15,1,gelest_germanium
TETRA-n-BUTOXYGERMANE,CCCCO[Ge](OCCCC)(OCCCC)OCCCC,385.15,1,gelest_germanium
TETRA-n-BUTYLGERMANE,CCCC[Ge](CCCC)(CCCC)CCCC,363.15,1,gelest_germanium
TETRAETHOXYGERMANE,CCO[Ge](OCC)(OCC)OCC,335.15,1,gelest_germanium
TETRAETHYLGERMANE,CC[Ge](CC)(CC)CC,315.15,1,gelest_germanium
TETRAKIS(DIMETHYLAMINO)GERMANE,CN(C)[Ge](N(C)C)(N(C)C)N(C)C,307.15,1,gelest_germanium
TETRAISOPROPOXYGERMANE,CC(C)O[Ge](OC(C)C)(OC(C)C)OC(C)C,341.15,1,gelest_germanium
TETRAMETHOXYGERMANE,CO[Ge](OC)(OC)OC,307.15,1,gelest_germanium
TETRAMETHYLGERMANE,C[Ge](C)(C)C,254.14999999999998,1,gelest_germanium
TRI-n-BUTYLCHLOROGERMANE,CCCC[Ge](Cl)(CCCC)CCCC,367.15,1,gelest_germanium
TRI-n-BUTYLGERMANE,CCCC[GeH](CCCC)CCCC,351.15,1,gelest_germanium
TRICHLOROGERMANE,Cl[GeH](Cl)Cl,285.15,1,gelest_germanium
TRIETHYLCHLOROGERMANE,CC[Ge](Cl)(CC)CC,311.15,1,gelest_germanium
TRIETHYLGERMANE,CC[GeH](CC)CC,278.15,1,gelest_germanium
TRIISOPROPYLCHLOROGERMANE,CC(C)[Ge](Cl)(C(C)C)C(C)C,339.15,1,gelest_germanium
TRIMETHYLBROMOGERMANE,C[Ge](C)(C)Br,310.15,1,gelest_germanium
TRIMETHYLCHLOROGERMANE,C[Ge](C)(C)Cl,274.15,1,gelest_germanium
VINYLTRIETHYLGERMANE,C=C[Ge](CC)(CC)CC,305.15,1,gelest_germanium
ALUMINUM DIISOPROPOXIDE ETHYLACETOACETATE,CC(C)[O-].CC(C)[O-].CCOC(=O)CC(C)=O.[Al+2],323.15,1,gelest_metal-organics
ALUMINUM 9-OCTADECENYLACETOACETATE DIISOPROPOXIDE,CC(C)[O-].CC(C)[O-].CCCCCCCCC=CCCCCCCCCCC(=O)CC(=O)[O-].[Al+3],294.15,0,gelest_metal-organics
ANTIMONY(III) n-BUTOXIDE,CCCC[O-].CCCC[O-].CCCC[O-].[Sb+3],341.15,1,gelest_metal-organics
ARSENIC TRIETHOXIDE,CC[O-].CC[O-].CC[O-].[As+3],322.15,1,gelest_metal-organics
BARIUM ISOPROPOXIDE,CC(C)[O-].CC(C)[O-].[Ba+2],285.15,0,gelest_metal-organics
BORON ALLYLOXIDE,C=CCOCC=C.[B],304.15,1,gelest_metal-organics
BORON n-BUTOXIDE,CCCC[O-].CCCC[O-].CCCC[O-].[B+3],366.15,1,gelest_metal-organics
BORON ETHOXIDE,CC[O-].CC[O-].CC[O-].[B+3],284.15,1,gelest_metal-organics
BORON ISOPROPOXIDE,CC(C)[O-].CC(C)[O-].CC(C)[O-].[B+3],301.15,1,gelest_metal-organics
BORON METHOXIDE,C[O-].C[O-].C[O-].[B+3],272.15,1,gelest_metal-organics
BORON METHOXIDE,C[O-].C[O-].C[O-].[B+3],266.15,0,gelest_metal-organics
BORON METHOXYETHOXIDE,COC(C)[O-].COC(C)[O-].COC(C)[O-].[B+3],386.15,1,gelest_metal-organics
CALCIUM METHOXYETHOXIDE,COC(C)[O-].COC(C)[O-].[Ca+2],312.15,0,gelest_metal-organics
CERIUM(IV) METHOXYETHOXIDE,COC(C)[O-].COC(C)[O-].COC(C)[O-].COC(C)[O-].[Ce+4],312.15,0,gelest_metal-organics
CESIUM METHOXIDE,C[O-].[Cs+],284.15,0,gelest_metal-organics
COPPER(II) METHOXYETHOXYETHOXIDE,COCCOC(C)[O-].COCCOC(C)[O-].[Cu+2],357.15,0,gelest_metal-organics
ERBIUM METHOXYETHOXIDE,COC(C)[O-].COC(C)[O-].COC(C)[O-].[Er+3],312.15,0,gelest_metal-organics
HAFNIUM n-BUTOXIDE,CCCC[O-].CCCC[O-].CCCC[O-].CCCC[O-].[Hf+4],250.14999999999998,0,gelest_metal-organics
LANTHANUM METHOXYETHOXIDE,COC(C)[O-].COC(C)[O-].COC(C)[O-].[La+3],312.15,0,gelest_metal-organics
LITHIUM t-BUTOXIDE,CC(C)(C)[O-].[Li+],259.15,0,gelest_metal-organics
LITHIUM METHOXIDE,C[O-].[Li+],284.15,0,gelest_metal-organics
MAGNESIUM METHOXIDE,C[O-].C[O-].[Mg+2],284.15,0,gelest_metal-organics
MAGNESIUM METHOXYETHOXIDE,COC(C)[O-].COC(C)[O-].[Mg+2],312.15,0,gelest_metal-organics
MAGNESIUM METHYL CARBONATE,COC(=O)[O-].COC(=O)[O-].[Mg+2],331.15,0,gelest_metal-organics
NEODYMIUM METHOXYETHOXIDE,COC(C)[O-].COC(C)[O-].COC(C)[O-].[Nd+3],312.15,0,gelest_metal-organics
NICKEL DI-n-BUTYLDITHIOCARBAMATE,CCCCN(CCCC)C(=S)[S-].CCCCN(CCCC)C(=S)[S-].[Ni+2],533.15,1,gelest_metal-organics
NIOBIUM(V) n-BUTOXIDE,CCCC[O-].CCCC[O-].CCCC[O-].CCCC[O-].CCCC[O-].[Nb+5],363.15,1,gelest_metal-organics
NIOBIUM(V) ETHOXIDE,CC[O-].CC[O-].CC[O-].CC[O-].CC[O-].[Nb+5],347.15,1,gelest_metal-organics
POTASSIUM t-BUTOXIDE,CC(C)(C)[O-].[K+],259.15,0,gelest_metal-organics
POTASSIUM ETHOXIDE,CC[O-].[K+],288.15,0,gelest_metal-organics
POTASSIUM ISOPROPOXIDE,CC(C)[O-].[K+],285.15,0,gelest_metal-organics
POTASSIUM METHOXIDE,C[O-].[K+],284.15,0,gelest_metal-organics
SODIUM ALUMINUM HYDRIDE BIS(METHOXYETHOXIDE),COC(C)[O-].COC(C)[O-].[AlH4-].[Na+],277.15,0,gelest_metal-organics
SODIUM n-BUTOXIDE,CCCC[O-].[Na+],308.15,0,gelest_metal-organics
SODIUM ETHOXIDE,CC[O-].[Na+],285.15,0,gelest_metal-organics
SODIUM ISOPROPOXIDE,CC(C)[O-].[Na+],259.15,0,gelest_metal-organics
SODIUM METHOXYETHOXIDE,COC(C)[O-].[Na+],312.15,0,gelest_metal-organics
SODIUM PHENOXIDE,[Na+].[O-]c1ccccc1,284.15,0,gelest_metal-organics
TANTALUM(V) n-BUTOXIDE,CCCC[O-].CCCC[O-].CCCC[O-].CCCC[O-].CCCC[O-].[Ta+5],339.15,1,gelest_metal-organics
TANTALUM(V) ETHOXIDE,CC[O-].CC[O-].CC[O-].CC[O-].CC[O-].[Ta+5],313.15,1,gelest_metal-organics
TITANIUM n-BUTOXIDE,CCCC[O-].CCCC[O-].CCCC[O-].CCCC[O-].[Ti+4],349.15,1,gelest_metal-organics
TITANIUM CHLORIDE TRIISOPROPOXIDE,CC(C)[O-].CC(C)[O-].CC(C)[O-].[Cl-].[Ti+4],295.15,1,gelest_metal-organics
TITANIUM CHLORIDE TRIISOPROPOXIDE,CC(C)[O-].CC(C)[O-].CC(C)[O-].[Cl-].[Ti+4],250.14999999999998,0,gelest_metal-organics
TITANIUM CHLORIDE TRIISOPROPOXIDE,CC(C)[O-].CC(C)[O-].CC(C)[O-].[Cl-].[Ti+4],259.15,0,gelest_metal-organics
TITANIUM CHLORIDE TRIISOPROPOXIDE,CC(C)[O-].CC(C)[O-].CC(C)[O-].[Cl-].[Ti+4],269.15,0,gelest_metal-organics
TITANIUM ETHOXIDE,CC[O-].CC[O-].CC[O-].CC[O-].[Ti+4],301.15,1,gelest_metal-organics
TITANIUM ETHOXIDE,CC[O-].CC[O-].CC[O-].CC[O-].[Ti+4],303.15,1,gelest_metal-organics
TITANIUM DIISOPROPOXIDE BIS(ETHYLACETOACETATE),CC(C)[O-].CC(C)[O-].CCCC(=O)CC(=O)[O-].CCCC(=O)CC(=O)[O-].[Ti+4],300.15,1,gelest_metal-organics
TITANIUM IODIDE TRIISOPROPOXIDE,CC(C)[O-].CC(C)[O-].CC(C)[O-].[I-].[Ti+4],259.15,0,gelest_metal-organics
TITANIUM ISOBUTOXIDE,CC(C)C[O-].CC(C)C[O-].CC(C)C[O-].CC(C)C[O-].[Ti+4],350.15,1,gelest_metal-organics
TITANIUM ISOPROPOXIDE,CC(C)[O-].CC(C)[O-].CC(C)[O-].CC(C)[O-].[Ti+4],298.15,1,gelest_metal-organics
TITANIUM METHACRYLOXYETHYLACETOACETATE TRIISOPROPOXIDE,C=C(C)C(=O)OCCOC(=O)CC(C)=O.CC(C)[O-].CC(C)[O-].CC(C)[O-].[Ti+3],285.15,0,gelest_metal-organics
TITANIUM METHOXIDE,C[O-].C[O-].C[O-].C[O-].[Ti+4],321.15,1,gelest_metal-organics
TITANIUM METHYLPHENOXIDE,Cc1ccccc1[O-].Cc1ccccc1[O-].Cc1ccccc1[O-].Cc1ccccc1[O-].[Ti+4],339.15,1,gelest_metal-organics
TITANIUM n-PROPOXIDE,CCC[O-].CCC[O-].CCC[O-].CCC[O-].[Ti+4],318.15,1,gelest_metal-organics
TITANIUM TRIACRYLATE METHOXYETHOXYETHOXIDE,C=CC(=O)[O-].C=CC(=O)[O-].C=CC(=O)[O-].COCCOC(C)[O-].[Ti+4],338.15,0,gelest_metal-organics
TITANIUM TRIISOSTEAROYLISOPROPOXIDE,CC(C)CCCCCCCCCCCCCCC(=O)C(C(=O)CCCCCCCCCCCCCCC(C)C)(C(=O)CCCCCCCCCCCCCCC(C)C)C(C)[O-].CC(C)CCCCCCCCCCCCCCC(=O)C(C(=O)CCCCCCCCCCCCCCC(C)C)(C(=O)CCCCCCCCCCCCCCC(C)C)C(C)[O-].CC(C)CCCCCCCCCCCCCCC(=O)C(C(=O)CCCCCCCCCCCCCCC(C)C)(C(=O)CCCCCCCCCCCCCCC(C)C)C(C)[O-].CC(C)CCCCCCCCCCCCCCC(=O)C(C(=O)CCCCCCCCCCCCCCC(C)C)(C(=O)CCCCCCCCCCCCCCC(C)C)C(C)[O-].[Ti+4],366.15,1,gelest_metal-organics
TITANIUM TRIMETHACRYLATE METHOXYETHOXYETHOXIDE,C=C(C)C(=O)[O-].C=C(C)C(=O)[O-].C=C(C)C(=O)[O-].COCCOC(C)[O-].[Ti+4],333.15,0,gelest_metal-organics
ZIRCONIUM n-BUTOXIDE,CCCC[O-].CCCC[O-].CCCC[O-].CCCC[O-].[Zr+4],307.15,0,gelest_metal-organics
ZIRCONIUM t-BUTOXIDE,CC(C)(C)[O-].CC(C)(C)[O-].CC(C)(C)[O-].CC(C)(C)[O-].[Zr+4],358.15,1,gelest_metal-organics
ZIRCONIUM ISOPROPOXIDE,CC(C)[O-].CC(C)[O-].CC(C)[O-].CC(C)[O-].[Zr+4],266.15,0,gelest_metal-organics
ZIRCONIUM n-PROPOXIDE,CCC[O-].CCC[O-].CCC[O-].CCC[O-].[Zr+4],296.15,0,gelest_metal-organics
BISMUTH 2-ETHYLHEXANOATE,CCCCC(CC)C(=O)[O-].CCCCC(CC)C(=O)[O-].CCCCC(CC)C(=O)[O-].[Bi+3],322.15,0,gelest_metal-organics
CALCIUM 2-ETHYLHEXANOATE,CCCCC(CC)C(=O)[O-].CCCCC(CC)C(=O)[O-].[Ca+2],400.15,1,gelest_metal-organics
CERIUM(III) 2-ETHYLHEXANOATE,CCCCC(CC)C(=O)[O-].CCCCC(CC)C(=O)[O-].CCCCC(CC)C(=O)[O-].[Ce+3],335.15,0,gelest_metal-organics
CHROMIUM(III) 2-ETHYLHEXANOATE,CCCCC(CC)C(=O)[O-].CCCCC(CC)C(=O)[O-].CCCCC(CC)C(=O)[O-].[Cr+3],383.15,0,gelest_metal-organics
NEODYMIUM NEODECANOATE,CC(C)(C)CCCCCC(=O)[O-].CC(C)(C)CCCCCC(=O)[O-].CC(C)(C)CCCCCC(=O)[O-].[Nd+3],265.15,0,gelest_metal-organics
POTASSIUM ACRYLATE,C=CC(=O)[O-].[K+],284.15,0,gelest_metal-organics
SILVER NEODECANOATE,CC(C)(C)CCCCCC(=O)[O-].[Ag+],375.15,1,gelest_metal-organics
SILVER NEODECANOATE,CC(C)(C)CCCCCC(=O)[O-].[Ag+],303.15,0,gelest_metal-organics
ZINC 2-ETHYLHEXANOATE,CCCCC(CC)C(=O)[O-].CCCCC(CC)C(=O)[O-].[Zn+2],400.15,1,gelest_metal-organics
ZINC NEODECANOATE,CC(C)(C)CCCCCC(=O)[O-].CC(C)(C)CCCCCC(=O)[O-].[Zn+2],375.15,1,gelest_metal-organics
ZIRCONIUM 2-ETHYLHEXANOATE,CCCCC(CC)C(=O)[O-].CCCCC(CC)C(=O)[O-].CCCCC(CC)C(=O)[O-].CCCCC(CC)C(=O)[O-].[Zr+4],338.15,0,gelest_metal-organics
ALUMINUM YTTRIUM,[Al].[Y],308.15,0,gelest_metal-organics
LITHIUM TANTALUM,[Li].[Ta],308.15,0,gelest_metal-organics
STRONTIUM TITANIUM,[Sr].[Ti],312.15,0,gelest_metal-organics
STRONTIUM ZIRCONIUM,[Sr].[Zr],302.15,0,gelest_metal-organics
TITANIUM TETRACHLORIDE,Cl[Ti](Cl)(Cl)Cl,377.15,1,gelest_metal-organics
DIISOBUTYLALUMINUM HYDRIDE,CC(C)C[AlH]CC(C)C,269.15,0,gelest_metal-organics
DIISOBUTYLALUMINUM HYDRIDE,CC(C)C[AlH]CC(C)C,259.15,0,gelest_metal-organics
DIMETHYLALUMINUM CHLORIDE,C[Al](C)Cl,255.14999999999998,1,gelest_metal-organics
DIMETHYLISOPROPOXYALUMINUM,CC(C)O[Al](C)C,278.15,1,gelest_metal-organics
ETHYLALUMINUM DICHLORIDE,CC[Al](Cl)Cl,277.15,0,gelest_metal-organics
TRIMETHYLALUMINUM,C[Al](C)C,269.15,0,gelest_metal-organics
TRIMETHYLALUMINUM,C[Al](C)C,277.15,0,gelest_metal-organics
TRIS(PENTAFLUOROPHENYL)BORON,Fc1c(F)c(F)c(B(c2c(F)c(F)c(F)c(F)c2F)c2c(F)c(F)c(F)c(F)c2F)c(F)c1F,277.15,0,gelest_metal-organics
DIMETHYLCADMIUM,C[Cd]C,255.14999999999998,1,gelest_metal-organics
VINYLFERROCENE,C=C[c-]1cccc1.[Fe+2].c1cc[cH-]c1,335.15,1,gelest_metal-organics
TRIMETHYLGALLIUM,C[Ga](C)C,272.15,1,gelest_metal-organics
TRIS(DIMETHYLAMINO)GALLIUM,CN(C)[Ga](N(C)C)N(C)C,329.15,1,gelest_metal-organics
HAFNIUM TETRAKIS(ETHYLMETHYLAMIDE),CC[N-]C.CC[N-]C.CC[N-]C.CC[N-]C.[Hf+4],283.15,1,gelest_metal-organics
n-BUTYLLITHIUM,[Li]CCCC,250.14999999999998,0,gelest_metal-organics
DICYCLOHEXYLPHOSPHINE,C1CCC(PC2CCCCC2)CC1,383.15,1,gelest_metal-organics
DIETHYLPHOSPHITE,CCOP([O-])OCC,363.15,1,gelest_metal-organics
DIPHENYLPHOSPHINE,c1ccc(Pc2ccccc2)cc1,383.15,1,gelest_metal-organics
DIPHENYLPHOSPHINE,c1ccc(Pc2ccccc2)cc1,269.15,0,gelest_metal-organics
DIPHENYLPHOSPHORYL AZIDE,[N-]=[N+]=NP(=O)(c1ccccc1)c1ccccc1,385.15,1,gelest_metal-organics
TETRABUTYLPHOSPHONIUM CHLORIDE,CCCC[P+](CCCC)(CCCC)CCCC.[Cl-],277.15,0,gelest_metal-organics
TETRADECYL(TRIHEXYL)PHOSPHONIUM CHLORIDE,CCCCCCCCCCCCCC[P+](CCCCCC)(CCCCCC)CCCCCC.[Cl-],391.15,1,gelest_metal-organics
TRIETHYLPHOSPHATE,CCOP(=O)(OCC)OCC,389.15,1,gelest_metal-organics
TRIETHYLPHOSPHITE,CCOP(OCC)OCC,327.15,1,gelest_metal-organics
TRIMETHYLPHOSPHITE,COP(OC)OC,300.15,1,gelest_metal-organics
TRIOCTYLPHOSPHINE,CCCCCCCCP(CCCCCCCC)CCCCCCCC,420.15,1,gelest_metal-organics
TRIPHENYLPHOSPHINE,c1ccc(P(c2ccccc2)c2ccccc2)cc1,455.15,1,gelest_metal-organics
TRIS(4-ISOCYANATOPHENYL)THIOPHOSPHATE,O=C=Nc1ccc(OP(=S)(Oc2ccc(N=C=O)cc2)Oc2ccc(N=C=O)cc2)cc1,269.15,0,gelest_metal-organics
TRIS(DIETHYLAMINO)(t-BUTYLIMINO) TANTALUM,CCN(CC)[Ta](=NC(C)(C)C)(N(CC)CC)N(CC)CC,319.15,1,gelest_metal-organics
PHENYLTITANIUM TRIISOPROPOXIDE,CC(C)[O-].CC(C)[O-].CC(C)[O-].[Ti+3]c1ccccc1,259.15,0,gelest_metal-organics
TITANIUM TETRAKIS(DIETHYLAMIDE),CC[N-]CC.CC[N-]CC.CC[N-]CC.CC[N-]CC.[Ti+4],310.15,1,gelest_metal-organics
TITANIUM TETRAKIS(DIMETHYLAMIDE),C[N-]C.C[N-]C.C[N-]C.C[N-]C.[Ti+4],281.15,1,gelest_metal-organics
TITANIUM TETRAKIS(ETHYLMETHYLAMIDE),CC[N-]C.CC[N-]C.CC[N-]C.CC[N-]C.[Ti+4],283.15,1,gelest_metal-organics
DIETHYLZINC,CC[Zn]CC,269.15,0,gelest_metal-organics
ZIRCONIUM TETRAKIS(ETHYLMETHYLAMIDE),CC[N-]C.CC[N-]C.CC[N-]C.CC[N-]C.[Zr+4],283.15,1,gelest_metal-organics
TETRAETHYLLEAD,CC[Pb](CC)(CC)CC,346.15,1,gelest_metal-organics
LITHIUM TRIMETHYLSILANOLATE,C[Si](C)(C)[O-].[Li+],277.15,0,gelest_metal-organics
TRIS(TRIMETHYLSILOXY)BORON,C[Si](C)(C)OB(O[Si](C)(C)C)O[Si](C)(C)C,315.15,1,gelest_metal-organics
ACETOXYETHYLDIMETHYLCHLOROSILANE,CC(=O)OCC[Si](C)(C)Cl,336.15,1,gelest_silanes
ACETOXYETHYLMETHYLDICHLOROSILANE,CC(=O)OCC[Si](C)(Cl)Cl,338.15,1,gelest_silanes
ACETOXYETHYLTRICHLOROSILANE,CC(=O)OCC[Si](Cl)(Cl)Cl,355.15,1,gelest_silanes
ACETOXYETHYLTRIETHOXYSILANE,CCO[Si](CCOC(C)=O)(OCC)OCC,372.15,1,gelest_silanes
ACETOXYMETHYLTRIMETHYLSILANE,CC(=O)OC[Si](C)(C)C,293.15,1,gelest_silanes
3-ACETOXYPROPYLMETHYLDICHLOROSILANE,CC(=O)OCCC[Si](C)(Cl)Cl,358.15,1,gelest_silanes
3-ACETOXYPROPYLTRIMETHOXYSILANE,CO[Si](CCCOC(C)=O)(OC)OC,366.15,1,gelest_silanes
ACETOXYTRIMETHYLSILANE,CC(=O)O[Si](C)(C)C,277.15,1,gelest_silanes
N-(ACETYLGLYCYL)-3-AMINOPROPYLTRIMETHOXYSILANE,CO[Si](CCCNC(=O)CNC(C)=O)(OC)OC,284.15,0,gelest_silanes
3-(N-ACETYL-4-HYDROXYPROLYLOXY)PROPYLTRIETHOXYSILANE,CCO[Si](CCCOC(=O)[C@@H]1CC(O)CN1C(C)=O)(OCC)OCC,288.15,0,gelest_silanes
N-(N-ACETYLLEUCYL)-3-AMINOPROPYLTRIETHOXYSILANE,CCO[Si](CCCNC(=O)[C@H](CC(C)C)NC(C)=O)(OCC)OCC,288.15,0,gelest_silanes
ACETYLTRIMETHYLSILANE,CC(=O)[Si](C)(C)C,281.15,1,gelest_silanes
N-(3-ACRYLOXY-2-HYDROXYPROPYL)-3-AMINOPROPYLTRIETHOXYSILANE,C=CC(=O)OCC(O)CNCCC[Si](OCC)(OCC)OCC,288.15,0,gelest_silanes
ACRYLOXYMETHYLTRIMETHOXYSILANE,C=CC(=O)OC[Si](OC)(OC)OC,335.15,1,gelest_silanes
(3-ACRYLOXYPROPYL)DIMETHYLMETHOXYSILANE,C=CC(=O)OCCC[Si](C)(C)OC,358.15,1,gelest_silanes
(3-ACRYLOXYPROPYL)TRIMETHOXYSILANE,C=CC(=O)OCCC[Si](OC)(OC)OC,396.15,1,gelest_silanes
(3-ACRYLOXYPROPYL)TRIS(TRIMETHYLSILOXY)SILANE,C=CC(=O)OCCC[Si](O[Si](C)(C)C)(O[Si](C)(C)C)O[Si](C)(C)C,366.15,1,gelest_silanes
ACRYLOXYTRIMETHYLSILANE,C=CC(=O)O[Si](C)(C)C,299.15,1,gelest_silanes
3-(N-ALLYLAMINO)PROPYLTRIMETHOXYSILANE,C=CCNCCC[Si](OC)(OC)OC,361.15,1,gelest_silanes
ALLYLAMINOTRIMETHYLSILANE,C=CCN[Si](C)(C)C,283.15,1,gelest_silanes
ALLYL(CHLOROMETHYL)DIMETHYLSILANE,C=CC[Si](C)(C)CCl,300.15,1,gelest_silanes
ALLYL(3-CHLOROPROPYL)DICHLOROSILANE,C=CC[Si](Cl)(Cl)CCCCl,349.15,1,gelest_silanes
ALLYLDICHLOROSILANE,C=CC[SiH](Cl)Cl,269.15,1,gelest_silanes
ALLYLDIMETHYL(DIISOPROPYLAMINO)SILANE,C=CC[Si](C)(C)N(C(C)C)C(C)C,335.15,1,gelest_silanes
ALLYLDIMETHYLSILANE,C=CC[SiH](C)C,253.14999999999998,1,gelest_silanes
ALLYL(4-METHOXYPHENYL)DIMETHYLSILANE,C=CC[Si](C)(C)c1ccc(OC)cc1,375.15,1,gelest_silanes
ALLYLMETHYLDICHLOROSILANE,C=CCC[SiH](Cl)Cl,300.15,1,gelest_silanes
ALLYLOXY-t-BUTYLDIMETHYLSILANE,C=CCO[Si](C)(C)C(C)(C)C,305.15,1,gelest_silanes
ALLYLOXYTRIMETHYLSILANE,C=CCO[Si](C)(C)C,273.15,1,gelest_silanes
ALLYLPHENYLDICHLOROSILANE,C=CC[Si](Cl)(Cl)c1ccccc1,349.15,1,gelest_silanes
ALLYLTRICHLOROSILANE,C=CC[Si](Cl)(Cl)Cl,304.15,1,gelest_silanes
ALLYLTRIETHOXYSILANE,C=CC[Si](OCC)(OCC)OCC,320.15,1,gelest_silanes
ALLYLTRIISOPROPYLSILANE,C=CC[Si](C(C)C)(C(C)C)C(C)C,349.15,1,gelest_silanes
ALLYLTRIMETHOXYSILANE,C=CC[Si](OC)(OC)OC,319.15,1,gelest_silanes
ALLYLTRIMETHYLSILANE,C=CC[Si](C)(C)C,280.15,1,gelest_silanes
ALLYLTRIS(TRIMETHYLSILOXY)SILANE,C=CC[Si](O[Si](C)(C)C)(O[Si](C)(C)C)O[Si](C)(C)C,340.15,1,gelest_silanes
4-AMINOBUTYLTRIETHOXYSILANE,CCO[Si](CCCCN)(OCC)OCC,382.15,1,gelest_silanes
N-(2-AMINOETHYL)-3-AMINOPROPYLMETHYLDIMETHOXYSILANE,CO[Si](C)(CCCNCCN)OC,363.15,1,gelest_silanes
N-(2-AMINOETHYL)-3-AMINOPROPYLSILANETRIOL,NCCNCCC[Si](O)(O)O,383.15,0,gelest_silanes
N-(2-AMINOETHYL)-3-AMINOPROPYLTRIETHOXYSILANE,CCO[Si](CCCNCCN)(OCC)OCC,421.15,1,gelest_silanes
N-(2-AMINOETHYL)-3-AMINOPROPYLTRIMETHOXYSILANE,CO[Si](CCCNCCN)(OC)OC,423.15,1,gelest_silanes
AMINOMETHYLTRIMETHYLSILANE,C[Si](C)(C)CN,282.15,1,gelest_silanes
m-AMINOPHENYLTRIMETHOXYSILANE,CO[Si](OC)(OC)c1cccc(N)c1,453.15,1,gelest_silanes
p-AMINOPHENYLTRIMETHOXYSILANE,CO[Si](OC)(OC)c1ccc(N)cc1,453.15,1,gelest_silanes
AMINOPHENYLTRIMETHOXYSILANE,CO[Si](OC)(OCN)c1ccccc1,453.15,1,gelest_silanes
3-AMINOPROPYLDIMETHYLETHOXYSILANE,CCO[Si](C)(C)CCCN,346.15,1,gelest_silanes
3-AMINOPROPYLTRIETHOXYSILANE,CCO[Si](CCCN)(OCC)OCC,377.15,1,gelest_silanes
3-AMINOPROPYLTRIMETHOXYSILANE,CO[Si](CCCN)(OC)OC,356.15,1,gelest_silanes
3-AMINOPROPYLTRIMETHYLSILANE,C[Si](C)(C)CCCN,332.15,1,gelest_silanes
3-AMINOPROPYLTRIS(METHOXYETHOXYETHOXY)SILANE,COCCOCCO[Si](CCCN)(OCCOCCOC)OCCOCCOC,341.15,1,gelest_silanes
(AZIDOMETHYL)TRIMETHYLSILANE,C[Si](C)(C)CN=[N+]=[N-],279.15,1,gelest_silanes
6-AZIDOSULFONYLHEXYLTRIETHOXYSILANE,CCO[Si](CCCCCCS(=O)(=O)N=[N+]=[N-])(OCC)OCC,387.15,1,gelest_silanes
4-(AZIDOSULFONYL)PHENETHYLTRIMETHOXYSILANE,CO[Si](CCc1ccc(S(=O)(=O)N=[N+]=[N-])cc1)(OC)OC,302.15,0,gelest_silanes
N-BENZYLAMINOMETHYLTRIMETHYLSILANE,C[Si](C)(C)CNCc1ccccc1,389.15,1,gelest_silanes
BENZYLDIMETHYLCHLOROSILANE,C[Si](C)(Cl)Cc1ccccc1,346.15,1,gelest_silanes
BENZYLDIMETHYLSILANE,C[SiH](C)Cc1ccccc1,338.15,1,gelest_silanes
N-BENZYL-N-METHOXYMETHYL-N-(TRIMETHYLSILYLMETHYL)AMINE,COCN(Cc1ccccc1)C[Si](C)(C)C,339.15,1,gelest_silanes
ALLYLTRI-n-BUTYLTIN,C=CC[Sn](CCCC)(CCCC)CCCC,376.15,1,gelest_tin
BIS[BIS(TRIMETHYLSILYL)AMINO]TIN(II),C[Si](C)(C)N([Sn]N([Si](C)(C)C)[Si](C)(C)C)[Si](C)(C)C,329.15,1,gelest_tin
t-BUTYLTRI n-BUTYLTIN,CCCC[Sn](CCCC)(CCCC)C(C)(C)C,375.15,1,gelest_tin
CHLOROMETHYLTRIMETHYLTIN,C[Sn](C)(C)CCl,312.15,1,gelest_tin
DIALLYLDI-n-BUTYLTIN,C=CC[Sn](CC=C)(CCCC)CCCC,374.15,1,gelest_tin
DI-n-BUTYLDIACETOXYTIN,CCCC[Sn](CCCC)(OC(C)=O)OC(C)=O,416.15,1,gelest_tin
DI-n-BUTYLDI-n-BUTOXYTIN,CCCCO[Sn](CCCC)(CCCC)OCCCC,389.15,1,gelest_tin
DI-n-BUTYLDICHLOROTIN,CCCC[Sn](Cl)(Cl)CCCC,441.15,1,gelest_tin
DI-t-BUTYLDICHLOROTIN,CC(C)(C)[Sn](Cl)(Cl)C(C)(C)C,386.15,1,gelest_tin
DI-n-BUTYLDIMETHOXYTIN,CCCC[Sn](CCCC)(OC)OC,383.15,1,gelest_tin
DIMETHYLAMINOTRI-n-BUTYLTIN,CCCC[Sn](CCCC)(CCCC)N(C)C,388.15,1,gelest_tin
DIMETHYLAMINOTRIMETHYLTIN,CN(C)[Sn](C)(C)C,274.15,1,gelest_tin
DIOCTYLDICHLOROTIN,CCCCCCCC[Sn](Cl)(Cl)CCCCCCCC,477.15,1,gelest_tin
DIOCTYLDILAURYLTIN,CCCCCCCCCCCC[Sn](CCCCCCCC)(CCCCCCCC)CCCCCCCCCCCC,471.15,1,gelest_tin
DIVINYLDICHLOROTIN,C=C[Sn](Cl)(Cl)C=C,477.15,1,gelest_tin
1-ETHOXYVINYLTRI-n-BUTYLTIN,C=C(OCC)[Sn](CCCC)(CCCC)CCCC,386.15,1,gelest_tin
ETHYNYLTRI-n-BUTYLTIN,C#C[Sn](CCCC)(CCCC)CCCC,346.15,1,gelest_tin
PHENYLETHYNYLTRI-n-BUTYLTIN,CCCC[Sn](C#Cc1ccccc1)(CCCC)CCCC,386.15,1,gelest_tin
PHENYLTRI-n-BUTYLTIN,CCCC[Sn](CCCC)(CCCC)c1ccccc1,380.15,1,gelest_tin
PHENYLTHIOTRI-n-BUTYLTIN,CCCC[Sn](CCCC)(CCCC)Sc1ccccc1,377.15,1,gelest_tin
TETRAALLYLTIN,C=CC[Sn](CC=C)(CC=C)CC=C,348.15,1,gelest_tin
TETRABUTYLDILAURYLDISTANNOXANE,CCCCCCCCCCCC[Sn](CCCC)(CCCCCCCCCCCC)O[Sn](CCCC)(CCCC)CCCC,504.15,1,gelest_tin
TETRA-n-BUTYLTIN,CCCC[Sn](CCCC)(CCCC)CCCC,274.15,1,gelest_tin
TETRA-n-BUTYLTIN,CCCC[Sn](CCCC)(CCCC)CCCC,380.15,1,gelest_tin
TETRAETHYLTIN,CC[Sn](CC)(CC)CC,326.15,1,gelest_tin
TETRAKIS(DIETHYLAMINO)TIN,CCN(CC)[Sn](N(CC)CC)(N(CC)CC)N(CC)CC,312.15,1,gelest_tin
TETRAMETHYLTIN,C[Sn](C)(C)C,261.15,1,gelest_tin
TETRA-n-OCTYLTIN,CCCCCCCC[Sn](CCCCCCCC)(CCCCCCCC)CCCCCCCC,367.15,1,gelest_tin
TETRAPHENYLTIN,c1ccc([Sn](c2ccccc2)(c2ccccc2)c2ccccc2)cc1,504.15,1,gelest_tin
TETRAVINYLTIN,C=C[Sn](C=C)(C=C)C=C,313.15,1,gelest_tin
2-THIENYLTRI-n-BUTYLTIN,CCCC[Sn](CCCC)(CCCC)c1cccs1,379.15,1,gelest_tin