compound,smiles,flashpoint,pure substance,source
TIN(IV) OXIDE,O=[Sn]=O,284.15,0,gelest_tin
TRI-n-BUTYLACETOXYTIN,CCCCC(CCCC)(CCCC)C(=O)O[Sn],393.15,1,gelest_tin
TRI-n-BUTYLCHLOROTIN,CCCC[Sn](Cl)(CCCC)CCCC,393.15,1,gelest_tin
TRI-n-BUTYLETHOXYTIN,CCCC[Sn](CCCC)(CCCC)OCC,377.15,1,gelest_tin
TRI-n-BUTYLIODOTIN,CCCC[Sn](I)(CCCC)CCCC,386.15,1,gelest_tin
TRI-n-BUTYLMETHOXYTIN,CCCC[Sn](CCCC)(CCCC)OC,371.15,1,gelest_tin
TRI-n-BUTYLTIN HYDRIDE,CCCC[SnH](CCCC)CCCC,313.15,1,gelest_tin
TRICYCLOHEXYLTIN HYDRIDE,C1CCC([SnH](C2CCCCC2)C2CCCCC2)CC1,378.15,1,gelest_tin
TRIETHYLBROMOTIN,CC[Sn](Br)(CC)CC,372.15,1,gelest_tin
TRIMETHYLCHLOROTIN,C[Sn](C)(C)Cl,370.15,1,gelest_tin
TRIMETHYLCHLOROTIN,C[Sn](C)(C)Cl,259.15,0,gelest_tin
TRIPHENYLCHLOROTIN,Cl[Sn](c1ccccc1)(c1ccccc1)c1ccccc1,343.15,1,gelest_tin