,compound,flashpoint,pure substance,smiles,source
0,ALLYLTRI-n-BUTYLTIN,376.15,1,C=CC[Sn](CCCC)(CCCC)CCCC,gelest_tin
1,BIS[BIS(TRIMETHYLSILYL)AMINO]TIN(II),329.15,1,C[Si](C)(C)N([Sn]N([Si](C)(C)C)[Si](C)(C)C)[Si](C)(C)C,gelest_tin
2,t-BUTYLTRI n-BUTYLTIN,375.15,1,CCCC[Sn](CCCC)(CCCC)C(C)(C)C,gelest_tin
3,CHLOROMETHYLTRIMETHYLTIN,312.15,1,C[Sn](C)(C)CCl,gelest_tin
4,DIALLYLDI-n-BUTYLTIN,374.15,1,C=CC[Sn](CC=C)(CCCC)CCCC,gelest_tin
5,DI-n-BUTYLDIACETOXYTIN,416.15,1,CCCC[Sn](CCCC)(OC(C)=O)OC(C)=O,gelest_tin
6,DI-n-BUTYLDI-n-BUTOXYTIN,389.15,1,CCCCO[Sn](CCCC)(CCCC)OCCCC,gelest_tin
7,DI-n-BUTYLDICHLOROTIN,441.15,1,CCCC[Sn](Cl)(Cl)CCCC,gelest_tin
8,DI-t-BUTYLDICHLOROTIN,386.15,1,CC(C)(C)[Sn](Cl)(Cl)C(C)(C)C,gelest_tin
9,DI-n-BUTYLDIMETHOXYTIN,383.15,1,CCCC[Sn](CCCC)(OC)OC,gelest_tin
10,DIMETHYLAMINOTRI-n-BUTYLTIN,388.15,1,CCCC[Sn](CCCC)(CCCC)N(C)C,gelest_tin
11,DIMETHYLAMINOTRIMETHYLTIN,274.15,1,CN(C)[Sn](C)(C)C,gelest_tin
12,DIOCTYLDICHLOROTIN,477.15,1,CCCCCCCC[Sn](Cl)(Cl)CCCCCCCC,gelest_tin
13,DIOCTYLDILAURYLTIN,471.15,1,CCCCCCCCCCCC[Sn](CCCCCCCC)(CCCCCCCC)CCCCCCCCCCCC,gelest_tin
14,DIVINYLDICHLOROTIN,477.15,1,C=C[Sn](Cl)(Cl)C=C,gelest_tin
15,1-ETHOXYVINYLTRI-n-BUTYLTIN,386.15,1,C=C(OCC)[Sn](CCCC)(CCCC)CCCC,gelest_tin
16,ETHYNYLTRI-n-BUTYLTIN,346.15,1,C#C[Sn](CCCC)(CCCC)CCCC,gelest_tin
17,PHENYLETHYNYLTRI-n-BUTYLTIN,386.15,1,CCCC[Sn](C#Cc1ccccc1)(CCCC)CCCC,gelest_tin
18,PHENYLTRI-n-BUTYLTIN,380.15,1,CCCC[Sn](CCCC)(CCCC)c1ccccc1,gelest_tin
19,PHENYLTHIOTRI-n-BUTYLTIN,377.15,1,CCCC[Sn](CCCC)(CCCC)Sc1ccccc1,gelest_tin
20,TETRAALLYLTIN,348.15,1,C=CC[Sn](CC=C)(CC=C)CC=C,gelest_tin
21,TETRABUTYLDILAURYLDISTANNOXANE,504.15,1,CCCCCCCCCCCC[Sn](CCCC)(CCCCCCCCCCCC)O[Sn](CCCC)(CCCC)CCCC,gelest_tin
22,TETRA-n-BUTYLTIN,274.15,1,CCCC[Sn](CCCC)(CCCC)CCCC,gelest_tin
23,TETRA-n-BUTYLTIN,380.15,1,CCCC[Sn](CCCC)(CCCC)CCCC,gelest_tin
24,TETRAETHYLTIN,326.15,1,CC[Sn](CC)(CC)CC,gelest_tin
25,TETRAKIS(DIETHYLAMINO)TIN,312.15,1,CCN(CC)[Sn](N(CC)CC)(N(CC)CC)N(CC)CC,gelest_tin
26,TETRAMETHYLTIN,261.15,1,C[Sn](C)(C)C,gelest_tin
27,TETRAMETHYLTIN,261.15,1,C[Sn](C)(C)C,gelest_tin
28,TETRA-n-OCTYLTIN,367.15,1,CCCCCCCC[Sn](CCCCCCCC)(CCCCCCCC)CCCCCCCC,gelest_tin
29,TETRAPHENYLTIN,504.15,1,c1ccc([Sn](c2ccccc2)(c2ccccc2)c2ccccc2)cc1,gelest_tin
30,TETRAVINYLTIN,313.15,1,C=C[Sn](C=C)(C=C)C=C,gelest_tin
31,2-THIENYLTRI-n-BUTYLTIN,379.15,1,CCCC[Sn](CCCC)(CCCC)c1cccs1,gelest_tin
32,TRI-n-BUTYLACETOXYTIN,393.15,1,CCCCC(CCCC)(CCCC)C(=O)O[Sn],gelest_tin
33,TRI-n-BUTYLCHLOROTIN,393.15,1,CCCC[Sn](Cl)(CCCC)CCCC,gelest_tin
34,TRI-n-BUTYLETHOXYTIN,377.15,1,CCCC[Sn](CCCC)(CCCC)OCC,gelest_tin
35,TRI-n-BUTYLIODOTIN,386.15,1,CCCC[Sn](I)(CCCC)CCCC,gelest_tin
36,TRI-n-BUTYLMETHOXYTIN,371.15,1,CCCC[Sn](CCCC)(CCCC)OC,gelest_tin
37,TRI-n-BUTYLTIN HYDRIDE,313.15,1,CCCC[SnH](CCCC)CCCC,gelest_tin
38,TRICYCLOHEXYLTIN HYDRIDE,378.15,1,C1CCC([SnH](C2CCCCC2)C2CCCCC2)CC1,gelest_tin
39,TRIETHYLBROMOTIN,372.15,1,CC[Sn](Br)(CC)CC,gelest_tin
40,TRIMETHYLCHLOROTIN,370.15,1,C[Sn](C)(C)Cl,gelest_tin
41,TRIPHENYLCHLOROTIN,343.15,1,Cl[Sn](c1ccccc1)(c1ccccc1)c1ccccc1,gelest_tin