,compound,flashpoint,pure substance,smiles,source
0,toluene,280.2,1,Cc1ccccc1,godinho11
1,ethylbenzene,299.1,1,CCc1ccccc1,godinho11
2,p -xylene,298.2,1,Cc1ccc(C)cc1,godinho11
3,m -xylene,298.2,1,Cc1cccc(C)c1,godinho11
4,o -xylene,303.2,1,Cc1ccccc1C,godinho11
5,cumene,304.2,1,CC(C)c1ccccc1,godinho11
6,propylbenzene,315.2,1,CCCc1ccccc1,godinho11
7,m -ethyltoluene,311.2,1,CCc1cccc(C)c1,godinho11
8,p -ethyltoluene,309.2,1,CCc1ccc(C)cc1,godinho11
9,"1,3,5-trimethylbenzene",317.2,1,Cc1cc(C)cc(C)c1,godinho11
10,o -ethyltoluene,312.2,1,CCc1ccccc1C,godinho11
11,tert -butylbenzene,317.2,1,CC(C)(C)c1ccccc1,godinho11
12,"1,2,4-trimethylbenzene",318.7,1,Cc1ccc(C)c(C)c1,godinho11
13,sec -butylbenzene,325.0,1,CCC(C)c1ccccc1,godinho11
14,m -cymene,320.2,1,Cc1cccc(C(C)C)c1,godinho11
15,isobutylbenzene,323.2,1,CC(C)Cc1ccccc1,godinho11
16,"1,2,3-trimethylbenzene",324.2,1,Cc1cccc(C)c1C,godinho11
17,p -cymene,320.2,1,Cc1ccc(C(C)C)cc1,godinho11
18,o -cymene,323.2,1,Cc1ccccc1C(C)C,godinho11
19,m -diethylbenzene,324.2,1,CCc1cccc(CC)c1,godinho11
20,m -propyltoluene,325.0,1,CCCc1cccc(C)c1,godinho11
21,butylbenzene,331.2,1,CCCCc1ccccc1,godinho11
22,p -propyltoluene,329.5,1,CCCc1ccc(C)cc1,godinho11
23,o -diethylbenzene,328.2,1,CCc1ccccc1CC,godinho11
24,"1-ethyl-3,5-dimethylbenzene",330.5,1,CCc1cc(C)cc(C)c1,godinho11
25,p -diethylbenzene,328.2,1,CCc1ccc(CC)cc1,godinho11
26,o -propyltoluene,330.9,1,CCCc1ccccc1C,godinho11
27,neopentylbenzene,323.2,1,CC(C)(C)Cc1ccccc1,godinho11
28,1-tert -butyl-3-methylbenzene,333.7,1,Cc1cccc(C(C)(C)C)c1,godinho11
29,2-ethyl-p -xylene,329.2,1,CCc1cc(C)ccc1C,godinho11
30,"(1,2-dimethylpropyl)benzene",330.1,1,CC(C)C(C)c1ccccc1,godinho11
31,"1-ethyl-2,4-dimethylbenzene",330.2,1,CCc1ccc(C)cc1C,godinho11
32,4-ethyl-o -xylene,331.2,1,CCc1ccc(C)c(C)c1,godinho11
33,"2-ethyl-1,3-dimethylbenzene",335.1,1,CCc1c(C)cccc1C,godinho11
34,2-tert -butyltoluene,334.6,1,Cc1ccccc1C(C)(C)C,godinho11
35,4-tert -butyltoluene,327.2,1,Cc1ccc(C(C)(C)C)cc1,godinho11
36,2-phenyl-2-methylbutane,332.5,1,CCC(C)(C)c1ccccc1,godinho11
37,m -ethylcumene,336.0,1,CCc1cccc(C(C)C)c1,godinho11
38,"1-ethyl-2,3-dimethylbenzene",338.2,1,CCc1cccc(C)c1C,godinho11
39,1-sec -butyl-3-methylbenzene,336.2,1,CCC(C)c1cccc(C)c1,godinho11
40,1-isobutyl-2-methylbenzene,341.8,1,Cc1ccccc1CC(C)C,godinho11
41,1-isobutyl-4-methylbenzene,340.5,1,Cc1ccc(CC(C)C)cc1,godinho11
42,"1,4-dimethyl-2-isopropylbenzene",337.8,1,Cc1ccc(C)c(C(C)C)c1,godinho11
43,1-sec -butyl-4-methylbenzene,338.0,1,CCC(C)c1ccc(C)cc1,godinho11
44,(2-methylbutyl)benzene,337.2,1,CCC(C)Cc1ccccc1,godinho11
45,p -ethylcumene,338.9,1,CCc1ccc(C(C)C)cc1,godinho11
46,isopentylbenzene,335.2,1,CC(C)CCc1ccccc1,godinho11
47,sec -pentylbenzene,333.8,1,CCCC(C)c1ccccc1,godinho11
48,"1,3-dimethyl-4-isopropylbenzene",340.3,1,Cc1ccc(C(C)C)c(C)c1,godinho11
49,"1,3-diethyl-5-methylbenzene",343.0,1,CCc1cc(C)cc(CC)c1,godinho11
50,1-ethyl-3-propylbenzene,342.8,1,CCCc1cccc(CC)c1,godinho11
51,"1,2-dimethyl-4-isopropylbenzene",341.2,1,Cc1ccc(C(C)C)cc1C,godinho11
52,"1,3-diisopropylbenzene",349.9,1,CC(C)c1cccc(C(C)C)c1,godinho11
53,1-butyl-3-methylbenzene,343.9,1,CCCCc1cccc(C)c1,godinho11
54,"1,3-diethyl-4-methylbenzene",345.4,1,CCc1ccc(C)c(CC)c1,godinho11
55,pentylbenzene,339.2,1,CCCCCc1ccccc1,godinho11
56,1-butyl-4-methylbenzene,344.3,1,CCCCc1ccc(C)cc1,godinho11
57,"1-tert -butyl-3,5-dimethylbenzene",345.0,1,Cc1cc(C)cc(C(C)(C)C)c1,godinho11
58,"1,4-diethyl-2-methylbenzene",346.1,1,CCc1ccc(CC)c(C)c1,godinho11
59,1-butyl-2-methylbenzene,345.6,1,CCCCc1ccccc1C,godinho11
60,"1,4-diisopropylbenzene",349.2,1,CC(C)c1ccc(C(C)C)cc1,godinho11
61,"1,2-dimethyl-3-propylbenzene",345.0,1,CCCc1cccc(C)c1C,godinho11
62,1-tert -butyl-4-ethylbenzene,349.1,1,CCc1ccc(C(C)(C)C)cc1,godinho11
63,(1-ethylbutyl)benzene,347.4,1,CCCC(CC)c1ccccc1,godinho11
64,"1,3,5-triethylbenzene",354.2,1,CCc1cc(CC)cc(CC)c1,godinho11
65,"1,2,3-triethylbenzene",352.0,1,CCc1cccc(CC)c1CC,godinho11
66,"1-sec -butyl-2,4-dimethylbenzene",354.5,1,CCC(C)c1ccc(C)cc1C,godinho11
67,hexylbenzene,356.7,1,CCCCCCc1ccccc1,godinho11
68,"(2,4-dimethylpentyl)benzene",360.1,1,CC(C)CC(C)Cc1ccccc1,godinho11
69,(1-methylhexyl)benzene,360.4,1,CCCCCC(C)c1ccccc1,godinho11
70,"1,4-di-tert -butylbenzene",370.1,1,CC(C)(C)c1ccc(C(C)(C)C)cc1,godinho11
71,heptylbenzene,368.6,1,CCCCCCCc1ccccc1,godinho11
72,(1-methylheptyl)benzene,373.2,1,CCCCCCC(C)c1ccccc1,godinho11
73,"1,3-dibutylbenzene",382.4,1,CCCCc1cccc(CCCC)c1,godinho11
74,octylbenzene,380.2,1,CCCCCCCCc1ccccc1,godinho11