,compound,flashpoint,pure substance,smiles,source
0,Acetaldehyde,235.15,1,CC=O,hazardous materials
1,Acetanilide,447.15,1,CC(=O)Nc1ccccc1,hazardous materials
2,Acetic acid,316.15,1,CC(=O)O,hazardous materials
3,Acetic anhydride,327.15,1,CC(=O)OC(C)=O,hazardous materials
4,Acetone,255.15,1,CC(C)=O,hazardous materials
5,Acetone cyanohydrin,347.15,1,CC(C)(O)C#N,hazardous materials
6,Acetonitrile,279.15,1,CC#N,hazardous materials
7,Acetyl chloride,277.15,1,CC(=O)Cl,hazardous materials
8,Acetyl peroxide,386.15,1,CC(=O)OOC(C)=O,hazardous materials
9,Acrolein,247.15,1,C=CC=O,hazardous materials
10,Acrylic acid,325.15,1,C=CC(=O)O,hazardous materials
11,Acrylonitrile,273.15,1,C=CC#N,hazardous materials
12,Adipic acid,464.15,1,O=C(O)CCCCC(=O)O,hazardous materials
13,Adiponitrile,366.15,1,N#CCCCCC#N,hazardous materials
14,Allyl acetate,294.15,1,C=CCOC(C)=O,hazardous materials
15,Allyl alcohol,294.15,1,C=CCO,hazardous materials
16,Allyl amine,244.15,1,C=CCN,hazardous materials
17,Allyl bromide,272.15,1,C=CCBr,hazardous materials
18,Allyl chloride,241.15,1,C=CCCl,hazardous materials
19,Allyl chloroformate,304.15,1,C=CCOC(=O)Cl,hazardous materials
20,Allyl glycidyl ether,330.15,1,C=CCOCC1CO1,hazardous materials
21,Aminoethylethanol amine,402.15,1,NCCC(O)CN,hazardous materials
22,iso-Amyl acetate,296.15,1,CC(=O)OCCC(C)C,hazardous materials
23,sec-Amyl acetate,305.15,1,CCCC(C)OC(C)=O,hazardous materials
24,iso-Amyl alcohol,316.15,1,CC(C)CCO,hazardous materials
25,tert-Amyl alcohol,292.15,1,CCC(C)(C)O,hazardous materials
26,Amylamine,280.15,1,CCCCCN,hazardous materials
27,iso-Amyl formate,299.15,1,CC(C)CCOC=O,hazardous materials
28,Amyl mercaptan,291.15,1,CCCCCS,hazardous materials
29,iso-Amyl nitrate,325.15,1,CC(C)CCO[N+](=O)[O-],hazardous materials
30,Amyl nitrite,283.15,1,CCCCCON=O,hazardous materials
31,Aniline,343.15,1,Nc1ccccc1,hazardous materials
32,o-Anisaldehyde,391.15,1,COc1ccccc1C=O,hazardous materials
33,Anisole,325.15,1,COc1ccccc1,hazardous materials
34,Anthracene,394.15,1,c1ccc2cc3ccccc3cc2c1,hazardous materials
35,Anthraquinone,458.15,1,O=C1c2ccccc2C(=O)c2ccccc21,hazardous materials
36,Aziridine,262.15,1,C1CN1,hazardous materials
37,Benzaldehyde,337.15,1,O=Cc1ccccc1,hazardous materials
38,Benzene,262.15,1,c1ccccc1,hazardous materials
39,Benzoic acid,394.15,1,O=C(O)c1ccccc1,hazardous materials
40,Benzonitrile,358.15,1,N#Cc1ccccc1,hazardous materials
41,Benzotrifluoride,285.15,1,FC(F)(F)c1ccccc1,hazardous materials
42,Benzoyl chloride,345.15,1,O=C(Cl)c1ccccc1,hazardous materials
43,Benzyl acetate,375.15,1,CC(=O)OCc1ccccc1,hazardous materials
44,Benzyl alcohol,374.15,1,OCc1ccccc1,hazardous materials
45,Benzylamine,336.15,1,NCc1ccccc1,hazardous materials
46,Benzyl benzoate,421.15,1,O=C(OCc1ccccc1)c1ccccc1,hazardous materials
47,Benzyl chloride,340.15,1,ClCc1ccccc1,hazardous materials
48,Benzyl mercaptan,343.15,1,SCc1ccccc1,hazardous materials
49,Bicyclohexyl,347.15,1,C1CCC(C2CCCCC2)CC1,hazardous materials
50,Biphenyl,386.15,1,c1ccc(-c2ccccc2)cc1,hazardous materials
51,Bromobenzene,324.15,1,Brc1ccccc1,hazardous materials
52,o-Bromotoluene,352.15,1,Cc1ccccc1Br,hazardous materials
53,n-Butane,213.15,1,CCCC,hazardous materials
54,1-Butene,193.15,1,C=CCC,hazardous materials
55,n-Butyl acetate,300.15,1,CCCCOC(C)=O,hazardous materials
56,iso-Butyl acetate,291.15,1,CC(=O)OCC(C)C,hazardous materials
57,sec-Butyl acetate,304.15,1,CCC(C)OC(C)=O,hazardous materials
58,n-Butyl alcohol,302.15,1,CCCCO,hazardous materials
59,iso-Butyl alcohol,301.15,1,CC(C)CO,hazardous materials
60,sec-Butyl alcohol,297.15,1,CCC(C)O,hazardous materials
61,tert-Butyl alcohol,283.15,1,CC(C)(C)O,hazardous materials
62,Butylamine,261.15,1,CCCCN,hazardous materials
63,iso-Butylamine,264.15,1,CC(C)CN,hazardous materials
64,n-Butyl benzene,344.15,1,CCCCc1ccccc1,hazardous materials
65,iso-Butyl benzene,325.15,1,CC(C)Cc1ccccc1,hazardous materials
66,n-Butyl bromide,291.15,1,CCCCBr,hazardous materials
67,n-Butyl chloride,280.15,1,CCCCCl,hazardous materials
68,"1,3-Butylene glycol",394.15,1,CC(O)CCO,hazardous materials
69,"2,3-Butylene glycol",358.15,1,CC(O)C(C)O,hazardous materials
70,n-Butyl formate,291.15,1,CCCCOC=O,hazardous materials
71,Butyl lactate,344.15,1,CCCCOC(=O)C(C)O,hazardous materials
72,Butyl mercaptan,275.15,1,CCCCS,hazardous materials
73,Butyl methacrylate,325.15,1,C=C(C)C(=O)OCCCC,hazardous materials
74,Isobutyl methyl ketone,290.15,1,CC(=O)CC(C)C,hazardous materials
75,tert-Butyl perbenzoate,361.15,1,CC(C)(C)OOC(=O)c1ccccc1,hazardous materials
76,Butyl vinyl ether,264.15,1,C=COCCCC,hazardous materials
77,n-Butyraldehyde,266.45,1,CCCC=O,hazardous materials
78,n-Butyric acid,339.15,1,CCCC(=O)O,hazardous materials
79,n-Butyric anhydride,361.15,1,CCCC(=O)OC(=O)CCC,hazardous materials
80,2-Butyrolactone,371.15,1,CCC1OC1=O,hazardous materials
81,n-Butyronitrile,299.15,1,CCCC#N,hazardous materials
82,Camphor,339.15,1,CC12CCC(CC1=O)C2(C)C,hazardous materials
83,Caproic acid,375.15,1,CCCCCC(=O)O,hazardous materials
84,Caprylaldehyde,325.15,1,CCCCCCCC=O,hazardous materials
85,Carbon disulphide,243.15,1,S=C=S,hazardous materials
86,Chloroacetaldehyde,361.15,1,O=CCCl,hazardous materials
87,Chlorobenzene,302.15,1,Clc1ccccc1,hazardous materials
88,"1-Chloro-2,4-dinitrobenzene",467.15,1,O=[N+]([O-])c1ccc(Cl)c([N+](=O)[O-])c1,hazardous materials
89,Chloronaphthalene,405.15,1,Clc1cccc2ccccc12,hazardous materials
90,1-Chloro-1-nitropropane,335.15,1,CCC(Cl)[N+](=O)[O-],hazardous materials
91,o-Chlorophenol,337.15,1,Oc1ccccc1Cl,hazardous materials
92,p-Chlorophenol,394.15,1,Oc1ccc(Cl)cc1,hazardous materials
93,Chlorotrifluoroethylene,246.15,1,FC(F)=C(F)Cl,hazardous materials
94,Cinnamaldehyde,322.15,1,O=CC=Cc1ccccc1,hazardous materials
95,m-Cresol,367.15,1,Cc1cccc(O)c1,hazardous materials
96,o-Cresol,354.15,1,Cc1ccccc1O,hazardous materials
97,p-Cresol,367.15,1,Cc1ccc(O)cc1,hazardous materials
98,Crotonaldehyde,286.15,1,C/C=C/C=O,hazardous materials
99,Cumene,317.15,1,CC(C)c1ccccc1,hazardous materials
100,Cumene hydroperoxide,352.15,1,CC(C)c1ccccc1.[O-]O,hazardous materials
101,Cyclohexane,253.15,1,C1CCCCC1,hazardous materials
102,Cyclohexanol,341.15,1,OC1CCCCC1,hazardous materials
103,Cyclohexanone,317.15,1,O=C1CCCCC1,hazardous materials
104,Cyclohexylamine,305.15,1,NC1CCCCC1,hazardous materials
105,Cyclohexylbenzene,372.15,1,c1ccc(C2CCCCC2)cc1,hazardous materials
106,Cyclopentane,266.15,1,C1CCCC1,hazardous materials
107,Cyclopentanone,299.15,1,O=C1CCCC1,hazardous materials
108,p-Cymene,320.15,1,Cc1ccc(C(C)C)cc1,hazardous materials
109,Decahydronaphthalene,330.15,1,C1CCC2CCCCC2C1,hazardous materials
110,iso-Decaldehyde,358.15,1,CC(C)CCCCCCC=O,hazardous materials
111,n-Decane,319.15,1,CCCCCCCCCC,hazardous materials
112,n-Decyl alcohol,355.15,1,CCCCCCCCCCO,hazardous materials
113,Diacetone alcohol,337.15,1,CC(=O)CC(C)(C)O,hazardous materials
114,Dibutylamine,325.15,1,CCCCNCCCC,hazardous materials
115,Dibutyldichlorotin,628.15,1,CCCC[Sn](Cl)(Cl)CCCC,hazardous materials
116,Di-n-butyl ether,298.15,1,CCCCOCCCC,hazardous materials
117,Dibutyl oxalate,377.15,1,CCCCOC(=O)C(=O)OCCCC,hazardous materials
118,Dibutyl peroxide,291.15,1,CCCCOOCCCC,hazardous materials
119,Dibutyl phosphite,322.15,1,CCCCOP([O-])OCCCC,hazardous materials
120,Dibutyl phthalate,430.15,1,CCCCOC(=O)c1ccccc1C(=O)OCCCC,hazardous materials
121,Dibutyl tartrate,364.15,1,CCCCOC(=O)C(O)C(O)C(=O)OCCCC,hazardous materials
122,Dichloroacetyl chloride,339.15,1,O=C(Cl)C(Cl)Cl,hazardous materials
123,"2,5-Dichloroaniline",439.15,1,Nc1cc(Cl)ccc1Cl,hazardous materials
124,o-Dichlorobenzene,339.15,1,Clc1ccccc1Cl,hazardous materials
125,"1,4-Dichlorobutane",325.15,1,ClCCCCCl,hazardous materials
126,"1,3-Dichloro-2-butene",300.15,1,CC(Cl)=CCCl,hazardous materials
127,"1,1-Dichloroethane",267.15,1,CC(Cl)Cl,hazardous materials
128,"1,1-Dichloro-1-nitroethane",349.15,1,CC(Cl)(Cl)[N+](=O)[O-],hazardous materials
129,"2,4-Dichlorophenol",387.15,1,Oc1ccc(Cl)cc1Cl,hazardous materials
130,"1,2-Dichloropropane",289.15,1,CC(Cl)CCl,hazardous materials
131,"1,3-Dichloropropane",308.15,1,ClCCCCl,hazardous materials
132,Dicyclohexylamine,372.15,1,C1CCC(NC2CCCCC2)CC1,hazardous materials
133,Diethanolamine,425.15,1,OCCNCCO,hazardous materials
134,"N,N-Diethylaniline ",358.15,1,CCN(CC)c1ccccc1,hazardous materials
135,Diethylcarbonate,298.15,1,CCOC(=O)OCC,hazardous materials
136,Diethylene glycol,397.15,1,OCCOCCO,hazardous materials
137,Diethylene glycol-monoethyl ether,369.15,1,CCOCCOCCO,hazardous materials
138,Diethylenetriamine,375.15,1,NCCNCCN,hazardous materials
139,Diethyl ketone,286.15,1,CCC(=O)CC,hazardous materials
140,Diethyl malonate,366.15,1,CCOC(=O)CC(=O)OCC,hazardous materials
141,Diethyl sulphate,377.15,1,CCOS(=O)(=O)OCC,hazardous materials
142,"3,4-Dihydro-2H-pyran",255.15,1,C1=COCCC1,hazardous materials
143,Diisobutyl ketone,333.15,1,CC(C)CC(=O)CC(C)C,hazardous materials
144,Diisobutyl carbinol,347.15,1,CC(C)CC(O)CC(C)C,hazardous materials
145,Diisopropyl amine,272.15,1,CC(C)NC(C)C,hazardous materials
146,Diisopropyl ether,245.15,1,CC(C)OC(C)C,hazardous materials
147,Diisopropyl benzene,349.15,1,CC(C)c1ccccc1C(C)C,hazardous materials
148,Dimethoxyethane,313.15,1,COCCOC,hazardous materials
149,Dimethoxymethane,255.15,1,COCOC,hazardous materials
150,Dimethoxypropane,266.15,1,COC(C)(C)OC,hazardous materials
151,"N,N-Dimethyl acetamide ",350.15,1,CC(=O)N(C)C,hazardous materials
152,"N,N-Dimethylaniline ",336.15,1,CN(C)c1ccccc1,hazardous materials
153,"2,2-Dimethyl butane",225.15,1,CCC(C)(C)C,hazardous materials
154,"2,3-Dimethyl butane",244.15,1,CC(C)C(C)C,hazardous materials
155,Dimethyl carbonate,292.15,1,COC(=O)OC,hazardous materials
156,Dimethylformamide,331.15,1,CN(C)C=O,hazardous materials
157,Dimethyl phthalate,419.15,1,COC(=O)c1ccccc1C(=O)OC,hazardous materials
158,Dimethyl sulphate,356.15,1,COS(=O)(=O)OC,hazardous materials
159,Dimethyl sulphoxide,368.15,1,CS(C)=O,hazardous materials
160,m-Dinitrobenzene,423.15,1,O=[N+]([O-])c1cccc([N+](=O)[O-])c1,hazardous materials
161,o-Dinitrobenzene,423.15,1,O=[N+]([O-])c1ccccc1[N+](=O)[O-],hazardous materials
162,p-Dinitrobenzene,423.15,1,O=[N+]([O-])c1ccc([N+](=O)[O-])cc1,hazardous materials
163,"2,4-Dinitrotoluene",480.15,1,Cc1ccc([N+](=O)[O-])cc1[N+](=O)[O-],hazardous materials
164,Di-n-Octyl phthalate,492.15,1,CCCCCCCCOC(=O)c1ccccc1C(=O)OCCCCCCCC,hazardous materials
165,Di-sec-Octyl phthalate,491.15,1,CCCCCCC(C)OC(=O)c1ccccc1C(=O)OC(C)CCCCCC,hazardous materials
166,"1,4-Dioxane",285.15,1,C1COCCO1,hazardous materials
167,Diphenylamine,426.15,1,c1ccc(Nc2ccccc2)cc1,hazardous materials
168,Diphenylmethane,403.15,1,c1ccc(Cc2ccccc2)cc1,hazardous materials
169,Dipropylene glycol methyl ether,358.15,1,COC(C)COC(C)CO,hazardous materials
170,n-Dodecane,347.15,1,CCCCCCCCCCCC,hazardous materials
171,Epichlorohydrin,314.15,1,ClCC1CO1,hazardous materials
172,"1,2-Epoxy-propane",236.15,1,CC1CO1,hazardous materials
173,Ethanol,285.15,1,CCO,hazardous materials
174,Ethanolamine,358.15,1,NCCO,hazardous materials
175,Ethyl acetanilide,325.15,1,CCCC(=O)Nc1ccccc1,hazardous materials
176,Ethyl acetate,268.75,1,CCOC(C)=O,hazardous materials
177,Ethyl acetoacetate,357.15,1,CCOC(=O)CC(C)=O,hazardous materials
178,Ethyl acrylate,289.15,1,C=CC(=O)OCC,hazardous materials
179,Ethyl amyl ketone,330.15,1,CCCCCC(=O)CC,hazardous materials
180,n-Ethyl aniline,358.15,1,CCNc1ccccc1,hazardous materials
181,Ethyl benzene,288.15,1,CCc1ccccc1,hazardous materials
182,Ethyl bromoacetate,321.15,1,CCOC(=O)CBr,hazardous materials
183,Ethyl butyl ketone,319.15,1,CCCCC(=O)CC,hazardous materials
184,2-Ethyl butyraldehyde,294.15,1,CCC(C=O)CC,hazardous materials
185,Ethyl butyrate,299.15,1,CCCC(=O)OCC,hazardous materials
186,Ethyl chloride,223.15,1,CCCl,hazardous materials
187,Ethyl chloroacetate,339.15,1,CCOC(=O)CCl,hazardous materials
188,Ethyl chloroformate,289.15,1,CCOC(=O)Cl,hazardous materials
189,Ethyl crotonate,275.15,1,C/C=C/C(=O)OCC,hazardous materials
190,Ethyl cyanoacetate,383.15,1,CCOC(=O)CC#N,hazardous materials
191,Ethylene chlorohydrin,333.15,1,OCCCl,hazardous materials
192,Ethylene dichloride,286.15,1,ClCCCl,hazardous materials
193,Ethylene glycol,384.15,1,OCCO,hazardous materials
194,Ethyl ether,228.15,1,CCOCC,hazardous materials
195,Ethyl formate,253.15,1,CCOC=O,hazardous materials
196,2-Ethyl hexanol,357.15,1,CCCCC(CC)CO,hazardous materials
197,Ethyl lactate,319.15,1,CCOC(=O)C(C)O,hazardous materials
198,Ethyl methyl ether,236.15,1,CCOC,hazardous materials
199,N-Ethylmorpholine,305.15,1,CCN1CCOCC1,hazardous materials
200,Ethyl nitrite,238.15,1,CCON=O,hazardous materials
201,Ethyl oxalate,349.15,1,CCOC(=O)C(=O)[O-],hazardous materials
202,Ethyl propionate,285.15,1,CCOC(=O)CC,hazardous materials
203,2-Ethyl-3-propyl acrolein,341.15,1,CCCC=C(C=O)CC,hazardous materials
204,Ethyl silicate,325.15,1,CCO[Si]([O-])([O-])[O-],hazardous materials
205,Formamide,428.15,1,NC=O,hazardous materials
206,Formic acid,342.15,1,O=CO,hazardous materials
207,Furfural,333.15,1,O=Cc1ccco1,hazardous materials
208,Furfuryl alcohol,348.15,1,OCc1ccco1,hazardous materials
209,Glycerol,433.15,1,OCC(O)CO,hazardous materials
210,Heptane,269.15,1,CCCCCCC,hazardous materials
211,n-Heptylamine,327.15,1,CCCCCCCN,hazardous materials
212,Hexachlorobenzene,515.15,1,Clc1c(Cl)c(Cl)c(Cl)c(Cl)c1Cl,hazardous materials
213,"2,4-Hexadienal",341.15,1,CC=CC=CC=O,hazardous materials
214,"1,4-Hexadiene",252.15,1,C=CCC=CC,hazardous materials
215,Hexane,251.15,1,CCCCCC,hazardous materials
216,n-Hexanol,333.15,1,CCCCCCO,hazardous materials
217,sec-Hexyl acetate,318.15,1,CCCCC(C)OC(C)=O,hazardous materials
218,Hexyl amine,302.15,1,CCCCCCN,hazardous materials
219,Hydrazine,311.15,1,NN,hazardous materials
220,Hydrocyanic acid,255.15,1,C#N,hazardous materials
221,Hydroquinone monomethyl ether,404.15,1,COc1ccc(O)cc1,hazardous materials
222,Hydroxylamine,402.15,1,NO,hazardous materials
223,Isoprene,219.15,1,C=CC(=C)C,hazardous materials
224,Lactonitrile,350.15,1,CC(O)C#N,hazardous materials
225,Maleic anhydride,375.15,1,O=C1C=CC(=O)O1,hazardous materials
226,"p-Mentha-1,8-diene",318.15,1,C=C(C)C1CC=C(C)CC1,hazardous materials
227,2-Mercaptoethanol,347.15,1,OCCS,hazardous materials
228,Mesityl oxide,304.15,1,CC(=O)C=C(C)C,hazardous materials
229,Methyl acetate,264.15,1,COC(C)=O,hazardous materials
230,Methyl acrylate,270.15,1,C=CC(=O)OC,hazardous materials
231,Methyl alcohol,285.15,1,CO,hazardous materials
232,Methyl amyl alcohol,314.15,1,CCCCC(C)O,hazardous materials
233,N-Methylbutylamine,286.15,1,CCCCNC,hazardous materials
234,Methyl butyl ketone,308.15,1,CCCCC(C)=O,hazardous materials
235,Methyl butyrate,287.15,1,CCCC(=O)OC,hazardous materials
236,Methyl chloroformate,285.15,1,COC(=O)Cl,hazardous materials
237,Methyl cyclohexane,269.15,1,CC1CCCCC1,hazardous materials
238,2-Methyl cyclohexanone,321.15,1,CC1CCCCC1=O,hazardous materials
239,4-Methyl cyclohexene,272.15,1,CC1CC=CCC1,hazardous materials
240,Methyl ether,232.15,1,COC,hazardous materials
241,Methyl ethyl ether,236.15,1,CCOC,hazardous materials
242,Methyl ethyl ketone,266.15,1,CCC(C)=O,hazardous materials
243,Methyl formate,254.15,1,COC=O,hazardous materials
244,2-Methyl furan,243.15,1,Cc1ccco1,hazardous materials
245,Methyl isobutyl ketone,296.15,1,CC(=O)CC(C)C,hazardous materials
246,Methyl isobutyrate,286.15,1,COC(=O)C(C)C,hazardous materials
247,Methyl methacrylate,283.15,1,C=C(C)C(=O)OC,hazardous materials
248,Methyl-n-Propyl ketone,280.15,1,CCCC(C)=O,hazardous materials
249,Methyl salicylate,374.15,1,COC(=O)c1ccccc1O,hazardous materials
250,Methyl vinyl ether,222.15,1,C=COC,hazardous materials
251,Monomethylamine,263.15,1,CN,hazardous materials
252,Morpholine,311.15,1,C1COCCN1,hazardous materials
253,Naphthalene,352.15,1,c1ccc2ccccc2c1,hazardous materials
254,2-Naphthol,426.15,1,Oc1ccc2ccccc2c1,hazardous materials
255,1-Naphthylamine,430.15,1,Nc1cccc2ccccc12,hazardous materials
256,o-Nitroaniline,441.15,1,Nc1ccccc1[N+](=O)[O-],hazardous materials
257,p-Nitroaniline,472.15,1,Nc1ccc([N+](=O)[O-])cc1,hazardous materials
258,Nitrobenzene,361.15,1,O=[N+]([O-])c1ccccc1,hazardous materials
259,o-Nitrobiphenyl,416.15,1,O=[N+]([O-])c1ccccc1-c1ccccc1,hazardous materials
260,Nitroethane,311.15,1,CC[N+](=O)[O-],hazardous materials
261,Nitromethane,308.15,1,C[N+](=O)[O-],hazardous materials
262,alpha-Nitronaphthalene,437.15,1,O=[N+]([O-])c1cccc2ccccc12,hazardous materials
263,1-Nitropropane,322.15,1,CCC[N+](=O)[O-],hazardous materials
264,2-Nitropropane,312.15,1,CC(C)[N+](=O)[O-],hazardous materials
265,m-Nitrotoluene,379.15,1,Cc1cccc([N+](=O)[O-])c1,hazardous materials
266,o-Nitrotoluene,379.15,1,Cc1ccccc1[N+](=O)[O-],hazardous materials
267,p-Nitrotoluene,379.15,1,Cc1ccc([N+](=O)[O-])cc1,hazardous materials
268,Nonyl phenol,414.15,1,CCCCCCCCCc1ccccc1O,hazardous materials
269,Octane,286.15,1,CCCCCCCC,hazardous materials
270,Octanoic acid,405.15,1,CCCCCCCC(=O)O,hazardous materials
271,1-Octanol,354.15,1,CCCCCCCCO,hazardous materials
272,2-Octanol,361.15,1,CCCCCCC(C)O,hazardous materials
273,Oleic acid,462.15,1,CCCCCCCC/C=C\CCCCCCCC(=O)O,hazardous materials
274,n-Pentane,224.15,1,CCCCC,hazardous materials
275,iso-Pentane,222.15,1,CCC(C)C,hazardous materials
276,"1,5-Pentanediol",408.15,1,OCCCCCO,hazardous materials
277,"2,4-Pentanedione",314.15,1,CC(=O)CC(C)=O,hazardous materials
278,2-Pentanol,312.15,1,CCCC(C)O,hazardous materials
279,Phenol,352.15,1,Oc1ccccc1,hazardous materials
280,Phenyl acetate,353.15,1,CC(=O)Oc1ccccc1,hazardous materials
281,p-Phenylenediamine,429.15,1,Nc1ccc(N)cc1,hazardous materials
282,Phenylethanolamine,425.15,1,NCC(O)c1ccccc1,hazardous materials
283,Phenyl ether,369.15,1,c1ccc(Oc2ccccc2)cc1,hazardous materials
284,Phenylhydrazine,362.15,1,NNc1ccccc1,hazardous materials
285,o-Phenyl phenol,397.15,1,Oc1ccccc1-c1ccccc1,hazardous materials
286,Phorone,358.15,1,CC(C)=CC(=O)C=C(C)C,hazardous materials
287,Phthalic anhydride,424.15,1,O=C1OC(=O)c2ccccc21,hazardous materials
288,2-Picoline,312.15,1,Cc1ccccn1,hazardous materials
289,4-Picoline,330.15,1,Cc1ccncc1,hazardous materials
290,Picric acid,423.15,1,O=[N+]([O-])c1cc([N+](=O)[O-])c(O)c([N+](=O)[O-])c1,hazardous materials
291,2-Pinene,306.15,1,CC1=CCC2CC1C2(C)C,hazardous materials
292,Piperidine,289.15,1,C1CCNCC1,hazardous materials
293,Piperylene,230.15,1,C=CC=CC,hazardous materials
294,"1,3-Propanediamine",297.15,1,NCCCN,hazardous materials
295,"1,2-Propanediol",372.15,1,CC(O)CO,hazardous materials
296,Propargyl alcohol,309.15,1,C#CCO,hazardous materials
297,Propargyl bromide,283.15,1,C#CCBr,hazardous materials
298,iso-Propenyl acetate,289.15,1,C=C(C)OC(C)=O,hazardous materials
299,Propionaldehyde,264.15,1,CCC=O,hazardous materials
300,Propionic acid,327.15,1,CCC(=O)O,hazardous materials
301,Propionitrile,275.15,1,CCC#N,hazardous materials
302,Propionyl chloride,285.15,1,CCC(=O)Cl,hazardous materials
303,iso-Propyl acetate,277.15,1,CC(=O)OC(C)C,hazardous materials
304,n-Propyl acetate,287.15,1,CCCOC(C)=O,hazardous materials
305,n-Propyl alcohol,288.15,1,CCCO,hazardous materials
306,iso-Propyl alcohol,285.15,1,CC(C)O,hazardous materials
307,Propylamine,236.15,1,CCCN,hazardous materials
308,iso-Propylamine,236.15,1,CC(C)N,hazardous materials
309,Propyl benzene,303.15,1,CCCc1ccccc1,hazardous materials
310,iso-Propyl benzoate,372.15,1,CC(C)OC(=O)c1ccccc1,hazardous materials
311,Propylene,165.15,1,C=CC,hazardous materials
312,Propylene carbonate,408.15,1,CC1COC(=O)O1,hazardous materials
313,iso-Propyl ether,245.15,1,CC(C)OC(C)C,hazardous materials
314,n-Propyl formate,270.15,1,CCCOC=O,hazardous materials
315,iso-Propyl formate,267.15,1,CC(C)OC=O,hazardous materials
316,Propyl nitrate,293.15,1,CCCO[N+](=O)[O-],hazardous materials
317,Pyridine,293.15,1,c1ccncc1,hazardous materials
318,Pyrrolidine,276.15,1,C1CCNC1,hazardous materials
319,Pyruvic acid,276.15,1,CC(=O)C(=O)O,hazardous materials
320,Resorcinol,400.15,1,Oc1cccc(O)c1,hazardous materials
321,Salicylaldehyde,351.15,1,O=Cc1ccccc1O,hazardous materials
322,Salicylic acid,430.15,1,O=C(O)c1ccccc1O,hazardous materials