,compound,flashpoint,pure substance,smiles,source
323,Stearic acid,469.15,1,CCCCCCCCCCCCCCCCCC(=O)O,hazardous materials
324,Styrene,304.15,1,C=Cc1ccccc1,hazardous materials
325,Succinonitrile,405.15,1,N#CCCC#N,hazardous materials
326,Sulphur,480.15,1,[S],hazardous materials
327,Sulphur monochloride,391.15,1,[S]Cl,hazardous materials
328,m-Terphenyl,408.15,1,c1ccc(-c2cccc(-c3ccccc3)c2)cc1,hazardous materials
329,o-Terphenyl,436.15,1,c1ccc(-c2ccccc2-c2ccccc2)cc1,hazardous materials
330,"1,2,4,5-Tetrachlorobenzene",428.15,1,Clc1cc(Cl)c(Cl)cc1Cl,hazardous materials
331,Tetradecane,373.15,1,CCCCCCCCCCCCCC,hazardous materials
332,Tetraethylenepentamine,436.15,1,NCCNCCNCCNCCN,hazardous materials
333,Tetraethyl lead,366.15,1,CC[Pb](CC)(CC)CC,hazardous materials
334,Tetrahydrofuran,259.15,1,C1CCOC1,hazardous materials
335,Tetrahydronaphthalene,344.15,1,c1ccc2c(c1)CCCC2,hazardous materials
336,"2,2'-Thiodiethanol",433.15,1,OCCSCCO,hazardous materials
337,Thiophene,272.15,1,c1ccsc1,hazardous materials
338,Toluene,277.55,1,Cc1ccccc1,hazardous materials
339,m-Toluidine,359.15,1,Cc1cccc(N)c1,hazardous materials
340,o-Toluidine,358.15,1,Cc1ccccc1N,hazardous materials
341,p-Toluidine,360.15,1,Cc1ccc(N)cc1,hazardous materials
342,Triamylamine,375.15,1,CCCCCN(CCCCC)CCCCC,hazardous materials
343,Tri-n-butyl amine,359.15,1,CCCCN(CCCC)CCCC,hazardous materials
344,Tributyl phosphate,419.15,1,CCCCOP(=O)(OCCCC)OCCCC,hazardous materials
345,"1,2,4-Trichlorobenzene",372.15,1,Clc1ccc(Cl)c(Cl)c1,hazardous materials
346,"1,2,3-Trichloropropane",355.15,1,ClCC(Cl)CCl,hazardous materials
347,Tridecanol,394.15,1,CCCCCCCCCCCCCO,hazardous materials
348,Triethanolamine,452.15,1,OCCN(CCO)CCO,hazardous materials
349,Triethylene glycol,450.15,1,OCCOCCOCCO,hazardous materials
350,Triethylene-tetramine,408.15,1,NCCNCCNCCN,hazardous materials
351,Trimethyl amine,266.15,1,CN(C)C,hazardous materials
352,"2,2,4-Trimethyl pentane",261.15,1,CC(C)CC(C)(C)C,hazardous materials
353,"2,4,4-Trimethyl-2-pentene",275.15,1,CC(C)=CC(C)(C)C,hazardous materials
354,"1,3,5-Trioxane",318.15,1,C1OCOCO1,hazardous materials
355,Triphenyl phosphate,493.15,1,O=P(Oc1ccccc1)(Oc1ccccc1)Oc1ccccc1,hazardous materials
356,Triphenyl phosphine,453.15,1,c1ccc(P(c2ccccc2)c2ccccc2)cc1,hazardous materials
357,Tripropylamine,314.15,1,CCCN(CCC)CCC,hazardous materials
358,Tritolyl phosphate,498.15,1,Cc1ccccc1OP(=O)(Oc1ccccc1C)Oc1ccccc1C,hazardous materials
359,Valeraldehyde,285.15,1,CCCCC=O,hazardous materials
360,Valeric acid,369.15,1,CCCCC(=O)O,hazardous materials
361,Vinyl acetate,265.15,1,C=COC(C)=O,hazardous materials
362,Vinyl chloride,195.15,1,C=CCl,hazardous materials
363,Vinylidene chloride,258.15,1,C=C(Cl)Cl,hazardous materials
364,m-Xylene,302.15,1,Cc1cccc(C)c1,hazardous materials
365,o-Xylene,305.15,1,Cc1ccccc1C,hazardous materials
366,p-Xylene,300.15,1,Cc1ccc(C)cc1,hazardous materials
367,Xylidine,370.15,1,Cc1cccc(N)c1C,hazardous materials