compound,flashpoint,pure substance,smiles,source
Triethylsilane,270.0,1.0,C(C)[SiH](CC)CC,pan12
Hexylsilane,285.0,1.0,C(CCCCC)[SiH3],pan12
t-Butyldimethylsilane,251.0,1.0,C(C)(C)(C)[SiH](C)C,pan12
Bis(dimethylamino)dimethylsilane,266.0,1.0,CN(C)[Si](C)(C)N(C)C,pan12
Hexamethylcyclotrisiloxane,305.0,1.0,C[Si]1(O[Si](O[Si](O1)(C)C)(C)C)C,pan12
Hexamethyldisilthiane,299.0,1.0,C[Si](S[Si](C)(C)C)(C)C,pan12
Hexamethyldisilane,272.0,1.0,C[Si]([Si](C)(C)C)(C)C,pan12
Tris(dimethylamino)silane,298.0,1.0,CN(C)[SiH](N(C)C)N(C)C,pan12
Hexamethyltrisiloxane,293.0,1.0,C[Si](O[SiH2]O[Si](C)(C)C)(C)C,pan12
Phenylmethyldichlorosilane,355.0,1.0,C1(=CC=CC=C1)C[SiH](Cl)Cl,pan12
Phenylmethylchlorosilane,355.0,1.0,C1(=CC=CC=C1)C[SiH2]Cl,pan12
Trivinylmethylsilane,288.0,1.0,C(=C)C(C=C)(C=C)[SiH3],pan12
Cyclohexylmethyldichlorosilane,355.0,1.0,C1(CCCCC1)C[SiH](Cl)Cl,pan12
"1-(Trimethylsiloxy)-1,3-butadiene",298.0,1.0,C[Si](OC=CC=C)(C)C,pan12
2-Chloromethyl-3-trimethylsilyl-1-propene,316.0,1.0,ClCC(=C)C[Si](C)(C)C,pan12
n-Hexylmethyldichlorosilane,358.0,1.0,C(CCCCC)[Si](Cl)(Cl)C,pan12
Vinylmethyldiethoxysilane,289.0,1.0,C(=C)C[SiH](OCC)OCC,pan12
Vinyldiethylmethylsilane,288.0,1.0,C(=C)[Si](C)(CC)CC,pan12
N-(Trimethylsilyl)morpholine,300.0,1.0,C[Si](N1CCOCC1)(C)C,pan12
Bis(trimethylsilyl)carbodiimide,315.0,1.0,C[Si](C)(C)N=C=N[Si](C)(C)C,pan12
t-Butoxytrimethylsilane,287.0,1.0,C(C)(C)(C)O[Si](C)(C)C,pan12
Vinylpentamethyldisiloxane,285.0,1.0,C(=C)[Si](O[Si](C)(C)C)(C)C,pan12
Isobutyltrimethoxysilane,315.0,1.0,C(C(C)C)[Si](OC)(OC)OC,pan12
Methyltriethoxysilane,297.0,1.0,C[Si](OCC)(OCC)OCC,pan12
(Diethylamino)trimethylsilane,283.0,1.0,C(C)N(CC)[Si](C)(C)C,pan12
Bis(trimethylsilyl)methane,285.0,1.0,C[Si](C)(C)C[Si](C)(C)C,pan12
Phenylethyldichlorosilane,365.0,1.0,C1(=CC=CC=C1)CC[SiH](Cl)Cl,pan12
Phenyldimethylchlorosilane,334.0,1.0,C1(=CC=CC=C1)[Si](Cl)(C)C,pan12
"(N,N-Dimethylamino)triethylsilane",299.0,1.0,CN(C)[Si](CC)(CC)CC,pan12
Tetravinylsilane,291.0,1.0,C(=C)[Si](C=C)(C=C)C=C,pan12
Phenyldimethylsilane,311.0,1.0,C1(=CC=CC=C1)[SiH](C)C,pan12
Ethyltriacetoxysilane,377.0,1.0,C(C)[Si](OC(C)=O)(OC(C)=O)OC(C)=O,pan12
Cyclopentadienyltrimethylsilane,302.0,1.0,C1(C=CC=C1)[Si](C)(C)C,pan12
3-(Trimethylsilyl)cyclopentene,299.0,1.0,C[Si](C1C=CCC1)(C)C,pan12
"(2,4-Pentadienyl)trimethylsilane",291.0,1.0,C(C=CC=C)[Si](C)(C)C,pan12
n-Octyltrichlorosilane,369.0,1.0,C(CCCCCCC)[Si](Cl)(Cl)Cl,pan12
n-Heptylmethyldichlorosilane,339.0,1.0,C(CCCCCC)[Si](Cl)(Cl)C,pan12
Triethylacetoxysilane,314.0,1.0,C(C)C(C(=O)O[SiH3])(CC)CC,pan12
Vinyltriethoxysilane,307.0,1.0,C(=C)[Si](OCC)(OCC)OCC,pan12
Vinyltriethylsilane,298.0,1.0,C(=C)[Si](CC)(CC)CC,pan12
"1,3-Divinyltetramethyldisilazane",307.0,1.0,C(=C)[Si](N[Si](C=C)(C)C)(C)C,pan12
Tetraethoxysilane,323.0,1.0,C(C)O[Si](OCC)(OCC)OCC,pan12
Tetraethylsilane,299.0,1.0,C(C)[Si](CC)(CC)CC,pan12
n-Octylsilane,309.0,1.0,C(CCCCCCC)[SiH3],pan12
Aminoethylaminopropyltrimethoxysilane,369.0,1.0,NCCNCCC[Si](OC)(OC)OC,pan12
Octamethyltrisiloxane,303.0,1.0,C[Si](O[Si](O[Si](C)(C)C)(C)C)(C)C,pan12
Octamethylcyclotetrasiloxane,330.0,1.0,C[Si]1(O[Si](O[Si](O[Si](O1)(C)C)(C)C)(C)C)C,pan12
Octamethylcyclotetrasilazane,339.0,1.0,C[Si]1(N[Si](N[Si](N[Si](N1)(C)C)(C)C)(C)C)C,pan12
Tetrakisdimethylsiloxysilane,340.0,1.0,C[SiH](O[Si](O[SiH](C)C)(O[SiH](C)C)O[SiH](C)C)C,pan12
p-Chlorophenyltrimethylsilane,322.0,1.0,ClC1=CC=C(C=C1)[Si](C)(C)C,pan12
Methylphenyldimethoxysilane,349.0,1.0,C[Si](OC)(OC)C1=CC=CC=C1,pan12
Phenyltrimethoxysilane,358.0,1.0,C1(=CC=CC=C1)[Si](OC)(OC)OC,pan12
Trimethylphenylsilane,313.0,1.0,C[Si](C1=CC=CC=C1)(C)C,pan12
2-Cyanoethyltriethoxysilane,359.0,1.0,C(#N)CC[Si](OCC)(OCC)OCC,pan12
Cyclohexylmethyldimethoxysilane,343.0,1.0,C1(CCCCC1)C[SiH](OC)OC,pan12
3-Glycidoxypropyltrimethoxysilane,383.0,1.0,C(C1CO1)OCCC[Si](OC)(OC)OC,pan12
Di-t-butylmethylchlorosilane,342.0,1.0,C(C)(C)(C)[Si](Cl)(C)C(C)(C)C,pan12
Hexyltrimethoxysilane,335.0,1.0,C(CCCCC)[Si](OC)(OC)OC,pan12
Triisopropylsilane,310.0,1.0,C(C)(C)[SiH](C(C)C)C(C)C,pan12
Tri-n-propylsilane,316.0,1.0,C(CC)[SiH](CCC)CCC,pan12
(Diisopropylamino)trimethylsilane,301.0,1.0,C(C)(C)N(C(C)C)[Si](C)(C)C,pan12
1-Chlorononamethyltetrasiloxane,347.0,1.0,Cl[Si](O[Si](O[Si](O[Si](C)(C)C)(C)C)(C)C)(C)C,pan12
Propyltris(dimethylsiloxy)silane,323.0,1.0,C(CC)[Si](O[SiH](C)C)(O[SiH](C)C)O[SiH](C)C,pan12
Benzyltrimethylsilane,335.0,1.0,C(C1=CC=CC=C1)[Si](C)(C)C,pan12
3-Methacryloxypropyltrimethoxysilane,365.0,1.0,C(C(=C)C)(=O)OCCC[Si](OC)(OC)OC,pan12
n-Octyldimethylchlorosilane,370.0,1.0,C(CCCCCCC)[Si](Cl)(C)C,pan12
Bis(diethylamino)dimethylsilane,308.0,1.0,C(C)N(CC)[Si](C)(C)N(CC)CC,pan12
Decamethyltetrasiloxane,335.0,1.0,C[Si](O[Si](O[Si](O[Si](C)(C)C)(C)C)(C)C)(C)C,pan12
Decamethylcyclopentasiloxane,350.0,1.0,C[Si]1(O[Si](O[Si](O[Si](O[Si](O1)(C)C)(C)C)(C)C)(C)C)C,pan12
"2-(3,4-epoxycyclohexyl)ethyltrimethoxysilane",419.0,1.0,C1(CC2C(CC1)O2)CC[Si](OC)(OC)OC,pan12
n-Decylmethyldichlorosilane,393.0,1.0,C(CCCCCCCCC)[Si](Cl)(Cl)C,pan12
Vinyltriethylsilane,318.0,1.0,C(=C)[Si](CC)(CC)CC,pan12
Phenyltriethoxysilane,393.0,1.0,C1(=CC=CC=C1)[Si](OCC)(OCC)OCC,pan12
Diphenylsilane,371.0,1.0,C1(=CC=CC=C1)[SiH2]C1=CC=CC=C1,pan12
Tetramethyltetravinylcyclotetrasilane,385.0,1.0,C[Si]1([Si]([Si]([Si]1(C=C)C)(C=C)C)(C=C)C)C=C,pan12
n-Dodecyltrichlorosilane,435.0,1.0,C(CCCCCCCCCCC)[Si](Cl)(Cl)Cl,pan12
Hexaethyldisiloxane,349.0,1.0,C(C)[Si](O[Si](CC)(CC)CC)(CC)CC,pan12
Dodecamethylpentasiloxane,352.0,1.0,C[Si](O[Si](O[Si](O[Si](O[Si](C)(C)C)(C)C)(C)C)(C)C)(C)C,pan12
Dodecamethylcyclohexasiloxane,366.0,1.0,C[Si]1(O[Si](O[Si](O[Si](O[Si](O[Si](O1)(C)C)(C)C)(C)C)(C)C)(C)C)C,pan12
Methyldiphenylchlorosilane,411.0,1.0,C[Si](Cl)(C1=CC=CC=C1)C1=CC=CC=C1,pan12
n-Dodecylmethyldichlorosilane,416.0,1.0,C(CCCCCCCCCCC)[Si](Cl)(Cl)C,pan12
Diphenyldimethoxysilane,394.0,1.0,C1(=CC=CC=C1)[Si](OC)(OC)C1=CC=CC=C1,pan12
Octyltriethoxysilane,373.0,1.0,C(CCCCCCC)[Si](OCC)(OCC)OCC,pan12
Tetradecamethylhexasiloxane,375.0,1.0,C[Si](O[Si](O[Si](O[Si](O[Si](O[Si](C)(C)C)(C)C)(C)C)(C)C)(C)C)(C)C,pan12
n-Octadecyltrichlorosilane,466.0,1.0,C(CCCCCCCCCCCCCCCCC)[Si](Cl)(Cl)Cl,pan12
Octadecamethyloctasiloxane,417.0,1.0,C[Si](O[Si](O[Si](O[Si](O[Si](O[Si](O[Si](O[Si](C)(C)C)(C)C)(C)C)(C)C)(C)C)(C)C)(C)C)(C)C,pan12
Vinyltrichlorosilane,294.0,1.0,C(=C)[Si](Cl)(Cl)Cl,pan12
Ethylsilane,213.0,1.0,C(C)[SiH3],pan12
n-Propyltrichlorosilane,310.0,1.0,C(CC)[Si](Cl)(Cl)Cl,pan12
Trimethylfluorosilane,238.0,1.0,C[Si](F)(C)C,pan12
Dimethylvinylchlorosilane,268.0,1.0,CC(=C[SiH2]Cl)C,pan12
Trimethylsilylisothiocyanate,308.0,1.0,C[Si](C)(C)N=C=S,pan12
Methoxytrimethylsilane,243.0,1.0,CO[Si](C)(C)C,pan12
Diethylsilane,253.0,1.0,C(C)[SiH2]CC,pan12
Tetraisocyanatosilane,323.0,1.0,N(=C=O)[Si](N=C=O)(N=C=O)N=C=O,pan12
sec-Amyltrichlorosilane,303.0,1.0,C(C)(CCC)[Si](Cl)(Cl)Cl,pan12
Vinyltrimethoxysilane,296.0,1.0,C(=C)[Si](OC)(OC)OC,pan12
Ethoxytrimethylsilane,246.0,1.0,C(C)O[Si](C)(C)C,pan12
Phenyltrichlorosilane,364.0,1.0,C1(=CC=CC=C1)[Si](Cl)(Cl)Cl,pan12
Cyclohexyltrichlorosilane,358.0,1.0,C1(CCCCC1)[Si](Cl)(Cl)Cl,pan12
1-Trimethylsilylpropyne,270.0,1.0,C[Si](C#CC)(C)C,pan12
Hexyldichlorosilane,337.0,1.0,C(CCCCC)[SiH](Cl)Cl,pan12
Allyltrimethoxysilane,319.0,1.0,C(C=C)[Si](OC)(OC)OC,pan12
3-Chloropropylmethyldimethoxysilane,318.0,1.0,ClCCC[Si](OC)(OC)C,pan12
n-Propyltrimethoxysilane,298.0,1.0,C(CC)[Si](OC)(OC)OC,pan12
Hexamethyldisiloxane,270.0,1.0,C[Si](O[Si](C)(C)C)(C)C,pan12
Hexamethyldisilazane,281.0,1.0,C[Si](N[Si](C)(C)C)(C)C,pan12
Methyltriacetoxysilane,358.0,1.0,C[Si](OC(C)=O)(OC(C)=O)OC(C)=O,pan12
n-Heptyltrichlorosilane,337.0,1.0,C(CCCCCC)[Si](Cl)(Cl)Cl,pan12
(1-Methoxy-2-propoxy)trimethylsilane,293.0,1.0,COCC(C)O[Si](C)(C)C,pan12
Heptamethyldisilazane,300.0,1.0,C[Si](N([Si](C)(C)C)C)(C)C,pan12
Vinyltriacetoxysilane,361.0,1.0,C(=C)[Si](OC(C)=O)(OC(C)=O)OC(C)=O,pan12
(Cyclopentenyloxy)trimethylsilane,311.0,1.0,C1(=CCCC1)O[Si](C)(C)C,pan12
Tetramethyldivinyldisiloxane,292.0,1.0,C[Si](O[Si](C=C)(C=C)C)(C)C,pan12
Diethyldiethoxysilane,316.0,1.0,C(C)[Si](OCC)(OCC)CC,pan12
Tetramethyldiethoxysiloxane,311.0,1.0,CC(C(O[Si]([O])OCC)(C)C)C,pan12
Tri-n-propylchlorosilane,349.0,1.0,C(CC)[Si](Cl)(CCC)CCC,pan12
Tris(trimethylsiloxy)boron,315.0,1.0,C[Si](OB(O[Si](C)(C)C)O[Si](C)(C)C)(C)C,pan12
1-Heptynyltrimethylsilane,315.0,1.0,C(#CCCCCC)[Si](C)(C)C,pan12
Tristrimethylsiloxymethylsilane,336.0,1.0,C[Si](OC(O[Si](C)(C)C)(O[Si](C)(C)C)[SiH3])(C)C,pan12
Diphenyldichlorosilane,415.0,1.0,C1(=CC=CC=C1)[Si](Cl)(Cl)C1=CC=CC=C1,pan12
Tetra-n-propoxysilane,368.0,1.0,C(CC)O[Si](OCCC)(OCCC)OCCC,pan12
Diphenylmethylsilane,393.0,1.0,C1(=CC=CC=C1)C(C1=CC=CC=C1)[SiH3],pan12
Hexadecamethylheptasiloxane,406.0,1.0,C[Si](O[Si](O[Si](O[Si](O[Si](O[Si](O[Si](C)(C)C)(C)C)(C)C)(C)C)(C)C)(C)C)(C)C,pan12
ACETOXYETHYLDIMETHYLCHLOROSILANE,336.15,1.0,CC(=O)OCC[Si](C)(C)Cl,gelest_silanes
ACETOXYETHYLMETHYLDICHLOROSILANE,338.15,1.0,CC(=O)OCC[Si](C)(Cl)Cl,gelest_silanes
ACETOXYETHYLTRICHLOROSILANE,355.15,1.0,CC(=O)OCC[Si](Cl)(Cl)Cl,gelest_silanes
ACETOXYETHYLTRIETHOXYSILANE,372.15,1.0,CCO[Si](CCOC(C)=O)(OCC)OCC,gelest_silanes
ACETOXYMETHYLTRIMETHYLSILANE,293.15,1.0,CC(=O)OC[Si](C)(C)C,gelest_silanes
3-ACETOXYPROPYLMETHYLDICHLOROSILANE,358.15,1.0,CC(=O)OCCC[Si](C)(Cl)Cl,gelest_silanes
3-ACETOXYPROPYLTRIMETHOXYSILANE,366.15,1.0,CO[Si](CCCOC(C)=O)(OC)OC,gelest_silanes
ACETOXYTRIMETHYLSILANE,277.15,1.0,CC(=O)O[Si](C)(C)C,gelest_silanes
ACETYLTRIMETHYLSILANE,281.15,1.0,CC(=O)[Si](C)(C)C,gelest_silanes
ACRYLOXYMETHYLTRIMETHOXYSILANE,335.15,1.0,C=CC(=O)OC[Si](OC)(OC)OC,gelest_silanes
(3-ACRYLOXYPROPYL)DIMETHYLMETHOXYSILANE,358.15,1.0,C=CC(=O)OCCC[Si](C)(C)OC,gelest_silanes
(3-ACRYLOXYPROPYL)TRIMETHOXYSILANE,396.15,1.0,C=CC(=O)OCCC[Si](OC)(OC)OC,gelest_silanes
(3-ACRYLOXYPROPYL)TRIS(TRIMETHYLSILOXY)SILANE,366.15,1.0,C=CC(=O)OCCC[Si](O[Si](C)(C)C)(O[Si](C)(C)C)O[Si](C)(C)C,gelest_silanes
ACRYLOXYTRIMETHYLSILANE,299.15,1.0,C=CC(=O)O[Si](C)(C)C,gelest_silanes
3-(N-ALLYLAMINO)PROPYLTRIMETHOXYSILANE,361.15,1.0,C=CCNCCC[Si](OC)(OC)OC,gelest_silanes
ALLYLAMINOTRIMETHYLSILANE,283.15,1.0,C=CCN[Si](C)(C)C,gelest_silanes
ALLYL(CHLOROMETHYL)DIMETHYLSILANE,300.15,1.0,C=CC[Si](C)(C)CCl,gelest_silanes
ALLYL(3-CHLOROPROPYL)DICHLOROSILANE,349.15,1.0,C=CC[Si](Cl)(Cl)CCCCl,gelest_silanes
ALLYLDICHLOROSILANE,269.15,1.0,C=CC[SiH](Cl)Cl,gelest_silanes
ALLYLDIMETHYL(DIISOPROPYLAMINO)SILANE,335.15,1.0,C=CC[Si](C)(C)N(C(C)C)C(C)C,gelest_silanes
ALLYLDIMETHYLSILANE,253.15,1.0,C=CC[SiH](C)C,gelest_silanes
ALLYL(4-METHOXYPHENYL)DIMETHYLSILANE,375.15,1.0,C=CC[Si](C)(C)c1ccc(OC)cc1,gelest_silanes
ALLYLMETHYLDICHLOROSILANE,300.15,1.0,C=CCC[SiH](Cl)Cl,gelest_silanes
ALLYLOXY-t-BUTYLDIMETHYLSILANE,305.15,1.0,C=CCO[Si](C)(C)C(C)(C)C,gelest_silanes
ALLYLOXYTRIMETHYLSILANE,273.15,1.0,C=CCO[Si](C)(C)C,gelest_silanes
ALLYLPHENYLDICHLOROSILANE,349.15,1.0,C=CC[Si](Cl)(Cl)c1ccccc1,gelest_silanes
ALLYLTRICHLOROSILANE,304.15,1.0,C=CC[Si](Cl)(Cl)Cl,gelest_silanes
ALLYLTRIETHOXYSILANE,320.15,1.0,C=CC[Si](OCC)(OCC)OCC,gelest_silanes
ALLYLTRIISOPROPYLSILANE,349.15,1.0,C=CC[Si](C(C)C)(C(C)C)C(C)C,gelest_silanes
ALLYLTRIMETHOXYSILANE,319.15,1.0,C=CC[Si](OC)(OC)OC,gelest_silanes
ALLYLTRIMETHYLSILANE,280.15,1.0,C=CC[Si](C)(C)C,gelest_silanes
ALLYLTRIS(TRIMETHYLSILOXY)SILANE,340.15,1.0,C=CC[Si](O[Si](C)(C)C)(O[Si](C)(C)C)O[Si](C)(C)C,gelest_silanes
4-AMINOBUTYLTRIETHOXYSILANE,382.15,1.0,CCO[Si](CCCCN)(OCC)OCC,gelest_silanes
N-(2-AMINOETHYL)-3-AMINOPROPYLMETHYLDIMETHOXYSILANE,363.15,1.0,CO[Si](C)(CCCNCCN)OC,gelest_silanes
N-(2-AMINOETHYL)-3-AMINOPROPYLTRIETHOXYSILANE,421.15,1.0,CCO[Si](CCCNCCN)(OCC)OCC,gelest_silanes
N-(2-AMINOETHYL)-3-AMINOPROPYLTRIMETHOXYSILANE,423.15,1.0,CO[Si](CCCNCCN)(OC)OC,gelest_silanes
AMINOMETHYLTRIMETHYLSILANE,282.15,1.0,C[Si](C)(C)CN,gelest_silanes
m-AMINOPHENYLTRIMETHOXYSILANE,453.15,1.0,CO[Si](OC)(OC)c1cccc(N)c1,gelest_silanes
p-AMINOPHENYLTRIMETHOXYSILANE,453.15,1.0,CO[Si](OC)(OC)c1ccc(N)cc1,gelest_silanes
AMINOPHENYLTRIMETHOXYSILANE,453.15,1.0,CO[Si](OC)(OCN)c1ccccc1,gelest_silanes
3-AMINOPROPYLDIMETHYLETHOXYSILANE,346.15,1.0,CCO[Si](C)(C)CCCN,gelest_silanes
3-AMINOPROPYLTRIETHOXYSILANE,377.15,1.0,CCO[Si](CCCN)(OCC)OCC,gelest_silanes
3-AMINOPROPYLTRIMETHOXYSILANE,356.15,1.0,CO[Si](CCCN)(OC)OC,gelest_silanes
3-AMINOPROPYLTRIMETHYLSILANE,332.15,1.0,C[Si](C)(C)CCCN,gelest_silanes
3-AMINOPROPYLTRIS(METHOXYETHOXYETHOXY)SILANE,341.15,1.0,COCCOCCO[Si](CCCN)(OCCOCCOC)OCCOCCOC,gelest_silanes
(AZIDOMETHYL)TRIMETHYLSILANE,279.15,1.0,C[Si](C)(C)CN=[N+]=[N-],gelest_silanes
6-AZIDOSULFONYLHEXYLTRIETHOXYSILANE,387.15,1.0,CCO[Si](CCCCCCS(=O)(=O)N=[N+]=[N-])(OCC)OCC,gelest_silanes
N-BENZYLAMINOMETHYLTRIMETHYLSILANE,389.15,1.0,C[Si](C)(C)CNCc1ccccc1,gelest_silanes
BENZYLDIMETHYLCHLOROSILANE,346.15,1.0,C[Si](C)(Cl)Cc1ccccc1,gelest_silanes
BENZYLDIMETHYLSILANE,338.15,1.0,C[SiH](C)Cc1ccccc1,gelest_silanes
N-BENZYL-N-METHOXYMETHYL-N-(TRIMETHYLSILYLMETHYL)AMINE,339.15,1.0,COCN(Cc1ccccc1)C[Si](C)(C)C,gelest_silanes
ALLYLTRI-n-BUTYLTIN,376.15,1.0,C=CC[Sn](CCCC)(CCCC)CCCC,gelest_tin
BIS[BIS(TRIMETHYLSILYL)AMINO]TIN(II),329.15,1.0,C[Si](C)(C)N([Sn]N([Si](C)(C)C)[Si](C)(C)C)[Si](C)(C)C,gelest_tin
t-BUTYLTRI n-BUTYLTIN,375.15,1.0,CCCC[Sn](CCCC)(CCCC)C(C)(C)C,gelest_tin
CHLOROMETHYLTRIMETHYLTIN,312.15,1.0,C[Sn](C)(C)CCl,gelest_tin
DIALLYLDI-n-BUTYLTIN,374.15,1.0,C=CC[Sn](CC=C)(CCCC)CCCC,gelest_tin
DI-n-BUTYLDIACETOXYTIN,416.15,1.0,CCCC[Sn](CCCC)(OC(C)=O)OC(C)=O,gelest_tin
DI-n-BUTYLDI-n-BUTOXYTIN,389.15,1.0,CCCCO[Sn](CCCC)(CCCC)OCCCC,gelest_tin
DI-n-BUTYLDICHLOROTIN,441.15,1.0,CCCC[Sn](Cl)(Cl)CCCC,gelest_tin
DI-t-BUTYLDICHLOROTIN,386.15,1.0,CC(C)(C)[Sn](Cl)(Cl)C(C)(C)C,gelest_tin
DI-n-BUTYLDIMETHOXYTIN,383.15,1.0,CCCC[Sn](CCCC)(OC)OC,gelest_tin
DIMETHYLAMINOTRI-n-BUTYLTIN,388.15,1.0,CCCC[Sn](CCCC)(CCCC)N(C)C,gelest_tin
DIMETHYLAMINOTRIMETHYLTIN,274.15,1.0,CN(C)[Sn](C)(C)C,gelest_tin
DIOCTYLDICHLOROTIN,477.15,1.0,CCCCCCCC[Sn](Cl)(Cl)CCCCCCCC,gelest_tin
DIOCTYLDILAURYLTIN,471.15,1.0,CCCCCCCCCCCC[Sn](CCCCCCCC)(CCCCCCCC)CCCCCCCCCCCC,gelest_tin
DIVINYLDICHLOROTIN,477.15,1.0,C=C[Sn](Cl)(Cl)C=C,gelest_tin
1-ETHOXYVINYLTRI-n-BUTYLTIN,386.15,1.0,C=C(OCC)[Sn](CCCC)(CCCC)CCCC,gelest_tin
ETHYNYLTRI-n-BUTYLTIN,346.15,1.0,C#C[Sn](CCCC)(CCCC)CCCC,gelest_tin
PHENYLETHYNYLTRI-n-BUTYLTIN,386.15,1.0,CCCC[Sn](C#Cc1ccccc1)(CCCC)CCCC,gelest_tin
PHENYLTRI-n-BUTYLTIN,380.15,1.0,CCCC[Sn](CCCC)(CCCC)c1ccccc1,gelest_tin
PHENYLTHIOTRI-n-BUTYLTIN,377.15,1.0,CCCC[Sn](CCCC)(CCCC)Sc1ccccc1,gelest_tin
TETRAALLYLTIN,348.15,1.0,C=CC[Sn](CC=C)(CC=C)CC=C,gelest_tin
TETRABUTYLDILAURYLDISTANNOXANE,504.15,1.0,CCCCCCCCCCCC[Sn](CCCC)(CCCCCCCCCCCC)O[Sn](CCCC)(CCCC)CCCC,gelest_tin
TETRA-n-BUTYLTIN,274.15,1.0,CCCC[Sn](CCCC)(CCCC)CCCC,gelest_tin
TETRA-n-BUTYLTIN,380.15,1.0,CCCC[Sn](CCCC)(CCCC)CCCC,gelest_tin
TETRAETHYLTIN,326.15,1.0,CC[Sn](CC)(CC)CC,gelest_tin
TETRAKIS(DIETHYLAMINO)TIN,312.15,1.0,CCN(CC)[Sn](N(CC)CC)(N(CC)CC)N(CC)CC,gelest_tin
TETRAMETHYLTIN,261.15,1.0,C[Sn](C)(C)C,gelest_tin
TETRA-n-OCTYLTIN,367.15,1.0,CCCCCCCC[Sn](CCCCCCCC)(CCCCCCCC)CCCCCCCC,gelest_tin
TETRAPHENYLTIN,504.15,1.0,c1ccc([Sn](c2ccccc2)(c2ccccc2)c2ccccc2)cc1,gelest_tin
TETRAVINYLTIN,313.15,1.0,C=C[Sn](C=C)(C=C)C=C,gelest_tin
2-THIENYLTRI-n-BUTYLTIN,379.15,1.0,CCCC[Sn](CCCC)(CCCC)c1cccs1,gelest_tin
TRI-n-BUTYLACETOXYTIN,393.15,1.0,CCCCC(CCCC)(CCCC)C(=O)O[Sn],gelest_tin
TRI-n-BUTYLCHLOROTIN,393.15,1.0,CCCC[Sn](Cl)(CCCC)CCCC,gelest_tin
TRI-n-BUTYLETHOXYTIN,377.15,1.0,CCCC[Sn](CCCC)(CCCC)OCC,gelest_tin
TRI-n-BUTYLIODOTIN,386.15,1.0,CCCC[Sn](I)(CCCC)CCCC,gelest_tin
TRI-n-BUTYLMETHOXYTIN,371.15,1.0,CCCC[Sn](CCCC)(CCCC)OC,gelest_tin
TRI-n-BUTYLTIN HYDRIDE,313.15,1.0,CCCC[SnH](CCCC)CCCC,gelest_tin
TRICYCLOHEXYLTIN HYDRIDE,378.15,1.0,C1CCC([SnH](C2CCCCC2)C2CCCCC2)CC1,gelest_tin
TRIETHYLBROMOTIN,372.15,1.0,CC[Sn](Br)(CC)CC,gelest_tin
TRIMETHYLCHLOROTIN,370.15,1.0,C[Sn](C)(C)Cl,gelest_tin
TRIPHENYLCHLOROTIN,343.15,1.0,Cl[Sn](c1ccccc1)(c1ccccc1)c1ccccc1,gelest_tin
Acetaldehyde,235.15,1.0,CC=O,hazardous materials
Acetanilide,447.15,1.0,CC(=O)Nc1ccccc1,hazardous materials
Acetic acid,316.15,1.0,CC(=O)O,hazardous materials
Acetic anhydride,327.15,1.0,CC(=O)OC(C)=O,hazardous materials
Acetone,255.15,1.0,CC(C)=O,hazardous materials
Acetone cyanohydrin,347.15,1.0,CC(C)(O)C#N,hazardous materials
Acetonitrile,279.15,1.0,CC#N,hazardous materials
Acetyl chloride,277.15,1.0,CC(=O)Cl,hazardous materials
Acetyl peroxide,386.15,1.0,CC(=O)OOC(C)=O,hazardous materials
Acrolein,247.15,1.0,C=CC=O,hazardous materials
Acrylic acid,325.15,1.0,C=CC(=O)O,hazardous materials
Acrylonitrile,273.15,1.0,C=CC#N,hazardous materials
Adipic acid,464.15,1.0,O=C(O)CCCCC(=O)O,hazardous materials
Adiponitrile,366.15,1.0,N#CCCCCC#N,hazardous materials
Allyl acetate,294.15,1.0,C=CCOC(C)=O,hazardous materials
Allyl alcohol,294.15,1.0,C=CCO,hazardous materials
Allyl amine,244.15,1.0,C=CCN,hazardous materials
Allyl bromide,272.15,1.0,C=CCBr,hazardous materials
Allyl chloride,241.15,1.0,C=CCCl,hazardous materials
Allyl chloroformate,304.15,1.0,C=CCOC(=O)Cl,hazardous materials
Allyl glycidyl ether,330.15,1.0,C=CCOCC1CO1,hazardous materials
Aminoethylethanol amine,402.15,1.0,NCCC(O)CN,hazardous materials
iso-Amyl acetate,296.15,1.0,CC(=O)OCCC(C)C,hazardous materials
sec-Amyl acetate,305.15,1.0,CCCC(C)OC(C)=O,hazardous materials
iso-Amyl alcohol,316.15,1.0,CC(C)CCO,hazardous materials
tert-Amyl alcohol,292.15,1.0,CCC(C)(C)O,hazardous materials
Amylamine,280.15,1.0,CCCCCN,hazardous materials
iso-Amyl formate,299.15,1.0,CC(C)CCOC=O,hazardous materials
Amyl mercaptan,291.15,1.0,CCCCCS,hazardous materials
iso-Amyl nitrate,325.15,1.0,CC(C)CCO[N+](=O)[O-],hazardous materials
Amyl nitrite,283.15,1.0,CCCCCON=O,hazardous materials
Aniline,343.15,1.0,Nc1ccccc1,hazardous materials
o-Anisaldehyde,391.15,1.0,COc1ccccc1C=O,hazardous materials
Anisole,325.15,1.0,COc1ccccc1,hazardous materials
Anthracene,394.15,1.0,c1ccc2cc3ccccc3cc2c1,hazardous materials
Anthraquinone,458.15,1.0,O=C1c2ccccc2C(=O)c2ccccc21,hazardous materials
Aziridine,262.15,1.0,C1CN1,hazardous materials
Benzaldehyde,337.15,1.0,O=Cc1ccccc1,hazardous materials
Benzene,262.15,1.0,c1ccccc1,hazardous materials
Benzoic acid,394.15,1.0,O=C(O)c1ccccc1,hazardous materials
Benzonitrile,358.15,1.0,N#Cc1ccccc1,hazardous materials
Benzotrifluoride,285.15,1.0,FC(F)(F)c1ccccc1,hazardous materials
Benzoyl chloride,345.15,1.0,O=C(Cl)c1ccccc1,hazardous materials
Benzyl acetate,375.15,1.0,CC(=O)OCc1ccccc1,hazardous materials
Benzyl alcohol,374.15,1.0,OCc1ccccc1,hazardous materials
Benzylamine,336.15,1.0,NCc1ccccc1,hazardous materials
Benzyl benzoate,421.15,1.0,O=C(OCc1ccccc1)c1ccccc1,hazardous materials
Benzyl chloride,340.15,1.0,ClCc1ccccc1,hazardous materials
Benzyl mercaptan,343.15,1.0,SCc1ccccc1,hazardous materials
Bicyclohexyl,347.15,1.0,C1CCC(C2CCCCC2)CC1,hazardous materials
Biphenyl,386.15,1.0,c1ccc(-c2ccccc2)cc1,hazardous materials
Bromobenzene,324.15,1.0,Brc1ccccc1,hazardous materials
o-Bromotoluene,352.15,1.0,Cc1ccccc1Br,hazardous materials
n-Butane,213.15,1.0,CCCC,hazardous materials
1-Butene,193.15,1.0,C=CCC,hazardous materials
n-Butyl acetate,300.15,1.0,CCCCOC(C)=O,hazardous materials
iso-Butyl acetate,291.15,1.0,CC(=O)OCC(C)C,hazardous materials
sec-Butyl acetate,304.15,1.0,CCC(C)OC(C)=O,hazardous materials
n-Butyl alcohol,302.15,1.0,CCCCO,hazardous materials
iso-Butyl alcohol,301.15,1.0,CC(C)CO,hazardous materials
sec-Butyl alcohol,297.15,1.0,CCC(C)O,hazardous materials
tert-Butyl alcohol,283.15,1.0,CC(C)(C)O,hazardous materials
Butylamine,261.15,1.0,CCCCN,hazardous materials
iso-Butylamine,264.15,1.0,CC(C)CN,hazardous materials
n-Butyl benzene,344.15,1.0,CCCCc1ccccc1,hazardous materials
iso-Butyl benzene,325.15,1.0,CC(C)Cc1ccccc1,hazardous materials
n-Butyl bromide,291.15,1.0,CCCCBr,hazardous materials
n-Butyl chloride,280.15,1.0,CCCCCl,hazardous materials
"1,3-Butylene glycol ",394.15,1.0,CC(O)CCO,hazardous materials
"2,3-Butylene glycol ",358.15,1.0,CC(O)C(C)O,hazardous materials
n-Butyl formate,291.15,1.0,CCCCOC=O,hazardous materials
Butyl lactate,344.15,1.0,CCCCOC(=O)C(C)O,hazardous materials
Butyl mercaptan,275.15,1.0,CCCCS,hazardous materials
Butyl methacrylate,325.15,1.0,C=C(C)C(=O)OCCCC,hazardous materials