,compound,flashpoint,pure substance,smiles,source
2615,2-propylaniline,370.0,1,C(CC)C1=C(N)C=CC=C1,carroll11
2616,2-isopropylaniline,368.0,1,C(C)(C)C1=C(N)C=CC=C1,carroll11
2617,3-isopropylphenol,377.0,1,C(C)(C)C=1C=C(C=CC1)O,carroll11
2618,quinoline,374.0,1,N1=CC=CC2=CC=CC=C12,carroll11
2619,2-phenylethylacetate,375.0,1,C1(=CC=CC=C1)CCOC(C)=O,carroll11
2620,4-propylphenol,379.0,1,C(CC)C1=CC=C(C=C1)O,carroll11
2621,2-phenylethylpropionate,386.0,1,C1(=CC=CC=C1)CCOC(CC)=O,carroll11
2622,benzylbutanoate,380.0,1,C(C1=CC=CC=C1)OC(CCC)=O,carroll11
2623,2-sec-butylphenol,380.0,1,C(C)(CC)C1=C(C=CC=C1)O,carroll11
2624,N-butylaniline,380.0,1,C(CCC)NC1=CC=CC=C1,carroll11
2625,N-sec-butylaniline,366.0,1,C(C)(CC)NC1=CC=CC=C1,carroll11
2626,N-tert-butylaniline,361.0,1,C(C)(C)(C)NC1=CC=CC=C1,carroll11
2627,4-sec-butylaniline,381.0,1,C(C)(CC)C1=CC=C(N)C=C1,carroll11
2628,2-sec-butylaniline,375.0,1,C(C)(CC)C1=C(N)C=CC=C1,carroll11
2629,2-tert-butylphenol,375.0,1,C(C)(C)(C)C1=C(C=CC=C1)O,carroll11
2630,3-phenylpropylacetate,386.0,1,C1(=CC=CC=C1)CCCOC(C)=O,carroll11
2631,"2,6-diisopropylaniline",396.0,1,C(C)(C)C1=C(N)C(=CC=C1)C(C)C,carroll11
2632,allylphenylether,336.0,1,C(C=C)OC1=CC=CC=C1,carroll11
2633,divinylether,226.0,1,C(=C)OC=C,carroll11
2634,furan,237.0,1,O1C=CC=C1,carroll11
2635,2-methylfuran,247.0,1,CC=1OC=CC1,carroll11
2636,thiophene,264.0,1,S1C=CC=C1,carroll11
2637,2-methylthiophene,281.0,1,CC=1SC=CC1,carroll11
2638,2-ethylthiophene,294.0,1,C(C)C=1SC=CC1,carroll11
2639,2-propylthiophene,305.0,1,C(CC)C=1SC=CC1,carroll11
2640,2-tert-butylfuran,280.0,1,C(C)(C)(C)C=1OC=CC1,carroll11
2641,3-methylthiophene,284.0,1,CC1=CSC=C1,carroll11
2642,allylmethacrylate,310.0,1,C(C=C)OC(C(=C)C)=O,carroll11
2643,geranylformate,368.0,1,C(\C=C(/C)\CCC=C(C)C)C(=O)[O-],carroll11
2644,geranylacetate,377.0,1,C(\C=C(/C)\CCC=C(C)C)CC(=O)[O-],carroll11
2645,4-propenylanisole,369.0,1,C(=CC)C1=CC=C(C=C1)OC,carroll11
2646,diethylfumarate,366.0,1,C(C)\C(=C(/C(=O)[O-])\CC)\C(=O)[O-],carroll11
2647,ethylcinnamate,408.0,1,C(C)OC(C=CC1=CC=CC=C1)=O,carroll11
2648,1-methoxy-2-propanol,304.0,1,COCC(C)O,carroll11
2649,2-methoxyethanol,311.0,1,COCCO,carroll11
2650,2-dimethylaminoethanol,314.0,1,CN(CCO)C,carroll11
2651,2-ethoxyethanol,315.0,1,C(C)OCCO,carroll11
2652,2-isopropoxyethanol,316.0,1,C(C)(C)OCCO,carroll11
2653,"2-bromo-1,1-dimethoxyethane",324.0,1,BrCC(OC)OC,carroll11
2654,bis(2-methoxyethyl)amine,331.0,1,COCCNCCOC,carroll11
2655,2-butoxyethanol,335.0,1,C(CCC)OCCO,carroll11
2656,"1,3-dichlorobenzene",336.0,1,ClC1=CC(=CC=C1)Cl,carroll11
2657,2-chloropyridine,337.0,1,ClC1=NC=CC=C1,carroll11
2658,"1,2-dichlorobenzene",341.0,1,ClC1=C(C=CC=C1)Cl,carroll11
2659,2-amino-2-methyl-1-propanol,341.0,1,NC(CO)(C)C,carroll11
2660,2-(methylamino)ethanol,345.0,1,CNCCO,carroll11
2661,1-amino-2-propanol,340.0,1,NCC(C)O,carroll11
2662,2-chlorophenol,345.0,1,ClC1=C(C=CC=C1)O,carroll11
2663,(2-hydroxyethyl)propylamine,351.0,1,OCCNCCC,carroll11
2664,"1,2-dimethoxybenzene",360.0,1,COC1=C(C=CC=C1)OC,carroll11
2665,"2,3-dichloro-1-propanol",366.0,1,ClC(CO)CCl,carroll11
2666,diphenylether,388.0,1,C1(=CC=CC=C1)OC1=CC=CC=C1,carroll11
2667,dimethylphthalate,423.0,1,COC(C=1C(C(=O)OC)=CC=CC1)=O,carroll11
2668,diisobutylphthalate,458.0,1,C(C(C)C)OC(C=1C(C(=O)OCC(C)C)=CC=CC1)=O,carroll11
2669,diethylphthalate,433.0,1,C(C)OC(C=1C(C(=O)OCC)=CC=CC1)=O,carroll11
2670,furfural,331.0,1,C(C1=CC=CO1)=O,carroll11
2671,furfurylalcohol,348.0,1,C(C1=CC=CO1)O,carroll11
2672,furfurylacetate,338.0,1,C(C1=CC=CO1)CC(=O)[O-],carroll11
2673,furfurylpropanoate,355.0,1,C(C1=CC=CO1)OC(CC)=O,carroll11
2674,"2,5-dimethoxy-2,5-dihydrofuran",320.0,1,COC1OC(C=C1)OC,carroll11
2675,methylsalicylate,372.0,1,COC=1C(C(=O)[O-])=CC=CC1,carroll11
2676,ethylsalicylate,380.0,1,C(C)OC=1C(C(=O)[O-])=CC=CC1,carroll11
2677,2-phenylethanol,375.0,1,C1(=CC=CC=C1)CCO,carroll11
2678,diethyleneglycol,397.0,1,C(COCCO)O,carroll11
2679,N-methyldiethanolamine,410.0,1,CN(CCO)CCO,carroll11
2680,3-methylfuran,251.0,1,CC1=COC=C1,carroll11
2681,2-ethylfuran,271.0,1,C(C)C=1OC=CC1,carroll11
2682,3-ethylthiophene,296.0,1,C(C)C1=CSC=C1,carroll11
2683,cyclohexylmethacrylate,355.0,1,C1(CCCCC1)OC(C(=C)C)=O,carroll11
2684,cyclohexylacrylate,341.0,1,C1(CCCCC1)OC(C=C)=O,carroll11
2685,1-phenyl-3-pentanone,376.0,1,C1(=CC=CC=C1)CCC(CC)=O,carroll11
2686,2-propylfuran,288.0,1,C(CC)C=1OC=CC1,carroll11
2687,isobutylbenzoate,375.0,1,C(C(C)C)OC(C1=CC=CC=C1)=O,carroll11
2688,10-chloro-3-decyne,359.0,1,ClCCCCCCC#CCC,carroll11
2689,1-chloro-4-decyne,360.0,1,ClCCCC#CCCCCC,carroll11
2690,"2-chloro-1,3-butadiene",253.0,1,ClC(=C)C=C,carroll11
2691,2-isobutoxyethanol,324.0,1,C(C(C)C)OCCO,carroll11
2692,Trichlorosilane,245.15,1,Cl[SiH](Cl)Cl,chen14
2693,Methyltrichlorosilane,276.15,1,C[Si](Cl)(Cl)Cl,chen14
2694,Vinyltrichlorosilane,294.15,1,C(=C)[Si](Cl)(Cl)Cl,chen14
2695,Dichloromethylmethyldichlorosilane,301.15,1,ClC(Cl)[Si](Cl)(Cl)C,chen14
2696,Ethyltrichlorosilane,263.15,1,C(C)[Si](Cl)(Cl)Cl,chen14
2697,Dimethylchlorosilane,245.15,1,C[SiH](Cl)C,chen14
2698,Ethylsilane,213.15,1,C(C)[SiH3],chen14
2699,"Trichloro(3,3,3-trifluoropropyl)silane",288.15,1,Cl[Si](CCC(F)(F)F)(Cl)Cl,chen14
2700,Allyltrichlorosilane,304.15,1,C(C=C)[Si](Cl)(Cl)Cl,chen14
2701,3-Chloropropyltrichlorosilane,357.15,1,ClCCC[Si](Cl)(Cl)Cl,chen14
2702,n-Propyltrichlorosilane,310.15,1,C(CC)[Si](Cl)(Cl)Cl,chen14
2703,Chloromethyldimethylchlorosilane,295.15,1,ClC[Si](Cl)(C)C,chen14
2704,Trimethyl bromosilane,270.15,1,C[Si](Br)(C)C,chen14
2705,Trimethylchlorosilane,255.15,1,C[Si](Cl)(C)C,chen14
2706,Trimethylfluorosilane,238.15,1,C[Si](F)(C)C,chen14
2707,Trimethoxysilane,264.15,1,CO[SiH](OC)OC,chen14
2708,2-Cyanoethylmethyldichlorosilane,333.15,1,C(#N)CC[Si](Cl)(Cl)C,chen14
2709,Allylmethyldichlorosilane,300.15,1,C(C=C)C[SiH](Cl)Cl,chen14
2710,t-Butyltrichlorosilane,294.15,1,C(C)(C)(C)[Si](Cl)(Cl)Cl,chen14
2711,Isobutyltrichlorosilane,310.15,1,C(C(C)C)[Si](Cl)(Cl)Cl,chen14
2712,n-Butyltrichlorosilane,327.15,1,C(CCC)[Si](Cl)(Cl)Cl,chen14
2713,Trimethylsilylisothiocyanate,308.15,1,C[Si](C)(C)N=C=S,chen14
2714,n-Propylmethyldichlorosilane,300.15,1,C(CC)[Si](Cl)(Cl)C,chen14
2715,Bromomethyltrimethylsilane,289.15,1,BrC[Si](C)(C)C,chen14
2716,ETHYLDIMETHYLCHLOROSILANE,269.15,1,C(C)[Si](Cl)(C)C,chen14
2717,Methoxytrimethylsilane,243.15,1,CO[Si](C)(C)C,chen14
2718,Dimethyldimethoxysilane,265.15,1,C[Si](OC)(OC)C,chen14
2719,Methyltrimethoxysilane,284.15,1,C[Si](OC)(OC)OC,chen14
2720,Tetramethoxysilane,294.15,1,CO[Si](OC)(OC)OC,chen14
2721,Tetramethylsilane,245.15,1,C[Si](C)(C)C,chen14
2722,Diethylsilane,253.15,1,C(C)[SiH2]CC,chen14
2723,"(N,N-Dimethylamino)dimethylsilane",260.15,1,CN(C)[SiH](C)C,chen14
2724,Tetraisocyanatosilane,323.15,1,N(=C=O)[Si](N=C=O)(N=C=O)N=C=O,chen14
2725,Cyclopentyltrichlorosilane,350.15,1,C1(CCCC1)[Si](Cl)(Cl)Cl,chen14
2726,Trimethylsilyltrifluoroacetate,273.15,1,C[Si](C)(C)OC(C(F)(F)F)=O,chen14
2727,Cyclopentyldichlorosilane,316.15,1,C1(CCCC1)[SiH](Cl)Cl,chen14
2728,3-Chloro-2-methylpropylmethyldichlorosilane,363.15,1,ClCC(C[Si](Cl)(Cl)C)C,chen14
2729,Methylvinyldimethoxysilane,277.15,1,CC=C[SiH](OC)OC,chen14
2730,Vinyltrimethoxysilane,296.15,1,C(=C)[Si](OC)(OC)OC,chen14
2731,Trimethylvinylsilane,239.15,1,CC(=C(C)C)[SiH3],chen14
2732,Diethylmethylchlorosilane,288.15,1,C(C)[Si](Cl)(C)CC,chen14
2733,Chloromethyldimethylethoxysilane,299.15,1,ClC[Si](OCC)(C)C,chen14
2734,Ethoxytrimethylsilane,246.15,1,C(C)O[Si](C)(C)C,chen14
2735,Ethyltrimethoxysilane,300.15,1,C(C)[Si](OC)(OC)OC,chen14
2736,"(N,N-Dimethylamino)trimethylsilane",254.5,1,CN(C)[Si](C)(C)C,chen14
2737,Pentamethyldisiloxane,254.15,1,C[SiH](O[Si](C)(C)C)C,chen14
2738,Phenylsilane,281.15,1,C1(=CC=CC=C1)[SiH3],chen14
2739,1-Hexenyltrichlorosilane,333.15,1,C(=CCCCC)[Si](Cl)(Cl)Cl,chen14
2740,Cyclohexyltrichlorosilane,358.15,1,C1(CCCCC1)[Si](Cl)(Cl)Cl,chen14
2741,Bis(chloromethyl)tetramethyldisiloxane,346.15,1,ClC[Si](O[Si](C)(C)C)(C)CCl,chen14
2742,Propargyloxytrimethylsilane,300.15,1,C(C#C)O[Si](C)(C)C,chen14
2743,Divinyldimethylsilane,281.15,1,C(=C)[Si](C)(C)C=C,chen14
2744,n-Hexyltrichlorosilane,358.15,1,C(CCCCC)[Si](Cl)(Cl)Cl,chen14
2745,Hexyldichlorosilane,337.15,1,C(CCCCC)[SiH](Cl)Cl,chen14
2746,"1,1 -Dimethyl-1-sila-2-oxacyclohexane",287.15,1,C[Si]1(OCCCC1)C,chen14
2747,Acetoxymethyltrimethylsilane,293.15,1,C(C)(=O)OC[Si](C)(C)C,chen14
2748,Allyltrimethylsilane,280.15,1,C(C=C)[Si](C)(C)C,chen14
2749,Triethylchlorosilane,303.15,1,C(C)[Si](Cl)(CC)CC,chen14
2750,t-Butyldimethylchlorosilane,295.15,1,C(C)(C)(C)[Si](Cl)(C)C,chen14
2751,3-Chloropropylmethyldimethoxysilane,318.15,1,ClCCC[Si](OC)(OC)C,chen14
2752,Trimethyl-n-propoxysilane,283.15,1,C[Si](OCCC)(C)C,chen14
2753,t-Butyldimethylsilanol,318.15,1,C(C)(C)(C)[Si](O)(C)C,chen14
2754,Dimethyldiethoxysilane,284.15,1,C[Si](OCC)(OCC)C,chen14
2755,Triethylsilane,270.15,1,C(C)[SiH](CC)CC,chen14
2756,Hexylsilane,285.15,1,C(CCCCC)[SiH3],chen14
2757,t-Butyld imethyl silane,251.15,1,C(C)(C)(C)[SiH](C)C,chen14
2758,Bis(dimethylamino)dimethylsilane,266.15,1,CN(C)[Si](C)(C)N(C)C,chen14
2759,Hexamethylcyclotrisiloxane,305.15,1,C[Si]1(O[Si](O[Si](O1)(C)C)(C)C)C,chen14
2760,Hexamethyldisilthiane,299.15,1,C[Si](S[Si](C)(C)C)(C)C,chen14
2761,Hexamethyldisilazane,281.15,1,C[Si](N[Si](C)(C)C)(C)C,chen14
2762,Tris(dimethylamino)silane,298.15,1,CN(C)[SiH](N(C)C)N(C)C,chen14
2763,Hexamethyltrisiloxane,293.15,1,C[Si](O[SiH2]O[Si](C)(C)C)(C)C,chen14
2764,Phenylmethyldichlorosilane,340.15,1,C1(=CC=CC=C1)C[SiH](Cl)Cl,chen14
2765,Phenylmethylchlorosilane,355.15,1,C1(=CC=CC=C1)C[SiH2]Cl,chen14
2766,Methyltriacetoxysilane,358.15,1,C[Si](OC(C)=O)(OC(C)=O)OC(C)=O,chen14
2767,Trivinylmethylsilane,288.15,1,C(=C)C(C=C)(C=C)[SiH3],chen14
2768,Cyclohexylmethyldichlorosilane,355.15,1,C1(CCCCC1)C[SiH](Cl)Cl,chen14
2769,"1-(Trimethylsiloxy)-1,3-butadiene",298.15,1,C[Si](OC=CC=C)(C)C,chen14
2770,2-Chloromethyl-3-trimethylsilyl-1-propene,316.15,1,ClCC(=C)C[Si](C)(C)C,chen14
2771,n-Heptyltrichlorosilane,337.15,1,C(CCCCCC)[Si](Cl)(Cl)Cl,chen14
2772,n-Hexylmethyldichlorosilane,358.15,1,C(CCCCC)[Si](Cl)(Cl)C,chen14
2773,Vinylmethyldiethoxysilane,289.15,1,C(=C)C[SiH](OCC)OCC,chen14
2774,N-(Trimethylsilyl)morpholine,300.15,1,C[Si](N1CCOCC1)(C)C,chen14
2775,t-Butoxytrimethylsilane,287.15,1,C(C)(C)(C)O[Si](C)(C)C,chen14
2776,(1-Methoxy-2-propoxy)trimethylsilane,293.15,1,COCC(C)O[Si](C)(C)C,chen14
2777,Methyltriethoxysilane,297.15,1,C[Si](OCC)(OCC)OCC,chen14
2778,(Diethylamino)trimethylsilane,283.15,1,C(C)N(CC)[Si](C)(C)C,chen14
2779,Bis(trimethylsilyl)methane,285.15,1,C[Si](C)(C)C[Si](C)(C)C,chen14
2780,Heptamethyldisilazane,300.15,1,C[Si](N([Si](C)(C)C)C)(C)C,chen14
2781,Bis(trimethylsiloxy)methylsilane,296.15,1,C[Si](OC(O[Si](C)(C)C)[SiH3])(C)C,chen14
2782,Tetravinylsilane,291.15,1,C(=C)[Si](C=C)(C=C)C=C,chen14
2783,Cyclopentadienyltrimethylsilane,302.15,1,C1(C=CC=C1)[Si](C)(C)C,chen14
2784,(Cyclopentenyloxy)trimethylsilane,311.15,1,C1(=CCCC1)O[Si](C)(C)C,chen14
2785,"(2,4-Pentadienyl)trimethylsilane",291.15,1,C(C=CC=C)[Si](C)(C)C,chen14
2786,n-Octyltrichlorosilane,369.15,1,C(CCCCCCC)[Si](Cl)(Cl)Cl,chen14
2787,n-Heptylmethyldichlorosilane,339.15,1,C(CCCCCC)[Si](Cl)(Cl)C,chen14
2788,Tetramethyldivinyldisiloxane,292.15,1,C[Si](O[Si](C=C)(C=C)C)(C)C,chen14
2789,Triethylacetoxysilane,314.15,1,C(C)C(C(=O)O[SiH3])(CC)CC,chen14
2790,Vinyltriethoxysilane,307.15,1,C(=C)[Si](OCC)(OCC)OCC,chen14
2791,"1,3-Divinyltetramethyldisilazane",307.15,1,C(=C)[Si](N[Si](C=C)(C)C)(C)C,chen14
2792,Diethyldiethoxysilane,316.15,1,C(C)[Si](OCC)(OCC)CC,chen14
2793,Tetraethoxysilane,323.15,1,C(C)O[Si](OCC)(OCC)OCC,chen14
2794,Tetraethylsilane,305.15,1,C(C)[Si](CC)(CC)CC,chen14
2795,Aminoethylaminopropyltrimethoxysilane,269.15,1,NCCNCCC[Si](OC)(OC)OC,chen14
2796,Tetramethyldiethoxysiloxane,311.15,1,CC(C(O[Si]([O])OCC)(C)C)C,chen14
2797,Octamethyltrisiloxane,303.15,1,C[Si](O[Si](O[Si](C)(C)C)(C)C)(C)C,chen14
2798,Octamethylcyclotetrasiloxane,330.15,1,C[Si]1(O[Si](O[Si](O[Si](O1)(C)C)(C)C)(C)C)C,chen14
2799,Octamethylcyclotetrasilazane,339.15,1,C[Si]1(N[Si](N[Si](N[Si](N1)(C)C)(C)C)(C)C)C,chen14
2800,Tetrakisdimethylsiloxysilane,340.15,1,C[SiH](O[Si](O[SiH](C)C)(O[SiH](C)C)O[SiH](C)C)C,chen14
2801,p-Chlorophenyltrimethylsilane,322.15,1,ClC1=CC=C(C=C1)[Si](C)(C)C,chen14
2802,Phenyltrimethoxysilane,358.15,1,C1(=CC=CC=C1)[Si](OC)(OC)OC,chen14
2803,Trimethylphenylsilane,313.15,1,C[Si](C1=CC=CC=C1)(C)C,chen14
2804,Cyclohexylmethyldimethoxysilane,343.15,1,C1(CCCCC1)C[SiH](OC)OC,chen14
2805,Hexyltrimethoxysilane,335.15,1,C(CCCCC)[Si](OC)(OC)OC,chen14
2806,Triisopropylsilane,310.15,1,C(C)(C)[SiH](C(C)C)C(C)C,chen14
2807,Tri-n-propylsilane,316.15,1,C(CC)[SiH](CCC)CCC,chen14
2808,Propyltris(dimethylsiloxy)silane,323.15,1,C(CC)[Si](O[SiH](C)C)(O[SiH](C)C)O[SiH](C)C,chen14
2809,Benzyltrimethylsilane,335.15,1,C(C1=CC=CC=C1)[Si](C)(C)C,chen14
2810,3-Methacryloxypropyltrimethoxysilane,365.15,1,C(C(=C)C)(=O)OCCC[Si](OC)(OC)OC,chen14
2811,1-Heptynyltrimethylsilane,315.15,1,C(#CCCCCC)[Si](C)(C)C,chen14
2812,n-Octyldimethylchlorosilane,370.15,1,C(CCCCCCC)[Si](Cl)(C)C,chen14
2813,Bis(diethylamino)dimethylsilane,308.15,1,C(C)N(CC)[Si](C)(C)N(CC)CC,chen14
2814,Decamethyltetrasiloxane,335.15,1,C[Si](O[Si](O[Si](O[Si](C)(C)C)(C)C)(C)C)(C)C,chen14
2815,Decamethylcyclopentasiloxane,350.15,1,C[Si]1(O[Si](O[Si](O[Si](O[Si](O1)(C)C)(C)C)(C)C)(C)C)C,chen14
2816,"2-(3,4-epoxycyclohexyl)ethyltrimethoxysilane",419.15,1,C1(CC2C(CC1)O2)CC[Si](OC)(OC)OC,chen14
2817,n-Decylmethyldichlorosilane,393.15,1,C(CCCCCCCCC)[Si](Cl)(Cl)C,chen14
2818,Vinyltriethylsilane,318.15,1,C(=C)[Si](CC)(CC)CC,chen14
2819,Diphenyldichlorosilane,415.15,1,C1(=CC=CC=C1)[Si](Cl)(Cl)C1=CC=CC=C1,chen14
2820,Phenyltriethoxysilane,393.15,1,C1(=CC=CC=C1)[Si](OCC)(OCC)OCC,chen14
2821,Diphenylsilane,371.15,1,C1(=CC=CC=C1)[SiH2]C1=CC=CC=C1,chen14
2822,"2,4,6,8-Tetravinyl-2,4,6,8-tetramethylcyclotetrasiloxane",385.15,1,C(=C)[Si]1(O[Si](O[Si](O[Si](O1)(C)C=C)(C)C=C)(C)C=C)C,chen14
2823,n-Dodecyltrichlorosilane,435.15,1,C(CCCCCCCCCCC)[Si](Cl)(Cl)Cl,chen14
2824,Tetra-n-propoxysilane,368.15,1,C(CC)O[Si](OCCC)(OCCC)OCCC,chen14
2825,Hexaethyldisiloxane,349.15,1,C(C)[Si](O[Si](CC)(CC)CC)(CC)CC,chen14
2826,Dodecamethylpentasiloxane,352.15,1,C[Si](O[Si](O[Si](O[Si](O[Si](C)(C)C)(C)C)(C)C)(C)C)(C)C,chen14
2827,Dodecamethylcyclohexasiloxane,366.15,1,C[Si]1(O[Si](O[Si](O[Si](O[Si](O[Si](O1)(C)C)(C)C)(C)C)(C)C)(C)C)C,chen14
2828,Methyldiphenylchlorosilane,411.15,1,C[Si](Cl)(C1=CC=CC=C1)C1=CC=CC=C1,chen14
2829,n-Dodecylmethyldichlorosilane,416.15,1,C(CCCCCCCCCCC)[Si](Cl)(Cl)C,chen14
2830,Diphenyldimethoxysilane,394.15,1,C1(=CC=CC=C1)[Si](OC)(OC)C1=CC=CC=C1,chen14
2831,Octyltriethoxysilane,373.15,1,C(CCCCCCC)[Si](OCC)(OCC)OCC,chen14
2832,Tetradecamethylhexasiloxane,375.15,1,C[Si](O[Si](O[Si](O[Si](O[Si](O[Si](C)(C)C)(C)C)(C)C)(C)C)(C)C)(C)C,chen14
2833,Hexadecamethylheptasiloxane,406.15,1,C[Si](O[Si](O[Si](O[Si](O[Si](O[Si](O[Si](C)(C)C)(C)C)(C)C)(C)C)(C)C)(C)C)(C)C,chen14
2834,n-Octadecyltrichlorosilane,466.15,1,C(CCCCCCCCCCCCCCCCC)[Si](Cl)(Cl)Cl,chen14
2835,Octadecamethyloctasiloxane,417.15,1,C[Si](O[Si](O[Si](O[Si](O[Si](O[Si](O[Si](O[Si](C)(C)C)(C)C)(C)C)(C)C)(C)C)(C)C)(C)C)(C)C,chen14
2836,Vinyltris(methoxyethoxy)silane,353.15,1,C(=C)[Si](OCCOC)(OCCOC)OCCOC,chen14
2837,Trimethyl(vinyloxy)silane,263.15,1,C[Si](OC=C)(C)C,chen14
2838,Trichloro(3-cyanopropyl) Silane,365.15,1,Cl[Si](CCCC#N)(Cl)Cl,chen14
2839,Trichloro(2-phenylethyl)silane,364.15,1,Cl[Si](CCC1=CC=CC=C1)(Cl)Cl,chen14
2840,"Chlorodimethyl(3,3,3-trifluoropropyl) silane",293.15,1,Cl[Si](CCC(F)(F)F)(C)C,chen14
2841,Vinylmethylbis (trimethylsiloxy) silane,324.15,1,C(=C)C[SiH](O[Si](C)(C)C)O[Si](C)(C)C,chen14
2842,Trichloro(Chloromethyl) silane,342.15,1,Cl[Si](CCl)(Cl)Cl,chen14
2843,Dimethyl(pentafluorophenyl) silane,313.15,1,C[SiH](C1=C(C(=C(C(=C1F)F)F)F)F)C,chen14
2844,Trichloro(p-chlorophenyl)silane,397.05,1,Cl[Si](C1=CC=C(C=C1)Cl)(Cl)Cl,chen14
2845,Trisilane,273.15,1,[SiH3][SiH2][SiH3],chen14
2846,Trichlorononylsilane,387.15,1,ClC(CCCCCCCC[SiH3])(Cl)Cl,chen14
2847,Dichloroethylsilane,263.75,1,ClC(C[SiH3])Cl,chen14
2848,Trichloro(dichlorophenyl)silane,419.15,1,Cl[Si](C1=C(C(=CC=C1)Cl)Cl)(Cl)Cl,chen14
2849,Tris(trimethylsilyl)silane,328.15,1,C[Si](C)(C)[SiH]([Si](C)(C)C)[Si](C)(C)C,chen14
2850,Tris(trimethylsiloxy)silane,323.15,1,C[Si](O[SiH](O[Si](C)(C)C)O[Si](C)(C)C)(C)C,chen14
2851,Hexadecyltrichlorosilane,427.15,1,C(CCCCCCCCCCCCCCC)[Si](Cl)(Cl)Cl,chen14
2852,Dichlorosilane,236.15,1,Cl[SiH2]Cl,chen14
2853,Dimethyldichlorosilane,257.15,1,C[Si](Cl)(Cl)C,chen14
2854,Bromomethyldimethylchlorosilane,314.15,1,BrC[Si](Cl)(C)C,chen14
2855,Trimethylsilane,204.15,1,C[SiH](C)C,chen14
2856,Dimethylvinylchlorosilane,268.15,1,CC(=C[SiH2]Cl)C,chen14
2857,"1,3-Dichlorotetramethyldisiloxane",288.15,1,Cl[Si](O[Si](Cl)(C)C)(C)C,chen14
2858,"1,1,3,3-Tetramethyldisiloxane",251.15,1,C[SiH](O[SiH](C)C)C,chen14
2859,Tetramethyldisilazane,284.15,1,CN([Si](C)(C)C)[SiH3],chen14
2860,Allyl Dimethylchlorosilane,278.15,1,C(C=C)[Si](Cl)(C)C,chen14
2861,sec-Amyltrichlorosilane,303.15,1,C(C)(CCC)[Si](Cl)(Cl)Cl,chen14
2862,n-Butylmethyldichlorosilane,303.15,1,C(CCC)[Si](Cl)(Cl)C,chen14
2863,Bis(dimethylamino)methylsilane,270.15,1,CN(C)C(N(C)C)[SiH3],chen14
2864,Phenyltrichlorosilane,364.15,1,C1(=CC=CC=C1)[Si](Cl)(Cl)Cl,chen14
2865,Phenyl trifluorosilane,268.15,1,C1(=CC=CC=C1)[Si](F)(F)F,chen14
2866,Dimethyldiacetoxysilane,310.15,1,C[Si](OC(C)=O)(OC(C)=O)C,chen14
2867,1-Trimethylsilylpropyne,270.15,1,C[Si](C#CC)(C)C,chen14
2868,Vinyldimethylethoxysilane,277.15,1,C(=C)[Si](OCC)(C)C,chen14
2869,Allyloxytrimethylsilane,273.15,1,C(C=C)O[Si](C)(C)C,chen14
2870,Allyltrimethoxysilane,319.15,1,C(C=C)[Si](OC)(OC)OC,chen14
2871,3-Chloropropyltrimethoxysilane,348.15,1,ClCCC[Si](OC)(OC)OC,chen14
2872,n-Propyltrimethoxysilane,298.15,1,C(CC)[Si](OC)(OC)OC,chen14
2873,Hexamethyldisiloxane,270.15,1,C[Si](O[Si](C)(C)C)(C)C,chen14
2874,Hexamethyldisilane,272.15,1,C[Si]([Si](C)(C)C)(C)C,chen14
2875,Vinyldiethylmethylsilane,288.15,1,C(=C)[Si](C)(CC)CC,chen14
2876,Isobutyltrimethoxysilane,315.15,1,C(C(C)C)[Si](OC)(OC)OC,chen14
2877,Phenyldimethylchlorosilane,334.15,1,C1(=CC=CC=C1)[Si](Cl)(C)C,chen14
2878,"(N,N-Dimethylamino)triethylsilane",299.15,1,CN(C)[Si](CC)(CC)CC,chen14
2879,Vinyltriacetoxysilane,361.15,1,C(=C)[Si](OC(C)=O)(OC(C)=O)OC(C)=O,chen14
2880,Ethyltriacetoxysilane,377.15,1,C(C)[Si](OC(C)=O)(OC(C)=O)OC(C)=O,chen14
2881,3-(Trimethylsilyl)cyclopentene,299.15,1,C[Si](C1C=CCC1)(C)C,chen14
2882,Vinyltriethylsilane,298.15,1,C(=C)[Si](CC)(CC)CC,chen14
2883,n-Octylsilane,309.15,1,C(CCCCCCC)[SiH3],chen14
2884,Methyl phenyldimethoxysilane,349.15,1,C[Si](OC)(OC)C1=CC=CC=C1,chen14
2885,2-Cyanoethyltriethoxysilane,359.15,1,C(#N)CC[Si](OCC)(OCC)OCC,chen14
2886,3-Glycidoxypropyltrimethoxysilane,383.15,1,C(C1CO1)OCCC[Si](OC)(OC)OC,chen14
2887,Di-t-butylmethylchlorosilane,342.15,1,C(C)(C)(C)[Si](Cl)(C)C(C)(C)C,chen14
2888,Tri-n-propylchlorosilane,349.15,1,C(CC)[Si](Cl)(CCC)CCC,chen14
2889,(Diisopropylamino)trimethylsilane,301.15,1,C(C)(C)N(C(C)C)[Si](C)(C)C,chen14
2890,1-Chlorononamethyltetrasiloxane,347.15,1,Cl[Si](O[Si](O[Si](O[Si](C)(C)C)(C)C)(C)C)(C)C,chen14
2891,Tristrimethylsiloxymethylsilane,336.15,1,C[Si](OC(O[Si](C)(C)C)(O[Si](C)(C)C)[SiH3])(C)C,chen14
2892,Diphenylmethylsilane,393.15,1,C1(=CC=CC=C1)C(C1=CC=CC=C1)[SiH3],chen14
2893,Trimethyl[(1-methylethenyl)oxy]silane,272.15,1,C[Si](OC(=C)C)(C)C,chen14
2894,"Dichloromethyl-3,3,3-trifluoropropylsilane",288.15,1,ClC(Cl)[SiH2]CCC(F)(F)F,chen14
2895,[2-(chloromethoxy)ethyl]trimethylsilane,319.15,1,ClCOCC[Si](C)(C)C,chen14
2896,Iodotrimethylsilane,288.15,1,I[Si](C)(C)C,chen14
2897,Triphenylsilane,416.35,1,C1(=CC=CC=C1)[SiH](C1=CC=CC=C1)C1=CC=CC=C1,chen14
2898,[3-(mercapto)propyl]triethoxysilane,360.93,1,SCCC[Si](OCC)(OCC)OCC,chen14
2899,Hexadecamethylheptasiloxane,406.15,1,C[Si](O[Si](O[Si](O[Si](O[Si](O[Si](O[Si](C)(C)C)(C)C)(C)C)(C)C)(C)C)(C)C)(C)C,chen14
2900,Gamma-aminopropylethoxysilane,369.26,1,NCCC[SiH2]OCC,chen14
2901,Dichlorodiethylsilane,297.15,1,Cl[Si](CC)(CC)Cl,chen14
2902,Dimethylchlorosilane,245.15,1,C[SiH](Cl)C,chen14