smiles,compound,flashpoint,source,pure substance
CCCCCCCCN,n-OCTYLAMINE,333.0,didier14,1
CCCCCCCCS,n-OCTYL MERCAPTAN,341.1,didier14,1
C=CCCCCCCCCCCCC,1-TETRADECENE,370.0,didier14,1
CCCCCCCCNCCCCCCCC,DI-n-OCTYLAMINE,383.1,didier14,1
CCCCCCCCC(=O)O,n-NONANOIC ACID,401.0,didier14,1
CCCCCCCOC(C)=O,n-HEPTYL ACETATE,340.0,didier14,1
CCCCCCCCCN,n-NONYLAMINE,335.1,didier14,1
CCCCCCCOC=O,n-HEPTYL FORMATE,327.0,didier14,1
CCCCCCCCCCC(=O)O,n-UNDECANOIC ACID,421.1,didier14,1
CC(CO)c1ccccc1,2-PHENYL-1-PROPANOL,366.1,didier14,1
CCCCCCCCCCCC,n-DODECANE,347.0,didier14,1
CCCCCCOCCCCCC,DI-n-HEXYL ETHER,350.1,didier14,1
CCCCCCCC/C=C\CCCCCCCC(=O)OC,METHYL OLEATE,450.0,didier14,1
CCCCCCCCCCCCCO,1-TRIDECANOL,394.0,didier14,1
CCCCCCCC/C=C\CCCCCCCC(=O)O,OLEIC ACID,462.0,didier14,1
CCCCCCCCCCCCCCCCCCO,1-OCTADECANOL,450.0,didier14,1
CCCCCCCCCCCCCCCCCCCC,n-EICOSANE,440.0,didier14,1
C=C(C)C,ISOBUTENE,197.0,didier14,1
CCC(C)C(=O)O,2-METHYLBUTYRIC ACID,348.0,didier14,1
CC(C)(C)CCC(=O)O,NEOHEPTANOIC ACID,366.0,didier14,1
Cc1ccccc1C(=O)O,o-TOLUIC ACID,407.0,didier14,1
,cis-CROTONITRILE,285.0,didier14,1
O=C(c1ccccc1)c1ccccc1,BENZOPHENONE,419.0,didier14,1
O=C(OCc1ccccc1)c1ccccc1,BENZYL BENZOATE,418.1,didier14,1
c1ccc(Nc2ccccc2)cc1,DIPHENYLAMINE,426.0,didier14,1
OCCCc1ccccc1,3-PHENYL-1-PROPANOL,373.1,didier14,1
CCCCCCCCCCCCc1ccccc1,n-DODECYLBENZENE,414.0,didier14,1
CCCCCCCCCCCCCc1ccccc1,n-TRIDECYLBENZENE,438.0,didier14,1
CCCCC(C=O)CC,2-ETHYLHEXANAL,317.1,didier14,1
CC(C)CC(=O)CC(C)CC(C)C,"2,6,8-TRIMETHYL-4-NONANONE",356.0,didier14,1
CCC(=O)OC(=O)CC,PROPIONIC ANHYDRIDE,336.0,didier14,1
C/C=C/C=O,trans-CROTONALDEHYDE,281.1,didier14,1
CC(=O)OCCC(C)C,ISOPENTYL ACETATE,298.1,didier14,1
C=CCNCC=C,DIALLYLAMINE,284.1,didier14,1
CCCCCCCCCCCCN,n-DODECYLAMINE,382.0,didier14,1
C=C(C)C#N,METHACRYLONITRILE,286.0,didier14,1
,CHLOROPRENE,244.6,didier14,1
Cc1cc(C(C)(C)C)c(O)c(C(C)(C)C)c1,"2,6-DI-tert-BUTYL-p-CRESOL",390.1,didier14,1
C=CCC(C)CCC,4-METHYL-1-HEPTENE,275.0,didier14,1
C=CCCCCC(C)C,7-METHYL-1-OCTENE,291.0,didier14,1
CCCCCCCCCc1cccc(O)c1CCCCCCCCC,DINONYLPHENOL,535.0,didier14,1
CCC(C)(C)SC,METHYL t-PENTYL SULFIDE,302.0,didier14,1
CCCC(C)(C)C(C)(C)C,"2,2,3,3-TETRAMETHYLHEXANE",302.0,didier14,1
CCCCOC(=O)c1ccccc1,n-BUTYL BENZOATE,379.1,didier14,1
O=C(O)C=Cc1ccccc1,CINNAMIC ACID,445.0,didier14,1
CC(=O)OCc1ccccc1,BENZYL ACETATE,363.1,didier14,1
N#CCc1ccccc1,PHENYLACETONITRILE,374.1,didier14,1
CC(C)(C)CC(C)(C)c1ccc(O)cc1,p-tert-OCTYLPHENOL,406.0,didier14,1
C=CC(=O)OCC,ETHYL ACRYLATE,282.1,didier14,1
C=CC(=O)OCCCC,n-BUTYL ACRYLATE,312.0,didier14,1
CC(C)(C)CC(C)(C)S,tert-OCTYL MERCAPTAN,304.0,didier14,1
CC(=O)C=C(C)C,MESITYL OXIDE,301.0,didier14,1
CCSC(C)(C)C,ETHYL t-BUTYL SULFIDE,282.0,didier14,1
CCCCCCOC(C)=O,n-HEXYL ACETATE,310.1,didier14,1
CCCCOCCCC,DI-n-BUTYL ETHER,298.1,didier14,1
CCCCCCCCCCS,n-DECYL MERCAPTAN,371.1,didier14,1
CCCCCCCCCCCCCCCCCCCO,1-NONADECANOL,458.0,didier14,1
CCCCCCCCCCCCCCCCCO,1-HEPTADECANOL,441.0,didier14,1
CCCCCCCCCS,n-NONYL MERCAPTAN,351.1,didier14,1
CCCCCCCCCCCCCCCCc1ccccc1,n-HEXADECYLBENZENE,466.0,didier14,1
CCCCCCCCCCCCCCc1ccccc1,n-TETRADECYLBENZENE,447.0,didier14,1
CCCCCCCCCCCCCCCCCc1ccccc1,n-HEPTADECYLBENZENE,472.0,didier14,1
c1ccc(CC(c2ccccc2)c2ccccc2)cc1,"1,1,2-TRIPHENYLETHANE",441.0,didier14,1
CSC(C)C,METHYL ISOPROPYL SULFIDE,262.0,didier14,1
CCOc1ccc(N)cc1,p-PHENETIDINE,389.0,didier14,1
CC(C)Cc1ccc(C(C)C(=O)O)cc1,IBUPROFEN,436.0,didier14,1
C=C/C=C\C,"cis-1,3-PENTADIENE",232.0,didier14,1
C/C=C\C=O,cis-CROTONALDEHYDE,281.1,didier14,1
CCCCCCC(C)(C)C,"2,2-DIMETHYLOCTANE",304.0,didier14,1
CCCC(C)CCC(C)C,"2,5-DIMETHYLOCTANE",306.0,didier14,1
C=C(C)CCCCC,2-METHYL-1-HEPTENE,283.1,didier14,1
C=Cc1ccc(C(=C)C)cc1,p-ISOPROPENYLSTYRENE,360.0,didier14,1
C=C(CC)CCCC,2-ETHYL-1-HEXENE,279.0,didier14,1
C=CCCCCCCC=C,"1,9-DECADIENE",316.0,didier14,1
C=C(C)C(C)CCC,"2,3-DIMETHYL-1-HEXENE",281.0,didier14,1
CCC(CC)C(C)(C)C,"2,2-DIMETHYL-3-ETHYLPENTANE",286.0,didier14,1
CCCc1cccc(C)c1C,"1,2-DIMETHYL-3-PROPYLBENZENE",345.0,didier14,1
C=Cc1ccc(C(C)(C)C)cc1,p-tert-BUTYLSTYRENE,352.0,didier14,1
CCc1cc(C)ccc1C,2-ETHYL-p-XYLENE,329.0,didier14,1
CCc1cc(C)c(C)cc1C,"1,2,4-TRIMETHYL-5-ETHYLBENZENE",347.0,didier14,1
C=C(C)CNCC,N-ETHYL-2-METHYLALLYLAMINE,280.1,didier14,1
C=CCCCCCCCCCCCCCCCCC,1-NONADECENE,430.0,didier14,1
CCCCOC(C)C,ISOPROPYL BUTYL ETHER,277.0,didier14,1
CC(C)(c1ccccc1)C(C)(C)c1ccccc1,"2,3-DIMETHYL-2,3-DIPHENYLBUTANE",412.0,didier14,1
CCc1ccccc1C(C)C,1-ETHYL-2-ISOPROPYLBENZENE,331.0,didier14,1
Cc1cccc(OC(C)C)c1,1-METHYL-3-(METHYLETHOXY)BENZENE,339.0,didier14,1
CCCC(C)CC=O,3-METHYLHEXANAL,303.0,didier14,1
C=C/C=C/C,"trans-1,3-PENTADIENE",230.0,didier14,1
C/C=C/CCCCCCC,trans-2-DECENE,319.0,didier14,1
CCCCCCCCCCCCCCN,n-TETRADECYLAMINE,406.0,didier14,1
CCCCCCCCCCN,n-DECYLAMINE,358.1,didier14,1
C=C/C=C/CC,"trans-1,3-HEXADIENE",254.2,didier14,1
CCSSC,ETHYL METHYL DISULFIDE,299.0,didier14,1
C/C=C\CCCCCCC,cis-2-DECENE,320.0,didier14,1
,2-PHENYLBUTENE-1,325.0,didier14,1
CCCCCNCCCCC,DIAMYLAMINE,325.1,didier14,1
CCC(C)CCCC(C)C,"2,6-DIMETHYLOCTANE",307.0,didier14,1
CCCC(C)S,2-PENTANETHIOL,282.5,didier14,1
CCCCCCCCC(CO)CCCC,2-BUTYL-1-DECANOL,422.0,didier14,1
CCCCCCCCCCCCCCCc1ccccc1,n-PENTADECYLBENZENE,456.0,didier14,1
CCCCCCCCc1ccccc1,n-OCTYLBENZENE,380.1,didier14,1
C=C(C)C(=O)OCCC,n-PROPYL METHACRYLATE,304.0,didier14,1
CCCCCCCCCCC(C)CO,2-METHYL-DODECAN-1-OL,404.0,didier14,1
CCCOC(=O)c1ccccc1,n-PROPYL BENZOATE,371.1,didier14,1
C=CCCCCCCCCCCC,1-TRIDECENE,352.1,didier14,1
CCCCCCCCCOCCCCCCCCC,DINONYL ETHER,430.0,didier14,1
C=C(C)C(=O)OCCCCCCCCCCCCCCCC,CETYL METHACRYLATE,452.0,didier14,1
,tert-DODECYL MERCAPTAN,363.1,didier14,1
CCCCCCCCCc1ccccc1O,NONYLPHENOL,411.0,didier14,1
,tert-NONYL MERCAPTAN,338.1,didier14,1
CCCCC(CC)CC=O,3-ETHYL HEPTANAL,328.0,didier14,1
C=Cc1ccc(O)cc1,4-HYDROXYSTYRENE,377.0,didier14,1
C=CCCCCCC(C)C,8-METHYL-1-NONENE,316.0,didier14,1
CCCCCCCCSCCCCCCCC,DI-n-OCTYL SULFIDE,428.0,didier14,1
CCc1c(C)cccc1C,2-ETHYL-m-XYLENE,331.0,didier14,1
c1cncnc1,PYRIMIDINE,304.1,didier14,1
C=C(C)CCCCCCC,2-METHYL-1-NONENE,315.0,didier14,1
C=CC(=O)OC(C)CC,sec-BUTYL ACRYLATE,299.6,didier14,1
CCCCCCC(C)C(=O)O,2-METHYLOCTANOIC ACID,391.0,didier14,1
CCCSSCC,ETHYL PROPYL DISULFIDE,324.0,didier14,1
Cc1cc(O)ccc1C(C)C,1-METHYL-3-HYDROXY-6-ISOPROPYL BENZENE,378.0,didier14,1
Cc1cc(O)cc(C(C)C)c1,1-METHYL-3-HYDROXY-5-ISOPROPYL BENZENE,383.1,didier14,1
CCCCCCCCCCCC(C)CO,2-METHYL-1-TRIDECANOL,422.0,didier14,1
CSCCC=O,3-(METHYLMERCAPTO)PROPANAL,334.1,didier14,1
CCC(C)OC(C)(C)C,sec-BUTYL-tert-BUTYL ETHER,276.0,didier14,1
CC(C)COC(C)(C)C,ISOBUTYL-tert-BUTYL ETHER,276.0,didier14,1
C=COC(=O)C(C)(C)C,VINYL PIVALATE,282.1,didier14,1
C=CC(CC)CCC,3-ETHYL-1-HEXENE,274.0,didier14,1
C=C(CC)CCC,2-ETHYL-1-PENTENE,263.0,didier14,1
C=CCCCCCCCCCCCCCCCCCC,1-EICOSENE,440.0,didier14,1
C=Cc1ccc(CC)cc1,p-ETHYLSTYRENE,334.0,didier14,1
C=CCCC(C)C,5-METHYL-1-HEXENE,257.0,didier14,1
CCCCC(CC)CCO,3-ETHYL-1-HEPTANOL,363.0,didier14,1
CCSCC,DIETHYL SULFIDE,263.1,didier14,1
CCCCCCCCCCCCCCCCO,1-HEXADECANOL,427.1,didier14,1
CCCCCCCCSCC,ETHYL n-OCTYL SULFIDE,366.0,didier14,1
CCN(O)CC,"N,N-DIETHYLHYDROXYLAMINE",318.1,didier14,1
C=CCC(C)CC,4-METHYL-1-HEXENE,258.0,didier14,1
CCCCC(C)CCCO,4-METHYL-1-OCTANOL,358.0,didier14,1
CCC(C)CCCCCO,6-METHYL-1-OCTANOL,360.0,didier14,1
CCCSC,METHYL n-PROPYL SULFIDE,270.0,didier14,1
CCc1cc(CC)c(CC)c(CC)c1,"1,2,3,5-TETRAETHYLBENZENE",376.0,didier14,1
CCCCCCC(CO)CCCC,2-BUTYL-OCTAN-1-OL,382.1,didier14,1
CCCCC(C)CC(C)C,"2,4-DIMETHYLOCTANE",304.0,didier14,1
C=CC(CC)CC,3-ETHYL-1-PENTENE,256.0,didier14,1
C/C=C/CCC,trans-2-HEXENE,246.0,didier14,1
CCc1cccc(CC)c1CC,"1,2,3-TRIETHYLBENZENE",352.0,didier14,1
C/C=C/CCCCCCCCCCCCCCCCC,trans-2-EICOSENE,420.0,didier14,1
CC(CC(C)(C)C)CC(C)(C)CC(C)(C)C,"2,2,4,4,6,8,8-HEPTAMETHYLNONANE",368.1,didier14,1
CCCCCCCCCCCCCCCCCCc1ccccc1,n-OCTADECYLBENZENE,480.0,didier14,1
CCCCCC(=O)CCC,4-NONANONE,335.0,didier14,1
CCCCC(C)C(=O)O,2-METHYLHEXANOIC ACID,375.0,didier14,1
C=C(C)CCCCCC,2-METHYL-1-OCTENE,296.0,didier14,1
,LINOLENIC ACID,471.0,didier14,1
CC(C)(C)C,NEOPENTANE,201.0,didier14,1
CC(C)C(C)(C)C,"2,2,3-TRIMETHYLBUTANE",249.0,didier14,1
C=CCCCC(C)C,6-METHYL-1-HEPTENE,276.0,didier14,1
C/C=C\C(=O)O,cis-CROTONIC ACID,352.0,didier14,1
CCCCCCCCCCCCCCCCC(=O)O,n-HEPTADECANOIC ACID,469.0,didier14,1
CCCCCCCCC(=O)OCCCC,n-BUTYL NONANOATE,361.0,didier14,1
CCCCCCCCCCCCCCCCCCCC(=O)O,n-EICOSANIC ACID,490.0,didier14,1
CC(C)(C)Cl,tert-BUTYL CHLORIDE,268.1,didier14,1
CCC(C)S,sec-BUTYL MERCAPTAN,250.2,didier14,1
C=C(C)C(=C)C,"2,3-DIMETHYL-1,3-BUTADIENE",251.2,didier14,1
CCc1ccc(CCc2ccc(CC)cc2)cc1,1-(4-ETHYLPHENYL)-2-(4-ETHYLPHENYL)ETHANE,409.0,didier14,1
CCCCCCCC(CO)CCCC,2-BUTYL-NONAN-1-OL,404.0,didier14,1
C/C=C\C=C\C,"cis,trans-2,4-HEXADIENE",266.1,didier14,1
C/C=C/C=C/C,"trans,trans-2,4-HEXADIENE",266.1,didier14,1
c1ccc(C(c2ccccc2)c2ccccc2)cc1,TRIPHENYLMETHANE,449.0,didier14,1
Cc1cc(C)c(C)c(C)c1,"1,2,3,5-TETRAMETHYLBENZENE",336.5,didier14,1
Cc1ccccc1C(C)C,o-CYMENE,326.1,didier14,1
Cc1ccccc1C=O,o-TOLUALDEHYDE,340.1,didier14,1
CCCCCCCCCCCS,UNDECYL MERCAPTAN,381.0,didier14,1
Cc1cccc(C(C)C)c1,m-CYMENE,323.1,didier14,1
CC(C)Cc1ccccc1,ISOBUTYLBENZENE,325.1,didier14,1
CCOCc1ccccc1,BENZYL ETHYL ETHER,332.0,didier14,1
CCCCl,PROPYL CHLORIDE,255.4,didier14,1
CCOC,METHYL ETHYL ETHER,236.0,didier14,1
CC(C)CC(C)(C)C,"2,2,4-TRIMETHYLPENTANE",261.0,didier14,1
CC(=O)OC(C)(C)C,tert-BUTYL ACETATE,287.2,didier14,1
CCOC(=O)Cl,ETHYL CHLOROFORMATE,275.1,didier14,1
CC(C)CCSCCC(C)C,DIISOPENTYLSULFIDE,352.0,didier14,1
CCCCSCCCC,DI-n-BUTYL SULFIDE,331.0,didier14,1
CCCCCCCCCCCCCC(=O)O,n-TETRADECANOIC ACID,446.0,didier14,1
CCCCCCCCCCOC=O,n-DECYL FORMATE,367.0,didier14,1
CCCCCCCCCOC=O,n-NONYL FORMATE,353.0,didier14,1
CC(C)CCCCCCCO,8-METHYL-1-NONANOL,377.6,didier14,1
CCCOC,METHYL n-PROPYL ETHER,232.0,didier14,1
C=C(C)Cl,2-CHLOROPROPENE,239.2,didier14,1
CCC(C)(C)CC,"3,3-DIMETHYLPENTANE",254.0,didier14,1
CCCC(C)(C)CC,"3,3-DIMETHYLHEXANE",272.0,didier14,1
C=C(C)CC,2-METHYL-1-BUTENE,221.0,didier14,1
C=C(C)C(C)C,"2,3-DIMETHYL-1-BUTENE",255.2,didier14,1
CCC(C)C(C)C,"2,3-DIMETHYLPENTANE",258.0,didier14,1
CCCCCCCCCCCCCCCC(=O)O,n-HEXADECANOIC ACID,461.0,didier14,1
CCCCCCOCC,ETHYL n-HEXYL ETHER,303.0,didier14,1
CCc1ccccc1N,o-ETHYLANILINE,364.1,didier14,1
CCc1cccc(CC)c1N,"2,6-DIETHYLANILINE",396.1,didier14,1
CCCC(C)C(C)C,"2,3-DIMETHYLHEXANE",278.5,didier14,1
C=C(C)C(=O)OC(C)(C)C,tert-BUTYL METHACRYLATE,300.1,didier14,1
,m-TOLUALCOHOL,378.1,didier14,1
C(=C(c1ccccc1)c1ccccc1)c1ccccc1,TRIPHENYLETHYLENE,474.0,didier14,1
,p-TOLUALCOHOL,371.0,didier14,1
CCCC(C)CC,3-METHYLHEXANE,269.0,didier14,1
CCCC(=O)CC,3-HEXANONE,287.1,didier14,1
CCC(C)OC=O,sec-BUTYL FORMATE,274.0,didier14,1
CCCCC(=O)CCC,4-OCTANONE,318.1,didier14,1
C/C=C\C,cis-2-BUTENE,203.0,didier14,1
CCCC(C)(C)C,"2,2-DIMETHYLPENTANE",258.1,didier14,1
CCCCC(C)(C)C,"2,2-DIMETHYLHEXANE",269.0,didier14,1
CC(C)CC=O,3-METHYLBUTYRALDEHYDE,268.0,didier14,1
CCCCOC(=O)CCCC,n-BUTYL VALERATE,336.0,didier14,1
CCCCC(C)C,2-METHYLHEXANE,250.0,didier14,1
C=CCC=C,"1,4-PENTADIENE",218.0,didier14,1
C=CCCC=C,"1,5-HEXADIENE",227.2,didier14,1
C=CCC=CC,"1,4-HEXADIENE",248.2,didier14,1
CCCCOC=O,n-BUTYL FORMATE,291.0,didier14,1
C=CCSCC=C,DIALLYL SULFIDE,319.1,didier14,1
CCCCCCCCCCCCCCCCCC,n-OCTADECANE,438.1,didier14,1
CCC(C)(C)N,2-METHYL-2-AMINOBUTANE,257.0,didier14,1
C=C(C)C(C)(C)C,"2,3,3-TRIMETHYL-1-BUTENE",256.1,didier14,1
CC(C)(C)C(C)(C)C,"2,2,3,3-TETRAMETHYLBUTANE",278.0,didier14,1
COC(C)C,METHYL ISOPROPYL ETHER,225.0,didier14,1
CC(C)(c1ccccc1)c1ccc(O)cc1,p-CUMYLPHENOL,433.0,didier14,1
OCCc1ccccc1,2-PHENYLETHANOL,369.0,didier14,1
CCCCC/C=C\C/C=C\CCCCCCCC(=O)O,LINOLEIC ACID,467.0,didier14,1
CCc1cc(CC)c(CC)c(CC)c1CC,PENTAETHYLBENZENE,393.0,didier14,1
CCC(CC)C(C)C,2-METHYL-3-ETHYLPENTANE,275.0,didier14,1
C=Cc1ccccc1C,o-METHYLSTYRENE,320.1,didier14,1
CC(c1ccccc1)c1ccccc1,"1,1-DIPHENYLETHANE",402.0,didier14,1
CC(C)(C)OC(C)(C)C,DI-tert-BUTYL ETHER,270.0,didier14,1
CCN(C)CC,"N,N-DIETHYLMETHYLAMINE",250.0,didier14,1
CCC(CC)CC,3-ETHYLPENTANE,261.0,didier14,1
CC(C)(O)c1ccccc1,2-PHENYL-2-PROPANOL,360.1,didier14,1
CCc1ccc(C)c(C)c1C,"1,2,3-TRIMETHYL-4-ETHYLBENZENE",346.0,didier14,1
CCc1c(C)ccc(C)c1C,"1,2,4-TRIMETHYL-3-ETHYLBENZENE",346.0,didier14,1
CCc1cccc(O)c1,m-ETHYLPHENOL,367.1,didier14,1
Cc1cccc(C=O)c1,m-TOLUALDEHYDE,351.1,didier14,1
CCCCCN(CCCCC)CCCCC,TRIAMYLAMINE,376.0,didier14,1
C=Cc1ccc(C)cc1,p-METHYLSTYRENE,319.0,didier14,1
CCC=C(C)C=O,2-METHYL-2-PENTENAL,304.1,didier14,1
CCCCC(C)CO,2-METHYL-1-HEXANOL,333.0,didier14,1
CCC(=O)CCC(C)C,ETHYL ISOAMYL KETONE,318.0,didier14,1
C/C=C/C,trans-2-BUTENE,201.0,didier14,1
CSSC,DIMETHYL DISULFIDE,280.0,didier14,1
CCC=C(C)C,2-METHYL-2-PENTENE,246.0,didier14,1
COCC(C)C,METHYL ISOBUTYL ETHER,243.0,didier14,1
CCOC(C)C,ETHYL ISOPROPYL ETHER,228.0,didier14,1
CCOCC(C)C,ETHYL ISOBUTYL ETHER,259.0,didier14,1
C/C=C\CC,cis-2-PENTENE,226.0,didier14,1
,trans-CROTONITRILE,296.0,didier14,1
C=C(C)CCC(=C)C,"2,5-DIMETHYL-1,5-HEXADIENE",280.0,didier14,1
CC(C)CCCCO,5-METHYL-1-HEXANOL,340.0,didier14,1
,n-CROTYL ACETATE,303.0,didier14,1
CCCCOC,METHYL n-BUTYL ETHER,263.1,didier14,1
CC(C)COCC(C)C,DIISOBUTYL ETHER,281.1,didier14,1
CCCCCOC,METHYL n-PENTYL ETHER,271.0,didier14,1
CCCCOCC,n-BUTYL ETHYL ETHER,277.1,didier14,1
CCCCCCCC(C)O,2-NONANOL,355.4,didier14,1
CCCSSCCC,DI-n-PROPYL DISULFIDE,339.1,didier14,1
CCCCCCOC=O,n-HEXYL FORMATE,317.0,didier14,1
CCCCCCCCCCCCCCC,n-PENTADECANE,387.0,didier14,1
CCCCCCCCCCCCCCCO,1-PENTADECANOL,424.0,didier14,1
CCCCCCCCOCCCCCCCC,DI-n-OCTYL ETHER,385.1,didier14,1
CCCCCCCCCCCCCCCCCCCCC,n-HENEICOSANE,450.0,didier14,1
CCCCCCCCCCCCCCCCCCCCO,1-EICOSANOL,467.0,didier14,1
CCCCCCCCCCCCCCCCCCCCCC,n-DOCOSANE,458.0,didier14,1
CCCCCCCCCCCCCCCCCCCCCCCCC,n-PENTACOSANE,475.0,didier14,1
CCCCCCCCCCCCCCCCCCCCCCCCCC,n-HEXACOSANE,475.0,didier14,1
c1ccc(C(c2ccccc2)(c2ccccc2)c2ccccc2)cc1,TETRAPHENYLMETHANE,525.0,didier14,1
c1ccc(C(c2ccccc2)C(c2ccccc2)c2ccccc2)cc1,"1,1,2,2-TETRAPHENYLETHANE",448.0,didier14,1
c1ccc(C(=C(c2ccccc2)c2ccccc2)c2ccccc2)cc1,TETRAPHENYLETHYLENE,538.0,didier14,1
C=Cc1ccc(CC(C)C)cc1,4-ISOBUTYLSTYRENE,373.0,didier14,1
,"2,4-DIPHENYL-4-METHYLPENTENE-1",431.0,didier14,1
CCOC(C)(C)C,tert-BUTYL ETHYL ETHER,254.0,didier14,1
CCCCCOC=O,n-PENTYL FORMATE,300.0,didier14,1
CCCCCCCCCCCCC(=O)O,n-TRIDECANOIC ACID,438.0,didier14,1
CCCCCCCCCCCCCCCCCCCCCCC,n-TRICOSANE,467.0,didier14,1
O=CO,FORMIC ACID,321.1,didier14,1
CCCOC(=O)C(C)C,n-PROPYL ISOBUTYRATE,302.0,didier14,1
C(=C\c1ccccc1)\c1ccccc1,cis-STILBENE,394.0,didier14,1
CCCC=C(C=O)CC,2-ETHYL-2-HEXENAL,341.1,didier14,1
CCCCCCCCCCCCCCCCCCC(=O)O,n-NONADECANOIC ACID,483.0,didier14,1
CCCCCCCCCCCCCCCCCCCCCCCC,n-TETRACOSANE,475.0,didier14,1
CC(C)CCOC(=O)CC(C)C,ISOPENTYL ISOVALERATE,345.0,didier14,1
C=C(CC)OC(C)=O,sec-BUTENYL ACETATE,288.0,didier14,1
CCCCCCCCCCCc1ccccc1,n-UNDECYLBENZENE,417.0,didier14,1
C/C=C/C(C)C,4-METHYL-trans-2-PENTENE,239.0,didier14,1
CC(C)=O,ACETONE,255.0,didier14,1
C=CCCCCCCCCCCCCCCC,1-HEPTADECENE,408.0,didier14,1
CCC(C)OC,METHYL sec-BUTYL ETHER,244.0,didier14,1
CCC(C)OC(C)CC,DI-sec-BUTYL ETHER,288.0,didier14,1
C=CC(=O)OC(C)C,ISOPROPYL ACRYLATE,281.0,didier14,1
C=CCC(C)C,4-METHYL-1-PENTENE,234.0,didier14,1
C/C=C\C(C)C,4-METHYL-cis-2-PENTENE,237.0,didier14,1
C=COC=O,VINYL FORMATE,254.0,didier14,1
CCCCCOCCCCC,DI-n-PENTYL ETHER,330.1,didier14,1
CC(O)Cc1ccccc1,1-PHENYL-2-PROPANOL,358.1,didier14,1
Cc1cc(C)c(C)c(C)c1C,PENTAMETHYLBENZENE,364.1,didier14,1
CCCCCC(C)C(C)C,"2,3-DIMETHYLOCTANE",309.0,didier14,1
C/C=C/CCCCCCCCC,trans-2-DODECENE,351.0,didier14,1
C/C=C\CCCCCCCCC,cis-2-DODECENE,351.0,didier14,1
CCCCCCCCCCCN,UNDECYLAMINE,365.1,didier14,1
CCc1ccc(C(C)(C)C)cc1,p-tert-BUTYL ETHYLBENZENE,343.0,didier14,1
CCc1ccc(CCc2ccccc2)cc1,1-(4-ETHYLPHENYL)-2-PHENYLETHANE,404.0,didier14,1
C/C=C/CCCCCCCCCCCC,trans-2-PENTADECENE,396.0,didier14,1
CCl,METHYL CHLORIDE,205.0,didier14,1
CS,METHYL MERCAPTAN,217.0,didier14,1
CCCl,ETHYL CHLORIDE,223.2,didier14,1
C=CCl,VINYL CHLORIDE,195.0,didier14,1
CCN,ETHYLAMINE,228.0,didier14,1
CCS,ETHYL MERCAPTAN,225.0,didier14,1
C=Cc1cccc(CC)c1,m-ETHYLSTYRENE,333.0,didier14,1
CC(C)C,ISOBUTANE,190.2,didier14,1
CC(=O)Cl,ACETYL CHLORIDE,278.0,didier14,1
C=Cc1ccccc1CC,o-ETHYLSTYRENE,331.0,didier14,1
CC(C)(C)N,tert-BUTYLAMINE,264.1,didier14,1
CCC(C)(C)C,"2,2-DIMETHYLBUTANE",225.0,didier14,1
CC(C)(C)CO,"2,2-DIMETHYL-1-PROPANOL",300.0,didier14,1
CC(C)(C)C(=O)O,NEOPENTANOIC ACID,336.1,didier14,1
C=C(CC)CC,2-ETHYL-1-BUTENE,247.2,didier14,1
CC(C)(C)OC=O,tert-BUTYL FORMATE,264.1,didier14,1
C=C(C)CCC,2-METHYL-1-PENTENE,241.0,didier14,1
CC(C)=CC=C(C)C,"2,5-DIMETHYL-2,4-HEXADIENE",297.1,didier14,1
CC/C=C\CC,cis-3-HEXENE,245.0,didier14,1
CC/C=C\CCC,cis-3-HEPTENE,264.0,didier14,1
C/C=C\c1ccccc1,cis-1-PROPENYLBENZENE,311.0,didier14,1
,trans-2-PHENYLBUTENE-2,320.0,didier14,1
,cis-2-PHENYLBUTENE-2,335.0,didier14,1
C/C=C\CCC,cis-2-HEXENE,247.0,didier14,1
CC(OC=O)c1ccccc1,alpha-METHYLBENZYL ALCOHOL FORMATE,349.0,didier14,1
CCCCCCC(C)C=O,2-METHYL OCTANAL,328.0,didier14,1
CC(C)COC(C)C,ISOPROPYL ISOBUTYL ETHER,268.0,didier14,1
CCC(C)C,ISOPENTANE,217.2,didier14,1
C=CC(=C)C,ISOPRENE,219.3,didier14,1
CC(C)C=O,2-METHYLPROPANAL,266.0,didier14,1
C=C(C)C=O,METHACROLEIN,275.1,didier14,1
CCC(C)=O,METHYL ETHYL KETONE,267.0,didier14,1
CCC(Cl)Cl,"1,1-DICHLOROPROPANE",280.0,didier14,1
CCC(=O)O,PROPIONIC ACID,328.0,didier14,1
C=CC(=O)O,ACRYLIC ACID,324.0,didier14,1
CC(C)C(C)C,"2,3-DIMETHYLBUTANE",244.0,didier14,1
C=C(C)C(=O)O,METHACRYLIC ACID,340.0,didier14,1
CCC(C)(C)c1ccc(O)cc1,p-tert-AMYLPHENOL,384.0,didier14,1
C=C(C)C(=O)OC,METHYL METHACRYLATE,284.1,didier14,1
C=C(C)C(C)=O,METHYL ISOPROPENYL KETONE,294.1,didier14,1
C=CCCCCCCCCC,1-UNDECENE,327.0,didier14,1
C/C=C/c1ccccc1,trans-1-PROPENYLBENZENE,325.1,didier14,1
CCc1ccc(C)cc1C,4-ETHYL-m-XYLENE,330.0,didier14,1
CCc1ccc(CC)c(CC)c1,"1,2,4-TRIETHYLBENZENE",353.1,didier14,1
Cc1c(C)c(C)c(C)c(C)c1C,HEXAMETHYLBENZENE,387.0,didier14,1
CCC(CC)C(=O)O,2-ETHYL BUTYRIC ACID,360.0,didier14,1
c1ccc(SSc2ccccc2)cc1,DIPHENYL DISULFIDE,436.0,didier14,1
Cc1ccc(C(C)C)c(O)c1,THYMOL,374.1,didier14,1
,o-TOLUALCOHOL,377.1,didier14,1
CCOC(C)(C)CC,ETHYL tert-PENTYL ETHER,268.0,didier14,1
c1ccc(-c2cccc(-c3ccccc3)c2)cc1,m-TERPHENYL,464.0,didier14,1
,3-METHYL-cis-2-PENTENE,245.0,didier14,1
c1ccc(-c2ccccc2)cc1,BIPHENYL,386.0,didier14,1
CCCCC(C)C=O,2-METHYLHEXANAL,305.0,didier14,1
C=CC(=O)OCCC,n-PROPYL ACRYLATE,293.0,didier14,1
C=C(C)/C=C/C,"trans-2-METHYL-1,3-PENTADIENE",253.2,didier14,1
,p-AMINODIPHENYL,426.1,didier14,1
CCCCN(C)C,"N,N-DIMETHYL-n-BUTYLAMINE",270.1,didier14,1
CCc1cccc(C)c1C,3-ETHYL-o-XYLENE,338.1,didier14,1
CCc1cc(C)cc(C)c1,5-ETHYL-m-XYLENE,326.0,didier14,1
CCc1ccc(C)c(C)c1,4-ETHYL-o-XYLENE,331.0,didier14,1
CC(C=O)c1ccccc1,2-PHENYLPROPIONALDEHYDE,342.0,didier14,1
CCC(O)c1ccccc1,1-PHENYL-1-PROPANOL,363.1,didier14,1
COC(=O)c1ccccc1,METHYL BENZOATE,355.1,didier14,1
CCOC(=O)c1ccccc1,ETHYL BENZOATE,357.1,didier14,1
Cc1ccccc1Cl,o-CHLOROTOLUENE,324.0,didier14,1
Cc1ccc(O)cc1C,"3,4-XYLENOL",376.0,didier14,1
C=CCOC(=O)C(=C)C,ALLYL METHACRYLATE,306.1,didier14,1
CCC(C)CC,3-METHYLPENTANE,241.0,didier14,1
CCC(C)C=O,2-METHYLBUTYRALDEHYDE,271.0,didier14,1
C=CC(=O)OC,METHYL ACRYLATE,270.0,didier14,1
C=C(C)C(=O)OCC,ETHYL METHACRYLATE,293.1,didier14,1
CC(C)COC(=O)C(C)C,ISOBUTYL ISOBUTYRATE,311.1,didier14,1
C=C(C)C(=O)OCC(C)C,ISOBUTYL METHACRYLATE,314.1,didier14,1
C=C(C)C(=O)OCCCC,n-BUTYL METHACRYLATE,322.0,didier14,1
ClC(Cl)(Cl)c1ccccc1,BENZOTRICHLORIDE,354.0,didier14,1
CC(C)(C)c1ccc(O)cc1,p-tert-BUTYLPHENOL,386.0,didier14,1
CC(C)c1ccccc1,CUMENE,304.1,didier14,1
C=C(C)c1ccccc1,alpha-METHYLSTYRENE,313.1,didier14,1
CC(=O)c1ccccc1,ACETOPHENONE,355.4,didier14,1
,BENZYL DICHLORIDE,353.0,didier14,1
O=C(Cl)c1ccccc1,BENZOYL CHLORIDE,345.0,didier14,1
CC(C)c1cccc(C(C)C)c1,m-DIISOPROPYLBENZENE,349.8,didier14,1
COC(=O)c1ccc(C)cc1,METHYL para-TOLUATE,363.7,didier14,1
Cc1ccc(C(C)C)cc1,p-CYMENE,320.0,didier14,1
O=[N+]([O-])c1ccc(Cl)cc1,p-CHLORONITROBENZENE,400.1,didier14,1
Nc1ccc([N+](=O)[O-])cc1,p-NITROANILINE,472.1,didier14,1
O=[N+]([O-])c1ccc([N+](=O)[O-])cc1,p-DINITROBENZENE,433.0,didier14,1
NC1CCCC1,CYCLOPENTYLAMINE,290.1,didier14,1
CCc1ccccc1,ETHYLBENZENE,288.1,didier14,1