compound,flashpoint,pure substance,smiles,source
CETYL METHACRYLATE,452.0,1.0,C=C(C)C(=O)OCCCCCCCCCCCCCCCC,didier14
NONYLPHENOL,411.0,1.0,CCCCCCCCCc1ccccc1O,didier14
3-ETHYL HEPTANAL,328.0,1.0,CCCCC(CC)CC=O,didier14
4-HYDROXYSTYRENE,377.0,1.0,C=Cc1ccc(O)cc1,didier14
8-METHYL-1-NONENE,316.0,1.0,C=CCCCCCC(C)C,didier14
DI-n-OCTYL SULFIDE,428.0,1.0,CCCCCCCCSCCCCCCCC,didier14
2-ETHYL-m-XYLENE,331.0,1.0,CCc1c(C)cccc1C,didier14
PYRIMIDINE,304.1,1.0,c1cncnc1,didier14
2-METHYL-1-NONENE,315.0,1.0,C=C(C)CCCCCCC,didier14
sec-BUTYL ACRYLATE,299.6,1.0,C=CC(=O)OC(C)CC,didier14
2-METHYLOCTANOIC ACID,391.0,1.0,CCCCCCC(C)C(=O)O,didier14
ETHYL PROPYL DISULFIDE,324.0,1.0,CCCSSCC,didier14
1-METHYL-3-HYDROXY-6-ISOPROPYL BENZENE,378.0,1.0,Cc1cc(O)ccc1C(C)C,didier14
1-METHYL-3-HYDROXY-5-ISOPROPYL BENZENE,383.1,1.0,Cc1cc(O)cc(C(C)C)c1,didier14
2-METHYL-1-TRIDECANOL,422.0,1.0,CCCCCCCCCCCC(C)CO,didier14
3-(METHYLMERCAPTO)PROPANAL,334.1,1.0,CSCCC=O,didier14
sec-BUTYL-tert-BUTYL ETHER,276.0,1.0,CCC(C)OC(C)(C)C,didier14
ISOBUTYL-tert-BUTYL ETHER,276.0,1.0,CC(C)COC(C)(C)C,didier14
VINYL PIVALATE,282.1,1.0,C=COC(=O)C(C)(C)C,didier14
3-ETHYL-1-HEXENE,274.0,1.0,C=CC(CC)CCC,didier14
2-ETHYL-1-PENTENE,263.0,1.0,C=C(CC)CCC,didier14
1-EICOSENE,440.0,1.0,C=CCCCCCCCCCCCCCCCCCC,didier14
p-ETHYLSTYRENE,334.0,1.0,C=Cc1ccc(CC)cc1,didier14
5-METHYL-1-HEXENE,257.0,1.0,C=CCCC(C)C,didier14
3-ETHYL-1-HEPTANOL,363.0,1.0,CCCCC(CC)CCO,didier14
DIETHYL SULFIDE,263.1,1.0,CCSCC,didier14
1-HEXADECANOL,427.1,1.0,CCCCCCCCCCCCCCCCO,didier14
ETHYL n-OCTYL SULFIDE,366.0,1.0,CCCCCCCCSCC,didier14
"N,N-DIETHYLHYDROXYLAMINE",318.1,1.0,CCN(O)CC,didier14
4-METHYL-1-HEXENE,258.0,1.0,C=CCC(C)CC,didier14
4-METHYL-1-OCTANOL,358.0,1.0,CCCCC(C)CCCO,didier14
6-METHYL-1-OCTANOL,360.0,1.0,CCC(C)CCCCCO,didier14
METHYL n-PROPYL SULFIDE,270.0,1.0,CCCSC,didier14
"1,2,3,5-TETRAETHYLBENZENE",376.0,1.0,CCc1cc(CC)c(CC)c(CC)c1,didier14
2-BUTYL-OCTAN-1-OL,382.1,1.0,CCCCCCC(CO)CCCC,didier14
"2,4-DIMETHYLOCTANE",304.0,1.0,CCCCC(C)CC(C)C,didier14
3-ETHYL-1-PENTENE,256.0,1.0,C=CC(CC)CC,didier14
trans-2-HEXENE,246.0,1.0,C/C=C/CCC,didier14
"1,2,3-TRIETHYLBENZENE",352.0,1.0,CCc1cccc(CC)c1CC,didier14
trans-2-EICOSENE,420.0,1.0,C/C=C/CCCCCCCCCCCCCCCCC,didier14
"2,2,4,4,6,8,8-HEPTAMETHYLNONANE",368.1,1.0,CC(CC(C)(C)C)CC(C)(C)CC(C)(C)C,didier14
n-OCTADECYLBENZENE,480.0,1.0,CCCCCCCCCCCCCCCCCCc1ccccc1,didier14
4-NONANONE,335.0,1.0,CCCCCC(=O)CCC,didier14
2-METHYLHEXANOIC ACID,375.0,1.0,CCCCC(C)C(=O)O,didier14
2-METHYL-1-OCTENE,296.0,1.0,C=C(C)CCCCCC,didier14
NEOPENTANE,201.0,1.0,CC(C)(C)C,didier14
"2,2,3-TRIMETHYLBUTANE",249.0,1.0,CC(C)C(C)(C)C,didier14
6-METHYL-1-HEPTENE,276.0,1.0,C=CCCCC(C)C,didier14
cis-CROTONIC ACID,352.0,1.0,C/C=C\C(=O)O,didier14
n-HEPTADECANOIC ACID,469.0,1.0,CCCCCCCCCCCCCCCCC(=O)O,didier14
n-BUTYL NONANOATE,361.0,1.0,CCCCCCCCC(=O)OCCCC,didier14
n-EICOSANIC ACID,490.0,1.0,CCCCCCCCCCCCCCCCCCCC(=O)O,didier14
tert-BUTYL CHLORIDE,268.1,1.0,CC(C)(C)Cl,didier14
sec-BUTYL MERCAPTAN,250.2,1.0,CCC(C)S,didier14
"2,3-DIMETHYL-1,3-BUTADIENE",251.2,1.0,C=C(C)C(=C)C,didier14
1-(4-ETHYLPHENYL)-2-(4-ETHYLPHENYL)ETHANE,409.0,1.0,CCc1ccc(CCc2ccc(CC)cc2)cc1,didier14
2-BUTYL-NONAN-1-OL,404.0,1.0,CCCCCCCC(CO)CCCC,didier14
"cis,trans-2,4-HEXADIENE",266.1,1.0,C/C=C\C=C\C,didier14
"trans,trans-2,4-HEXADIENE",266.1,1.0,C/C=C/C=C/C,didier14
TRIPHENYLMETHANE,449.0,1.0,c1ccc(C(c2ccccc2)c2ccccc2)cc1,didier14
"1,2,3,5-TETRAMETHYLBENZENE",336.5,1.0,Cc1cc(C)c(C)c(C)c1,didier14
o-CYMENE,326.1,1.0,Cc1ccccc1C(C)C,didier14
o-TOLUALDEHYDE,340.1,1.0,Cc1ccccc1C=O,didier14
UNDECYL MERCAPTAN,381.0,1.0,CCCCCCCCCCCS,didier14
m-CYMENE,323.1,1.0,Cc1cccc(C(C)C)c1,didier14
ISOBUTYLBENZENE,325.1,1.0,CC(C)Cc1ccccc1,didier14
BENZYL ETHYL ETHER,332.0,1.0,CCOCc1ccccc1,didier14
PROPYL CHLORIDE,255.4,1.0,CCCCl,didier14
METHYL ETHYL ETHER,236.0,1.0,CCOC,didier14
"2,2,4-TRIMETHYLPENTANE",261.0,1.0,CC(C)CC(C)(C)C,didier14
tert-BUTYL ACETATE,287.2,1.0,CC(=O)OC(C)(C)C,didier14
ETHYL CHLOROFORMATE,275.1,1.0,CCOC(=O)Cl,didier14
DIISOPENTYLSULFIDE,352.0,1.0,CC(C)CCSCCC(C)C,didier14
DI-n-BUTYL SULFIDE,331.0,1.0,CCCCSCCCC,didier14
n-TETRADECANOIC ACID,446.0,1.0,CCCCCCCCCCCCCC(=O)O,didier14
n-DECYL FORMATE,367.0,1.0,CCCCCCCCCCOC=O,didier14
n-NONYL FORMATE,353.0,1.0,CCCCCCCCCOC=O,didier14
8-METHYL-1-NONANOL,377.6,1.0,CC(C)CCCCCCCO,didier14
METHYL n-PROPYL ETHER,232.0,1.0,CCCOC,didier14
2-CHLOROPROPENE,239.2,1.0,C=C(C)Cl,didier14
"3,3-DIMETHYLPENTANE",254.0,1.0,CCC(C)(C)CC,didier14
"3,3-DIMETHYLHEXANE",272.0,1.0,CCCC(C)(C)CC,didier14
2-METHYL-1-BUTENE,221.0,1.0,C=C(C)CC,didier14
"2,3-DIMETHYL-1-BUTENE",255.2,1.0,C=C(C)C(C)C,didier14
"2,3-DIMETHYLPENTANE",258.0,1.0,CCC(C)C(C)C,didier14
n-HEXADECANOIC ACID,461.0,1.0,CCCCCCCCCCCCCCCC(=O)O,didier14
ETHYL n-HEXYL ETHER,303.0,1.0,CCCCCCOCC,didier14
o-ETHYLANILINE,364.1,1.0,CCc1ccccc1N,didier14
"2,6-DIETHYLANILINE",396.1,1.0,CCc1cccc(CC)c1N,didier14
"2,3-DIMETHYLHEXANE",278.5,1.0,CCCC(C)C(C)C,didier14
tert-BUTYL METHACRYLATE,300.1,1.0,C=C(C)C(=O)OC(C)(C)C,didier14
TRIPHENYLETHYLENE,474.0,1.0,C(=C(c1ccccc1)c1ccccc1)c1ccccc1,didier14
3-METHYLHEXANE,269.0,1.0,CCCC(C)CC,didier14
3-HEXANONE,287.1,1.0,CCCC(=O)CC,didier14
sec-BUTYL FORMATE,274.0,1.0,CCC(C)OC=O,didier14
4-OCTANONE,318.1,1.0,CCCCC(=O)CCC,didier14
cis-2-BUTENE,203.0,1.0,C/C=C\C,didier14
"2,2-DIMETHYLPENTANE",258.1,1.0,CCCC(C)(C)C,didier14
"2,2-DIMETHYLHEXANE",269.0,1.0,CCCCC(C)(C)C,didier14
3-METHYLBUTYRALDEHYDE,268.0,1.0,CC(C)CC=O,didier14
n-BUTYL VALERATE,336.0,1.0,CCCCOC(=O)CCCC,didier14
2-METHYLHEXANE,250.0,1.0,CCCCC(C)C,didier14
"1,4-PENTADIENE",218.0,1.0,C=CCC=C,didier14
"1,5-HEXADIENE",227.2,1.0,C=CCCC=C,didier14
"1,4-HEXADIENE",248.2,1.0,C=CCC=CC,didier14
n-BUTYL FORMATE,291.0,1.0,CCCCOC=O,didier14
DIALLYL SULFIDE,319.1,1.0,C=CCSCC=C,didier14
n-OCTADECANE,438.1,1.0,CCCCCCCCCCCCCCCCCC,didier14
2-METHYL-2-AMINOBUTANE,257.0,1.0,CCC(C)(C)N,didier14
"2,3,3-TRIMETHYL-1-BUTENE",256.1,1.0,C=C(C)C(C)(C)C,didier14
"2,2,3,3-TETRAMETHYLBUTANE",278.0,1.0,CC(C)(C)C(C)(C)C,didier14
METHYL ISOPROPYL ETHER,225.0,1.0,COC(C)C,didier14
p-CUMYLPHENOL,433.0,1.0,CC(C)(c1ccccc1)c1ccc(O)cc1,didier14
2-PHENYLETHANOL,369.0,1.0,OCCc1ccccc1,didier14
LINOLEIC ACID,467.0,1.0,CCCCC/C=C\C/C=C\CCCCCCCC(=O)O,didier14
PENTAETHYLBENZENE,393.0,1.0,CCc1cc(CC)c(CC)c(CC)c1CC,didier14
2-METHYL-3-ETHYLPENTANE,275.0,1.0,CCC(CC)C(C)C,didier14
o-METHYLSTYRENE,320.1,1.0,C=Cc1ccccc1C,didier14
"1,1-DIPHENYLETHANE",402.0,1.0,CC(c1ccccc1)c1ccccc1,didier14
DI-tert-BUTYL ETHER,270.0,1.0,CC(C)(C)OC(C)(C)C,didier14
"N,N-DIETHYLMETHYLAMINE",250.0,1.0,CCN(C)CC,didier14
3-ETHYLPENTANE,261.0,1.0,CCC(CC)CC,didier14
2-PHENYL-2-PROPANOL,360.1,1.0,CC(C)(O)c1ccccc1,didier14
"1,2,3-TRIMETHYL-4-ETHYLBENZENE",346.0,1.0,CCc1ccc(C)c(C)c1C,didier14
"1,2,4-TRIMETHYL-3-ETHYLBENZENE",346.0,1.0,CCc1c(C)ccc(C)c1C,didier14
m-ETHYLPHENOL,367.1,1.0,CCc1cccc(O)c1,didier14
m-TOLUALDEHYDE,351.1,1.0,Cc1cccc(C=O)c1,didier14
TRIAMYLAMINE,376.0,1.0,CCCCCN(CCCCC)CCCCC,didier14
p-METHYLSTYRENE,319.0,1.0,C=Cc1ccc(C)cc1,didier14
2-METHYL-2-PENTENAL,304.1,1.0,CCC=C(C)C=O,didier14
2-METHYL-1-HEXANOL,333.0,1.0,CCCCC(C)CO,didier14
ETHYL ISOAMYL KETONE,318.0,1.0,CCC(=O)CCC(C)C,didier14
trans-2-BUTENE,201.0,1.0,C/C=C/C,didier14
DIMETHYL DISULFIDE,280.0,1.0,CSSC,didier14
2-METHYL-2-PENTENE,246.0,1.0,CCC=C(C)C,didier14
METHYL ISOBUTYL ETHER,243.0,1.0,COCC(C)C,didier14
ETHYL ISOPROPYL ETHER,228.0,1.0,CCOC(C)C,didier14
ETHYL ISOBUTYL ETHER,259.0,1.0,CCOCC(C)C,didier14
cis-2-PENTENE,226.0,1.0,C/C=C\CC,didier14
"2,5-DIMETHYL-1,5-HEXADIENE",280.0,1.0,C=C(C)CCC(=C)C,didier14
5-METHYL-1-HEXANOL,340.0,1.0,CC(C)CCCCO,didier14
METHYL n-BUTYL ETHER,263.1,1.0,CCCCOC,didier14
DIISOBUTYL ETHER,281.1,1.0,CC(C)COCC(C)C,didier14
METHYL n-PENTYL ETHER,271.0,1.0,CCCCCOC,didier14
n-BUTYL ETHYL ETHER,277.1,1.0,CCCCOCC,didier14
2-NONANOL,355.4,1.0,CCCCCCCC(C)O,didier14
DI-n-PROPYL DISULFIDE,339.1,1.0,CCCSSCCC,didier14
n-HEXYL FORMATE,317.0,1.0,CCCCCCOC=O,didier14
n-PENTADECANE,387.0,1.0,CCCCCCCCCCCCCCC,didier14
1-PENTADECANOL,424.0,1.0,CCCCCCCCCCCCCCCO,didier14
DI-n-OCTYL ETHER,385.1,1.0,CCCCCCCCOCCCCCCCC,didier14
n-HENEICOSANE,450.0,1.0,CCCCCCCCCCCCCCCCCCCCC,didier14
1-EICOSANOL,467.0,1.0,CCCCCCCCCCCCCCCCCCCCO,didier14
n-DOCOSANE,458.0,1.0,CCCCCCCCCCCCCCCCCCCCCC,didier14
n-PENTACOSANE,475.0,1.0,CCCCCCCCCCCCCCCCCCCCCCCCC,didier14
n-HEXACOSANE,475.0,1.0,CCCCCCCCCCCCCCCCCCCCCCCCCC,didier14
TETRAPHENYLMETHANE,525.0,1.0,c1ccc(C(c2ccccc2)(c2ccccc2)c2ccccc2)cc1,didier14
"1,1,2,2-TETRAPHENYLETHANE",448.0,1.0,c1ccc(C(c2ccccc2)C(c2ccccc2)c2ccccc2)cc1,didier14
TETRAPHENYLETHYLENE,538.0,1.0,c1ccc(C(=C(c2ccccc2)c2ccccc2)c2ccccc2)cc1,didier14
4-ISOBUTYLSTYRENE,373.0,1.0,C=Cc1ccc(CC(C)C)cc1,didier14
tert-BUTYL ETHYL ETHER,254.0,1.0,CCOC(C)(C)C,didier14
n-PENTYL FORMATE,300.0,1.0,CCCCCOC=O,didier14
n-TRIDECANOIC ACID,438.0,1.0,CCCCCCCCCCCCC(=O)O,didier14
n-TRICOSANE,467.0,1.0,CCCCCCCCCCCCCCCCCCCCCCC,didier14
FORMIC ACID,321.1,1.0,O=CO,didier14
n-PROPYL ISOBUTYRATE,302.0,1.0,CCCOC(=O)C(C)C,didier14
cis-STILBENE,394.0,1.0,C(=C\c1ccccc1)\c1ccccc1,didier14
2-ETHYL-2-HEXENAL,341.1,1.0,CCCC=C(C=O)CC,didier14
n-NONADECANOIC ACID,483.0,1.0,CCCCCCCCCCCCCCCCCCC(=O)O,didier14
n-TETRACOSANE,475.0,1.0,CCCCCCCCCCCCCCCCCCCCCCCC,didier14
ISOPENTYL ISOVALERATE,345.0,1.0,CC(C)CCOC(=O)CC(C)C,didier14
sec-BUTENYL ACETATE,288.0,1.0,C=C(CC)OC(C)=O,didier14
n-UNDECYLBENZENE,417.0,1.0,CCCCCCCCCCCc1ccccc1,didier14
4-METHYL-trans-2-PENTENE,239.0,1.0,C/C=C/C(C)C,didier14
ACETONE,255.0,1.0,CC(C)=O,didier14
1-HEPTADECENE,408.0,1.0,C=CCCCCCCCCCCCCCCC,didier14
METHYL sec-BUTYL ETHER,244.0,1.0,CCC(C)OC,didier14
DI-sec-BUTYL ETHER,288.0,1.0,CCC(C)OC(C)CC,didier14
ISOPROPYL ACRYLATE,281.0,1.0,C=CC(=O)OC(C)C,didier14
4-METHYL-1-PENTENE,234.0,1.0,C=CCC(C)C,didier14
4-METHYL-cis-2-PENTENE,237.0,1.0,C/C=C\C(C)C,didier14
VINYL FORMATE,254.0,1.0,C=COC=O,didier14
DI-n-PENTYL ETHER,330.1,1.0,CCCCCOCCCCC,didier14
1-PHENYL-2-PROPANOL,358.1,1.0,CC(O)Cc1ccccc1,didier14
PENTAMETHYLBENZENE,364.1,1.0,Cc1cc(C)c(C)c(C)c1C,didier14
"2,3-DIMETHYLOCTANE",309.0,1.0,CCCCCC(C)C(C)C,didier14
trans-2-DODECENE,351.0,1.0,C/C=C/CCCCCCCCC,didier14
cis-2-DODECENE,351.0,1.0,C/C=C\CCCCCCCCC,didier14
UNDECYLAMINE,365.1,1.0,CCCCCCCCCCCN,didier14
p-tert-BUTYL ETHYLBENZENE,343.0,1.0,CCc1ccc(C(C)(C)C)cc1,didier14
1-(4-ETHYLPHENYL)-2-PHENYLETHANE,404.0,1.0,CCc1ccc(CCc2ccccc2)cc1,didier14
trans-2-PENTADECENE,396.0,1.0,C/C=C/CCCCCCCCCCCC,didier14
METHYL CHLORIDE,205.0,1.0,CCl,didier14
METHYL MERCAPTAN,217.0,1.0,CS,didier14
ETHYL CHLORIDE,223.2,1.0,CCCl,didier14
VINYL CHLORIDE,195.0,1.0,C=CCl,didier14
ETHYLAMINE,228.0,1.0,CCN,didier14
ETHYL MERCAPTAN,225.0,1.0,CCS,didier14
m-ETHYLSTYRENE,333.0,1.0,C=Cc1cccc(CC)c1,didier14
ISOBUTANE,190.2,1.0,CC(C)C,didier14
ACETYL CHLORIDE,278.0,1.0,CC(=O)Cl,didier14
o-ETHYLSTYRENE,331.0,1.0,C=Cc1ccccc1CC,didier14
tert-BUTYLAMINE,264.1,1.0,CC(C)(C)N,didier14
"2,2-DIMETHYLBUTANE",225.0,1.0,CCC(C)(C)C,didier14
"2,2-DIMETHYL-1-PROPANOL",300.0,1.0,CC(C)(C)CO,didier14
NEOPENTANOIC ACID,336.1,1.0,CC(C)(C)C(=O)O,didier14
2-ETHYL-1-BUTENE,247.2,1.0,C=C(CC)CC,didier14
tert-BUTYL FORMATE,264.1,1.0,CC(C)(C)OC=O,didier14
2-METHYL-1-PENTENE,241.0,1.0,C=C(C)CCC,didier14
"2,5-DIMETHYL-2,4-HEXADIENE",297.1,1.0,CC(C)=CC=C(C)C,didier14
cis-3-HEXENE,245.0,1.0,CC/C=C\CC,didier14
cis-3-HEPTENE,264.0,1.0,CC/C=C\CCC,didier14
cis-1-PROPENYLBENZENE,311.0,1.0,C/C=C\c1ccccc1,didier14
cis-2-HEXENE,247.0,1.0,C/C=C\CCC,didier14
alpha-METHYLBENZYL ALCOHOL FORMATE,349.0,1.0,CC(OC=O)c1ccccc1,didier14
2-METHYL OCTANAL,328.0,1.0,CCCCCCC(C)C=O,didier14
ISOPROPYL ISOBUTYL ETHER,268.0,1.0,CC(C)COC(C)C,didier14
ISOPENTANE,217.2,1.0,CCC(C)C,didier14
ISOPRENE,219.3,1.0,C=CC(=C)C,didier14
2-METHYLPROPANAL,266.0,1.0,CC(C)C=O,didier14
METHACROLEIN,275.1,1.0,C=C(C)C=O,didier14
METHYL ETHYL KETONE,267.0,1.0,CCC(C)=O,didier14
"1,1-DICHLOROPROPANE",280.0,1.0,CCC(Cl)Cl,didier14
PROPIONIC ACID,328.0,1.0,CCC(=O)O,didier14
ACRYLIC ACID,324.0,1.0,C=CC(=O)O,didier14
"2,3-DIMETHYLBUTANE",244.0,1.0,CC(C)C(C)C,didier14
METHACRYLIC ACID,340.0,1.0,C=C(C)C(=O)O,didier14
p-tert-AMYLPHENOL,384.0,1.0,CCC(C)(C)c1ccc(O)cc1,didier14
METHYL METHACRYLATE,284.1,1.0,C=C(C)C(=O)OC,didier14
METHYL ISOPROPENYL KETONE,294.1,1.0,C=C(C)C(C)=O,didier14
1-UNDECENE,327.0,1.0,C=CCCCCCCCCC,didier14
trans-1-PROPENYLBENZENE,325.1,1.0,C/C=C/c1ccccc1,didier14
4-ETHYL-m-XYLENE,330.0,1.0,CCc1ccc(C)cc1C,didier14
"1,2,4-TRIETHYLBENZENE",353.1,1.0,CCc1ccc(CC)c(CC)c1,didier14
HEXAMETHYLBENZENE,387.0,1.0,Cc1c(C)c(C)c(C)c(C)c1C,didier14
2-ETHYL BUTYRIC ACID,360.0,1.0,CCC(CC)C(=O)O,didier14
DIPHENYL DISULFIDE,436.0,1.0,c1ccc(SSc2ccccc2)cc1,didier14
THYMOL,374.1,1.0,Cc1ccc(C(C)C)c(O)c1,didier14
ETHYL tert-PENTYL ETHER,268.0,1.0,CCOC(C)(C)CC,didier14
m-TERPHENYL,464.0,1.0,c1ccc(-c2cccc(-c3ccccc3)c2)cc1,didier14
BIPHENYL,386.0,1.0,c1ccc(-c2ccccc2)cc1,didier14
2-METHYLHEXANAL,305.0,1.0,CCCCC(C)C=O,didier14
n-PROPYL ACRYLATE,293.0,1.0,C=CC(=O)OCCC,didier14
"trans-2-METHYL-1,3-PENTADIENE",253.2,1.0,C=C(C)/C=C/C,didier14
"N,N-DIMETHYL-n-BUTYLAMINE",270.1,1.0,CCCCN(C)C,didier14
3-ETHYL-o-XYLENE,338.1,1.0,CCc1cccc(C)c1C,didier14
5-ETHYL-m-XYLENE,326.0,1.0,CCc1cc(C)cc(C)c1,didier14
4-ETHYL-o-XYLENE,331.0,1.0,CCc1ccc(C)c(C)c1,didier14
2-PHENYLPROPIONALDEHYDE,342.0,1.0,CC(C=O)c1ccccc1,didier14
1-PHENYL-1-PROPANOL,363.1,1.0,CCC(O)c1ccccc1,didier14
METHYL BENZOATE,355.1,1.0,COC(=O)c1ccccc1,didier14
ETHYL BENZOATE,357.1,1.0,CCOC(=O)c1ccccc1,didier14
o-CHLOROTOLUENE,324.0,1.0,Cc1ccccc1Cl,didier14
"3,4-XYLENOL",376.0,1.0,Cc1ccc(O)cc1C,didier14
ALLYL METHACRYLATE,306.1,1.0,C=CCOC(=O)C(=C)C,didier14
3-METHYLPENTANE,241.0,1.0,CCC(C)CC,didier14
2-METHYLBUTYRALDEHYDE,271.0,1.0,CCC(C)C=O,didier14
METHYL ACRYLATE,270.0,1.0,C=CC(=O)OC,didier14
ETHYL METHACRYLATE,293.1,1.0,C=C(C)C(=O)OCC,didier14
ISOBUTYL ISOBUTYRATE,311.1,1.0,CC(C)COC(=O)C(C)C,didier14
ISOBUTYL METHACRYLATE,314.1,1.0,C=C(C)C(=O)OCC(C)C,didier14
n-BUTYL METHACRYLATE,322.0,1.0,C=C(C)C(=O)OCCCC,didier14
BENZOTRICHLORIDE,354.0,1.0,ClC(Cl)(Cl)c1ccccc1,didier14
p-tert-BUTYLPHENOL,386.0,1.0,CC(C)(C)c1ccc(O)cc1,didier14
CUMENE,304.1,1.0,CC(C)c1ccccc1,didier14
alpha-METHYLSTYRENE,313.1,1.0,C=C(C)c1ccccc1,didier14
ACETOPHENONE,355.4,1.0,CC(=O)c1ccccc1,didier14
BENZOYL CHLORIDE,345.0,1.0,O=C(Cl)c1ccccc1,didier14
m-DIISOPROPYLBENZENE,349.8,1.0,CC(C)c1cccc(C(C)C)c1,didier14
METHYL para-TOLUATE,363.7,1.0,COC(=O)c1ccc(C)cc1,didier14
p-CYMENE,320.0,1.0,Cc1ccc(C(C)C)cc1,didier14
p-CHLORONITROBENZENE,400.1,1.0,O=[N+]([O-])c1ccc(Cl)cc1,didier14
p-NITROANILINE,472.1,1.0,Nc1ccc([N+](=O)[O-])cc1,didier14
p-DINITROBENZENE,433.0,1.0,O=[N+]([O-])c1ccc([N+](=O)[O-])cc1,didier14
CYCLOPENTYLAMINE,290.1,1.0,NC1CCCC1,didier14
ETHYLBENZENE,288.1,1.0,CCc1ccccc1,didier14
N-METHYLCYCLOHEXYLAMINE,302.1,1.0,CNC1CCCCC1,didier14
N-METHYLANILINE,351.0,1.0,CNc1ccccc1,didier14
PHENYLHYDRAZINE,362.1,1.0,NNc1ccccc1,didier14
DICYCLOHEXYLAMINE,377.0,1.0,C1CCC(NC2CCCCC2)CC1,didier14
DIPHENYL ETHER,369.0,1.0,c1ccc(Oc2ccccc2)cc1,didier14
DI(2-ETHYLHEXYL)ADIPATE,466.0,1.0,CCCCC(CC)COC(=O)CCCCC(=O)OCC(CC)CCCC,didier14
n-PROPYLBENZENE,303.1,1.0,CCCc1ccccc1,didier14
N-ETHYLANILINE,358.1,1.0,CCNc1ccccc1,didier14
ACETANILIDE,446.1,1.0,CC(=O)Nc1ccccc1,didier14
4-METHOXYPHENYLACETIC ACID,437.0,1.0,COc1ccc(CC(=O)O)cc1,didier14
2-ETHYL-1-HEXANOL,346.0,1.0,CCCCC(CC)CO,didier14
p-DIETHYLBENZENE,329.1,1.0,CCc1ccc(CC)cc1,didier14
"1,4-CYCLOHEXANEDIMETHANOL",434.1,1.0,OCC1CCC(CO)CC1,didier14
2-METHYL-1-PENTANOL,319.0,1.0,CCCC(C)CO,didier14
METHYL CYANOACETATE,383.1,1.0,COC(=O)CC#N,didier14
ETHYL PROPIONATE,285.0,1.0,CCOC(=O)CC,didier14
ETHYLCHLOROACETATE,311.0,1.0,CCOC(=O)CCl,didier14
METHYL ACETOACETATE,343.0,1.0,COC(=O)CC(C)=O,didier14
DIETHYL MALONATE,366.1,1.0,CCOC(=O)CC(=O)OCC,didier14
ETHYL n-BUTYRATE,297.1,1.0,CCCC(=O)OCC,didier14
ETHYL CYANOACETATE,383.1,1.0,CCOC(=O)CC#N,didier14
METHYL DIETHANOLAMINE,399.8,1.0,CN(CCO)CCO,didier14
n-PROPYL n-BUTYRATE,305.0,1.0,CCCOC(=O)CCC,didier14
"2,4-XYLENOL",368.1,1.0,Cc1ccc(O)c(C)c1,didier14
DIBUTYL MALEATE,413.0,1.0,CCCCOC(=O)/C=C\C(=O)OCCCC,didier14
3-HEPTANONE,310.1,1.0,CCCCC(=O)CC,didier14
n-PROPYL PROPIONATE,292.1,1.0,CCCOC(=O)CC,didier14
p-XYLENE,298.1,1.0,Cc1ccc(C)cc1,didier14
p-CRESOL,368.0,1.0,Cc1ccc(O)cc1,didier14
p-DICHLOROBENZENE,339.0,1.0,Clc1ccc(Cl)cc1,didier14
p-CHLOROANILINE,386.0,1.0,Nc1ccc(Cl)cc1,didier14
p-CHLOROPHENOL,389.0,1.0,Oc1ccc(Cl)cc1,didier14
p-TOLUIDINE,360.0,1.0,Cc1ccc(N)cc1,didier14
p-PHENYLENEDIAMINE,428.7,1.0,Nc1ccc(N)cc1,didier14
ISOBUTYL ACRYLATE,304.3,1.0,C=CC(=O)OCC(C)C,didier14
DIMETHYL SUCCINATE,358.1,1.0,COC(=O)CCC(=O)OC,didier14
3-METHYL-3-ETHYLPENTANE,276.0,1.0,CCC(C)(CC)CC,didier14
"3,3-DIETHYLPENTANE",294.0,1.0,CCC(CC)(CC)CC,didier14
"2,4-DIMETHYL-3-ETHYLPENTANE",288.0,1.0,CCC(C(C)C)C(C)C,didier14
"1,3-BUTADIENE",197.2,1.0,C=CC=C,didier14
n-PROPYL MERCAPTAN,253.2,1.0,CCCS,didier14
"1,2-DICHLOROETHANE",286.0,1.0,ClCCCl,didier14
2-CHLOROETHANOL,313.7,1.0,OCCCl,didier14
"2,2,4,4-TETRAMETHYLPENTANE",276.0,1.0,CC(C)(C)CC(C)(C)C,didier14
PROPIONITRILE,275.0,1.0,CCC#N,didier14
"2,2-DIMETHYLHEPTANE",297.0,1.0,CCCCCC(C)(C)C,didier14
ETHYLENEDIAMINE,306.1,1.0,NCCN,didier14
ETHYLENE GLYCOL,383.1,1.0,OCCO,didier14
"2,7-DIMETHYLOCTANE",306.0,1.0,CC(C)CCCCC(C)C,didier14
GLYOXAL,262.0,1.0,O=CC=O,didier14
CHLOROMETHYL METHYL ETHER,255.0,1.0,COCCl,didier14
HEXYLENE GLYCOL,366.0,1.0,OCCCCCCO,didier14
n-HEXYLBENZENE,353.1,1.0,CCCCCCc1ccccc1,didier14
n-HEPTYLBENZENE,368.1,1.0,CCCCCCCc1ccccc1,didier14
2-PENTANONE,280.0,1.0,CCCC(C)=O,didier14
"1,3-BUTANEDIOL",382.0,1.0,CC(O)CCO,didier14
n-BUTYRIC ACID,345.0,1.0,CCCC(=O)O,didier14
PROPYLENE GLYCOL MONOMETHYL ETHER,305.0,1.0,COCC(C)O,didier14
1-NITROPROPANE,306.1,1.0,CCC[N+](=O)[O-],didier14
METHYL ISOBUTYL KETONE,286.1,1.0,CC(=O)CC(C)C,didier14
4-METHYL-2-PENTANOL,314.0,1.0,CC(C)CC(C)O,didier14
DIISOPROPYLAMINE,266.1,1.0,CC(C)NC(C)C,didier14
DIISOPROPYL ETHER,245.0,1.0,CC(C)OC(C)C,didier14
m-XYLENE,298.1,1.0,Cc1cccc(C)c1,didier14
m-CRESOL,368.0,1.0,Cc1cccc(O)c1,didier14
m-CHLOROANILINE,378.0,1.0,Nc1cccc(Cl)c1,didier14
m-CHLOROPHENOL,364.0,1.0,Oc1cccc(Cl)c1,didier14
m-TOLUIDINE,359.1,1.0,Cc1cccc(N)c1,didier14
m-PHENYLENEDIAMINE,411.1,1.0,Nc1cccc(N)c1,didier14
"1,3-BENZENEDIOL",400.0,1.0,Oc1cccc(O)c1,didier14
"2,6-DIMETHYLPYRIDINE",306.0,1.0,Cc1cccc(C)n1,didier14
DIMETHYLMALONATE,363.1,1.0,CC(C)(C(=O)[O-])C(=O)[O-],didier14
PROPYLENE GLYCOL MONOMETHYL ETHER ACETATE,316.0,1.0,COCC(C)OC(C)=O,didier14
MESITYLENE,317.6,1.0,Cc1cc(C)cc(C)c1,didier14
DIISOBUTYL KETONE,322.1,1.0,CC(C)CC(=O)CC(C)C,didier14
METHYLCYCLOHEXANE,267.1,1.0,CC1CCCCC1,didier14
TOLUENE,277.1,1.0,Cc1ccccc1,didier14
4-METHYLPYRIDINE,329.1,1.0,Cc1ccncc1,didier14
CYCLOHEXYLAMINE,304.1,1.0,NC1CCCCC1,didier14
CYCLOHEXANOL,341.0,1.0,OC1CCCCC1,didier14
PHENOL,353.0,1.0,Oc1ccccc1,didier14
3-METHYLPYRIDINE,309.1,1.0,Cc1cccnc1,didier14
2-METHYLPYRIDINE,299.1,1.0,Cc1ccccn1,didier14
n-BUTYL n-BUTYRATE,326.5,1.0,CCCCOC(=O)CCC,didier14
DIBUTYL SEBACATE,451.1,1.0,CCCCOC(=O)CCCCCCCCC(=O)OCCCC,didier14
n-PENTANOIC ACID,358.1,1.0,CCCCC(=O)O,didier14
n-PROPYL ACETATE,288.0,1.0,CCCOC(C)=O,didier14
n-PENTANE,233.2,1.0,CCCCC,didier14
1-PENTENE,219.0,1.0,C=CCCC,didier14
n-BUTYL CHLORIDE,263.8,1.0,CCCCCl,didier14
n-BUTYRONITRILE,289.1,1.0,CCCC#N,didier14
"1,3-PROPANEDIAMINE",321.1,1.0,NCCCN,didier14
MALONONITRILE,385.1,1.0,N#CCC#N,didier14
HYDRACRYLONITRILE,383.1,1.0,N#CCCO,didier14
n-BUTYL MERCAPTAN,274.8,1.0,CCCCS,didier14
METHYLETHANOLAMINE,345.1,1.0,CC(O)CN,didier14
2-METHOXYETHANOL,312.0,1.0,COCCO,didier14
METHYLAL,255.0,1.0,COCOC,didier14
DIETHYLAMINE,234.2,1.0,CCNCC,didier14
DI-t-BUTYL PEROXIDE,291.0,1.0,CC(C)(C)OOC(C)(C)C,didier14
5-METHYL-2-HEXANONE,309.1,1.0,CC(=O)CCC(C)C,didier14
SUCCINIC ACID,489.0,1.0,O=C(O)CCC(=O)O,didier14
FUMARIC ACID,471.0,1.0,O=C(O)/C=C/C(=O)O,didier14
ISOBUTYL ACETATE,291.0,1.0,CC(=O)OCC(C)C,didier14
DIHEXYL ADIPATE,464.0,1.0,CCCCCCOC(=O)CCCCC(=O)OCCCCCC,didier14
METHYL DECANOATE,367.1,1.0,CCCCCCCCCC(=O)OC,didier14
2-HEPTANONE,312.1,1.0,CCCCCC(C)=O,didier14
n-HEXANE,251.5,1.0,CCCCCC,didier14
"1,4-DICHLOROBUTANE",313.1,1.0,ClCCCCCl,didier14
"1,4-DICHLORO-trans-2-BUTENE",326.1,1.0,ClC/C=C/CCl,didier14
n-PENTYLAMINE,272.1,1.0,CCCCCN,didier14