compound,flashpoint,pure substance,smiles,source
Cyclohexyltrichlorosilane,358.15,1.0,C1(CCCCC1)[Si](Cl)(Cl)Cl,chen14
Bis(chloromethyl)tetramethyldisiloxane,346.15,1.0,ClC[Si](O[Si](C)(C)C)(C)CCl,chen14
Propargyloxytrimethylsilane,300.15,1.0,C(C#C)O[Si](C)(C)C,chen14
Divinyldimethylsilane,281.15,1.0,C(=C)[Si](C)(C)C=C,chen14
n-Hexyltrichlorosilane,358.15,1.0,C(CCCCC)[Si](Cl)(Cl)Cl,chen14
Hexyldichlorosilane,337.15,1.0,C(CCCCC)[SiH](Cl)Cl,chen14
"1,1 -Dimethyl-1-sila-2-oxacyclohexane",287.15,1.0,C[Si]1(OCCCC1)C,chen14
Acetoxymethyltrimethylsilane,293.15,1.0,C(C)(=O)OC[Si](C)(C)C,chen14
Allyltrimethylsilane,280.15,1.0,C(C=C)[Si](C)(C)C,chen14
Triethylchlorosilane,303.15,1.0,C(C)[Si](Cl)(CC)CC,chen14
t-Butyldimethylchlorosilane,295.15,1.0,C(C)(C)(C)[Si](Cl)(C)C,chen14
3-Chloropropylmethyldimethoxysilane,318.15,1.0,ClCCC[Si](OC)(OC)C,chen14
Trimethyl-n-propoxysilane,283.15,1.0,C[Si](OCCC)(C)C,chen14
t-Butyldimethylsilanol,318.15,1.0,C(C)(C)(C)[Si](O)(C)C,chen14
Dimethyldiethoxysilane,284.15,1.0,C[Si](OCC)(OCC)C,chen14
Triethylsilane,270.15,1.0,C(C)[SiH](CC)CC,chen14
Hexylsilane,285.15,1.0,C(CCCCC)[SiH3],chen14
t-Butyld imethyl silane,251.15,1.0,C(C)(C)(C)[SiH](C)C,chen14
Bis(dimethylamino)dimethylsilane,266.15,1.0,CN(C)[Si](C)(C)N(C)C,chen14
Hexamethylcyclotrisiloxane,305.15,1.0,C[Si]1(O[Si](O[Si](O1)(C)C)(C)C)C,chen14
Hexamethyldisilthiane,299.15,1.0,C[Si](S[Si](C)(C)C)(C)C,chen14
Hexamethyldisilazane,281.15,1.0,C[Si](N[Si](C)(C)C)(C)C,chen14
Tris(dimethylamino)silane,298.15,1.0,CN(C)[SiH](N(C)C)N(C)C,chen14
Hexamethyltrisiloxane,293.15,1.0,C[Si](O[SiH2]O[Si](C)(C)C)(C)C,chen14
Phenylmethyldichlorosilane,340.15,1.0,C1(=CC=CC=C1)C[SiH](Cl)Cl,chen14
Phenylmethylchlorosilane,355.15,1.0,C1(=CC=CC=C1)C[SiH2]Cl,chen14
Methyltriacetoxysilane,358.15,1.0,C[Si](OC(C)=O)(OC(C)=O)OC(C)=O,chen14
Trivinylmethylsilane,288.15,1.0,C(=C)C(C=C)(C=C)[SiH3],chen14
Cyclohexylmethyldichlorosilane,355.15,1.0,C1(CCCCC1)C[SiH](Cl)Cl,chen14
"1-(Trimethylsiloxy)-1,3-butadiene",298.15,1.0,C[Si](OC=CC=C)(C)C,chen14
2-Chloromethyl-3-trimethylsilyl-1-propene,316.15,1.0,ClCC(=C)C[Si](C)(C)C,chen14
n-Heptyltrichlorosilane,337.15,1.0,C(CCCCCC)[Si](Cl)(Cl)Cl,chen14
n-Hexylmethyldichlorosilane,358.15,1.0,C(CCCCC)[Si](Cl)(Cl)C,chen14
Vinylmethyldiethoxysilane,289.15,1.0,C(=C)C[SiH](OCC)OCC,chen14
N-(Trimethylsilyl)morpholine,300.15,1.0,C[Si](N1CCOCC1)(C)C,chen14
t-Butoxytrimethylsilane,287.15,1.0,C(C)(C)(C)O[Si](C)(C)C,chen14
(1-Methoxy-2-propoxy)trimethylsilane,293.15,1.0,COCC(C)O[Si](C)(C)C,chen14
Methyltriethoxysilane,297.15,1.0,C[Si](OCC)(OCC)OCC,chen14
(Diethylamino)trimethylsilane,283.15,1.0,C(C)N(CC)[Si](C)(C)C,chen14
Bis(trimethylsilyl)methane,285.15,1.0,C[Si](C)(C)C[Si](C)(C)C,chen14
Heptamethyldisilazane,300.15,1.0,C[Si](N([Si](C)(C)C)C)(C)C,chen14
Bis(trimethylsiloxy)methylsilane,296.15,1.0,C[Si](OC(O[Si](C)(C)C)[SiH3])(C)C,chen14
Tetravinylsilane,291.15,1.0,C(=C)[Si](C=C)(C=C)C=C,chen14
Cyclopentadienyltrimethylsilane,302.15,1.0,C1(C=CC=C1)[Si](C)(C)C,chen14
(Cyclopentenyloxy)trimethylsilane,311.15,1.0,C1(=CCCC1)O[Si](C)(C)C,chen14
"(2,4-Pentadienyl)trimethylsilane",291.15,1.0,C(C=CC=C)[Si](C)(C)C,chen14
n-Octyltrichlorosilane,369.15,1.0,C(CCCCCCC)[Si](Cl)(Cl)Cl,chen14
n-Heptylmethyldichlorosilane,339.15,1.0,C(CCCCCC)[Si](Cl)(Cl)C,chen14
Tetramethyldivinyldisiloxane,292.15,1.0,C[Si](O[Si](C=C)(C=C)C)(C)C,chen14
Triethylacetoxysilane,314.15,1.0,C(C)C(C(=O)O[SiH3])(CC)CC,chen14
Vinyltriethoxysilane,307.15,1.0,C(=C)[Si](OCC)(OCC)OCC,chen14
"1,3-Divinyltetramethyldisilazane",307.15,1.0,C(=C)[Si](N[Si](C=C)(C)C)(C)C,chen14
Diethyldiethoxysilane,316.15,1.0,C(C)[Si](OCC)(OCC)CC,chen14
Tetraethoxysilane,323.15,1.0,C(C)O[Si](OCC)(OCC)OCC,chen14
Tetraethylsilane,305.15,1.0,C(C)[Si](CC)(CC)CC,chen14
Aminoethylaminopropyltrimethoxysilane,269.15,1.0,NCCNCCC[Si](OC)(OC)OC,chen14
Tetramethyldiethoxysiloxane,311.15,1.0,CC(C(O[Si]([O])OCC)(C)C)C,chen14
Octamethyltrisiloxane,303.15,1.0,C[Si](O[Si](O[Si](C)(C)C)(C)C)(C)C,chen14
Octamethylcyclotetrasiloxane,330.15,1.0,C[Si]1(O[Si](O[Si](O[Si](O1)(C)C)(C)C)(C)C)C,chen14
Octamethylcyclotetrasilazane,339.15,1.0,C[Si]1(N[Si](N[Si](N[Si](N1)(C)C)(C)C)(C)C)C,chen14
Tetrakisdimethylsiloxysilane,340.15,1.0,C[SiH](O[Si](O[SiH](C)C)(O[SiH](C)C)O[SiH](C)C)C,chen14
p-Chlorophenyltrimethylsilane,322.15,1.0,ClC1=CC=C(C=C1)[Si](C)(C)C,chen14
Phenyltrimethoxysilane,358.15,1.0,C1(=CC=CC=C1)[Si](OC)(OC)OC,chen14
Trimethylphenylsilane,313.15,1.0,C[Si](C1=CC=CC=C1)(C)C,chen14
Cyclohexylmethyldimethoxysilane,343.15,1.0,C1(CCCCC1)C[SiH](OC)OC,chen14
Hexyltrimethoxysilane,335.15,1.0,C(CCCCC)[Si](OC)(OC)OC,chen14
Triisopropylsilane,310.15,1.0,C(C)(C)[SiH](C(C)C)C(C)C,chen14
Tri-n-propylsilane,316.15,1.0,C(CC)[SiH](CCC)CCC,chen14
Propyltris(dimethylsiloxy)silane,323.15,1.0,C(CC)[Si](O[SiH](C)C)(O[SiH](C)C)O[SiH](C)C,chen14
Benzyltrimethylsilane,335.15,1.0,C(C1=CC=CC=C1)[Si](C)(C)C,chen14
3-Methacryloxypropyltrimethoxysilane,365.15,1.0,C(C(=C)C)(=O)OCCC[Si](OC)(OC)OC,chen14
1-Heptynyltrimethylsilane,315.15,1.0,C(#CCCCCC)[Si](C)(C)C,chen14
n-Octyldimethylchlorosilane,370.15,1.0,C(CCCCCCC)[Si](Cl)(C)C,chen14
Bis(diethylamino)dimethylsilane,308.15,1.0,C(C)N(CC)[Si](C)(C)N(CC)CC,chen14
Decamethyltetrasiloxane,335.15,1.0,C[Si](O[Si](O[Si](O[Si](C)(C)C)(C)C)(C)C)(C)C,chen14
Decamethylcyclopentasiloxane,350.15,1.0,C[Si]1(O[Si](O[Si](O[Si](O[Si](O1)(C)C)(C)C)(C)C)(C)C)C,chen14
"2-(3,4-epoxycyclohexyl)ethyltrimethoxysilane",419.15,1.0,C1(CC2C(CC1)O2)CC[Si](OC)(OC)OC,chen14
n-Decylmethyldichlorosilane,393.15,1.0,C(CCCCCCCCC)[Si](Cl)(Cl)C,chen14
Vinyltriethylsilane,318.15,1.0,C(=C)[Si](CC)(CC)CC,chen14
Diphenyldichlorosilane,415.15,1.0,C1(=CC=CC=C1)[Si](Cl)(Cl)C1=CC=CC=C1,chen14
Phenyltriethoxysilane,393.15,1.0,C1(=CC=CC=C1)[Si](OCC)(OCC)OCC,chen14
Diphenylsilane,371.15,1.0,C1(=CC=CC=C1)[SiH2]C1=CC=CC=C1,chen14
"2,4,6,8-Tetravinyl-2,4,6,8-tetramethylcyclotetrasiloxane",385.15,1.0,C(=C)[Si]1(O[Si](O[Si](O[Si](O1)(C)C=C)(C)C=C)(C)C=C)C,chen14
n-Dodecyltrichlorosilane,435.15,1.0,C(CCCCCCCCCCC)[Si](Cl)(Cl)Cl,chen14
Tetra-n-propoxysilane,368.15,1.0,C(CC)O[Si](OCCC)(OCCC)OCCC,chen14
Hexaethyldisiloxane,349.15,1.0,C(C)[Si](O[Si](CC)(CC)CC)(CC)CC,chen14
Dodecamethylpentasiloxane,352.15,1.0,C[Si](O[Si](O[Si](O[Si](O[Si](C)(C)C)(C)C)(C)C)(C)C)(C)C,chen14
Dodecamethylcyclohexasiloxane,366.15,1.0,C[Si]1(O[Si](O[Si](O[Si](O[Si](O[Si](O1)(C)C)(C)C)(C)C)(C)C)(C)C)C,chen14
Methyldiphenylchlorosilane,411.15,1.0,C[Si](Cl)(C1=CC=CC=C1)C1=CC=CC=C1,chen14
n-Dodecylmethyldichlorosilane,416.15,1.0,C(CCCCCCCCCCC)[Si](Cl)(Cl)C,chen14
Diphenyldimethoxysilane,394.15,1.0,C1(=CC=CC=C1)[Si](OC)(OC)C1=CC=CC=C1,chen14
Octyltriethoxysilane,373.15,1.0,C(CCCCCCC)[Si](OCC)(OCC)OCC,chen14
Tetradecamethylhexasiloxane,375.15,1.0,C[Si](O[Si](O[Si](O[Si](O[Si](O[Si](C)(C)C)(C)C)(C)C)(C)C)(C)C)(C)C,chen14
Hexadecamethylheptasiloxane,406.15,1.0,C[Si](O[Si](O[Si](O[Si](O[Si](O[Si](O[Si](C)(C)C)(C)C)(C)C)(C)C)(C)C)(C)C)(C)C,chen14
n-Octadecyltrichlorosilane,466.15,1.0,C(CCCCCCCCCCCCCCCCC)[Si](Cl)(Cl)Cl,chen14
Octadecamethyloctasiloxane,417.15,1.0,C[Si](O[Si](O[Si](O[Si](O[Si](O[Si](O[Si](O[Si](C)(C)C)(C)C)(C)C)(C)C)(C)C)(C)C)(C)C)(C)C,chen14
Vinyltris(methoxyethoxy)silane,353.15,1.0,C(=C)[Si](OCCOC)(OCCOC)OCCOC,chen14
Trimethyl(vinyloxy)silane,263.15,1.0,C[Si](OC=C)(C)C,chen14
Trichloro(3-cyanopropyl) Silane,365.15,1.0,Cl[Si](CCCC#N)(Cl)Cl,chen14
Trichloro(2-phenylethyl)silane,364.15,1.0,Cl[Si](CCC1=CC=CC=C1)(Cl)Cl,chen14
"Chlorodimethyl(3,3,3-trifluoropropyl) silane",293.15,1.0,Cl[Si](CCC(F)(F)F)(C)C,chen14
Vinylmethylbis (trimethylsiloxy) silane,324.15,1.0,C(=C)C[SiH](O[Si](C)(C)C)O[Si](C)(C)C,chen14
Trichloro(Chloromethyl) silane,342.15,1.0,Cl[Si](CCl)(Cl)Cl,chen14
Dimethyl(pentafluorophenyl) silane,313.15,1.0,C[SiH](C1=C(C(=C(C(=C1F)F)F)F)F)C,chen14
Trichloro(p-chlorophenyl)silane,397.05,1.0,Cl[Si](C1=CC=C(C=C1)Cl)(Cl)Cl,chen14
Trisilane,273.15,1.0,[SiH3][SiH2][SiH3],chen14
Trichlorononylsilane,387.15,1.0,ClC(CCCCCCCC[SiH3])(Cl)Cl,chen14
Dichloroethylsilane,263.75,1.0,ClC(C[SiH3])Cl,chen14
Trichloro(dichlorophenyl)silane,419.15,1.0,Cl[Si](C1=C(C(=CC=C1)Cl)Cl)(Cl)Cl,chen14
Tris(trimethylsilyl)silane,328.15,1.0,C[Si](C)(C)[SiH]([Si](C)(C)C)[Si](C)(C)C,chen14
Tris(trimethylsiloxy)silane,323.15,1.0,C[Si](O[SiH](O[Si](C)(C)C)O[Si](C)(C)C)(C)C,chen14
Hexadecyltrichlorosilane,427.15,1.0,C(CCCCCCCCCCCCCCC)[Si](Cl)(Cl)Cl,chen14
Dichlorosilane,236.15,1.0,Cl[SiH2]Cl,chen14
Dimethyldichlorosilane,257.15,1.0,C[Si](Cl)(Cl)C,chen14
Bromomethyldimethylchlorosilane,314.15,1.0,BrC[Si](Cl)(C)C,chen14
Trimethylsilane,204.15,1.0,C[SiH](C)C,chen14
Dimethylvinylchlorosilane,268.15,1.0,CC(=C[SiH2]Cl)C,chen14
"1,3-Dichlorotetramethyldisiloxane",288.15,1.0,Cl[Si](O[Si](Cl)(C)C)(C)C,chen14
"1,1,3,3-Tetramethyldisiloxane",251.15,1.0,C[SiH](O[SiH](C)C)C,chen14
Tetramethyldisilazane,284.15,1.0,CN([Si](C)(C)C)[SiH3],chen14
Allyl Dimethylchlorosilane,278.15,1.0,C(C=C)[Si](Cl)(C)C,chen14
sec-Amyltrichlorosilane,303.15,1.0,C(C)(CCC)[Si](Cl)(Cl)Cl,chen14
n-Butylmethyldichlorosilane,303.15,1.0,C(CCC)[Si](Cl)(Cl)C,chen14
Bis(dimethylamino)methylsilane,270.15,1.0,CN(C)C(N(C)C)[SiH3],chen14
Phenyltrichlorosilane,364.15,1.0,C1(=CC=CC=C1)[Si](Cl)(Cl)Cl,chen14
Phenyl trifluorosilane,268.15,1.0,C1(=CC=CC=C1)[Si](F)(F)F,chen14
Dimethyldiacetoxysilane,310.15,1.0,C[Si](OC(C)=O)(OC(C)=O)C,chen14
1-Trimethylsilylpropyne,270.15,1.0,C[Si](C#CC)(C)C,chen14
Vinyldimethylethoxysilane,277.15,1.0,C(=C)[Si](OCC)(C)C,chen14
Allyloxytrimethylsilane,273.15,1.0,C(C=C)O[Si](C)(C)C,chen14
Allyltrimethoxysilane,319.15,1.0,C(C=C)[Si](OC)(OC)OC,chen14
3-Chloropropyltrimethoxysilane,348.15,1.0,ClCCC[Si](OC)(OC)OC,chen14
n-Propyltrimethoxysilane,298.15,1.0,C(CC)[Si](OC)(OC)OC,chen14
Hexamethyldisiloxane,270.15,1.0,C[Si](O[Si](C)(C)C)(C)C,chen14
Hexamethyldisilane,272.15,1.0,C[Si]([Si](C)(C)C)(C)C,chen14
Vinyldiethylmethylsilane,288.15,1.0,C(=C)[Si](C)(CC)CC,chen14
Isobutyltrimethoxysilane,315.15,1.0,C(C(C)C)[Si](OC)(OC)OC,chen14
Phenyldimethylchlorosilane,334.15,1.0,C1(=CC=CC=C1)[Si](Cl)(C)C,chen14
"(N,N-Dimethylamino)triethylsilane",299.15,1.0,CN(C)[Si](CC)(CC)CC,chen14
Vinyltriacetoxysilane,361.15,1.0,C(=C)[Si](OC(C)=O)(OC(C)=O)OC(C)=O,chen14
Ethyltriacetoxysilane,377.15,1.0,C(C)[Si](OC(C)=O)(OC(C)=O)OC(C)=O,chen14
3-(Trimethylsilyl)cyclopentene,299.15,1.0,C[Si](C1C=CCC1)(C)C,chen14
Vinyltriethylsilane,298.15,1.0,C(=C)[Si](CC)(CC)CC,chen14
n-Octylsilane,309.15,1.0,C(CCCCCCC)[SiH3],chen14
Methyl phenyldimethoxysilane,349.15,1.0,C[Si](OC)(OC)C1=CC=CC=C1,chen14
2-Cyanoethyltriethoxysilane,359.15,1.0,C(#N)CC[Si](OCC)(OCC)OCC,chen14
3-Glycidoxypropyltrimethoxysilane,383.15,1.0,C(C1CO1)OCCC[Si](OC)(OC)OC,chen14
Di-t-butylmethylchlorosilane,342.15,1.0,C(C)(C)(C)[Si](Cl)(C)C(C)(C)C,chen14
Tri-n-propylchlorosilane,349.15,1.0,C(CC)[Si](Cl)(CCC)CCC,chen14
(Diisopropylamino)trimethylsilane,301.15,1.0,C(C)(C)N(C(C)C)[Si](C)(C)C,chen14
1-Chlorononamethyltetrasiloxane,347.15,1.0,Cl[Si](O[Si](O[Si](O[Si](C)(C)C)(C)C)(C)C)(C)C,chen14
Tristrimethylsiloxymethylsilane,336.15,1.0,C[Si](OC(O[Si](C)(C)C)(O[Si](C)(C)C)[SiH3])(C)C,chen14
Diphenylmethylsilane,393.15,1.0,C1(=CC=CC=C1)C(C1=CC=CC=C1)[SiH3],chen14
Trimethyl[(1-methylethenyl)oxy]silane,272.15,1.0,C[Si](OC(=C)C)(C)C,chen14
"Dichloromethyl-3,3,3-trifluoropropylsilane",288.15,1.0,ClC(Cl)[SiH2]CCC(F)(F)F,chen14
[2-(chloromethoxy)ethyl]trimethylsilane,319.15,1.0,ClCOCC[Si](C)(C)C,chen14
Iodotrimethylsilane,288.15,1.0,I[Si](C)(C)C,chen14
Triphenylsilane,416.35,1.0,C1(=CC=CC=C1)[SiH](C1=CC=CC=C1)C1=CC=CC=C1,chen14
[3-(mercapto)propyl]triethoxysilane,360.93,1.0,SCCC[Si](OCC)(OCC)OCC,chen14
Gamma-aminopropylethoxysilane,369.26,1.0,NCCC[SiH2]OCC,chen14
Dichlorodiethylsilane,297.15,1.0,Cl[Si](CC)(CC)Cl,chen14
"(2E)-but-2-ene-1,4-diol",401.0,1.0,OC/C=C/CO,Saldana11
"(2R,3R,4R,5S)-hexane-1,2,3,4,5,6-hexol",422.0,1.0,OC[C@H](O)[C@@H](O)[C@H](O)[C@H](O)CO,Saldana11
"(2S)-butane-1,2,4-triol",385.0,1.0,OCC[C@H](O)CO,Saldana11
"(2Z)-but-2-ene-1,4-diol",401.0,1.0,OC/C=C\CO,Saldana11
"2-butyl-2-ethylpropane-1,3-diol",386.0,1.0,CCCCC(CC)(CO)CO,Saldana11
2-butyloctan-1-ol,382.0,1.0,CCCCCCC(CO)CCCC,Saldana11
2-ethylbutan-1-ol,330.0,1.0,CCC(CC)CO,Saldana11
2-ethylhexan-1-ol,346.0,1.0,CCCCC(CC)CO,Saldana11
"2-ethylhexane-1,3-diol",409.0,1.0,CCCC(O)C(CC)CO,Saldana11
2-methylbutan-1-ol,316.0,1.0,CCC(C)CO,Saldana11
2-methylbutan-2-ol,294.0,1.0,CCC(C)(C)O,Saldana11
2-methylpentan-1-ol,319.0,1.0,CCCC(C)CO,Saldana11
"2-methylpentane-2,4-diol",366.0,1.0,CC(O)CC(C)(C)O,Saldana11
2-methylpropan-1-ol,301.0,1.0,OCC(C)C,Saldana11
2-methylpropan-2-ol,284.0,1.0,CC(C)(C)O,Saldana11
"2,2-bis(hydroxymethyl)propane-1,3-diol",533.0,1.0,OCC(CO)(CO)CO,Saldana11
"2,2-diethylpropane-1,3-diol",374.0,1.0,CCC(CC)(CO)CO,Saldana11
"2,2-dimethylpropane-1,3-diol",371.0,1.0,OCC(C)(C)CO,Saldana11
"2,2,4-trimethylpentan-1-ol",330.0,1.0,OCC(C)(C)CC(C)C,Saldana11
"2,2,4-trimethylpentane-1,3-diol",383.0,1.0,OCC(C)(C)C(O)C(C)C,Saldana11
"2,3-dimethylbutane-2,3-diol",350.0,1.0,CC(C)(O)C(C)(C)O,Saldana11
"2,3,4-trimethylpentan-1-ol",333.0,1.0,OCC(C)C(C)C(C)C,Saldana11
"2,4,4-trimethylpentan-1-ol",333.0,1.0,OCC(C)CC(C)(C)C,Saldana11
3-methylbutan-1-ol,316.0,1.0,OCCC(C)C,Saldana11
3-methylbutan-2-ol,299.0,1.0,CC(O)C(C)C,Saldana11
3-methylheptan-3-ol,327.0,1.0,CCCCC(C)(O)CC,Saldana11
3-methylpentan-1-ol,331.0,1.0,OCCC(C)CC,Saldana11
3-methylpentan-3-ol,297.0,1.0,CCC(C)(O)CC,Saldana11
"3,3-dimethylbutan-1-ol",321.0,1.0,OCCC(C)(C)C,Saldana11
4-methylpentan-2-ol,314.0,1.0,CC(C)CC(C)O,Saldana11
5-methylheptan-3-ol,327.0,1.0,CCC(C)CC(O)CC,Saldana11
8-methylnonan-1-ol,378.0,1.0,OCCCCCCCC(C)C,Saldana11
butan-1-ol,310.0,1.0,CCCCO,Saldana11
butan-2-ol,296.0,1.0,CCC(C)O,Saldana11
"butane-1,2-diol",363.0,1.0,CCC(O)CO,Saldana11
"butane-1,3-diol",382.0,1.0,OCCC(C)O,Saldana11
"butane-1,4-diol",407.0,1.0,OCCCCO,Saldana11
"butane-2,3-diol",358.0,1.0,CC(O)C(C)O,Saldana11
decan-1-ol,378.0,1.0,CCCCCCCCCCO,Saldana11
"ethane-1,2-diol",383.0,1.0,OCCO,Saldana11
ethanol,286.0,1.0,CCO,Saldana11
heptan-1-ol,346.0,1.0,CCCCCCCO,Saldana11
heptan-2-ol,332.0,1.0,CCCCCC(C)O,Saldana11
hexan-1-ol,335.0,1.0,CCCCCCO,Saldana11
hexan-2-ol,314.0,1.0,CCCCC(C)O,Saldana11
"hexane-1,2,6-triol",471.0,1.0,OCCCCC(O)CO,Saldana11
"hexane-1,6-diol",420.0,1.0,OCCCCCCO,Saldana11
"hexane-2,5-diol",374.0,1.0,CC(O)CCC(C)O,Saldana11
methanol,284.0,1.0,CO,Saldana11
nonan-1-ol,353.0,1.0,CCCCCCCCCO,Saldana11
oct-1-en-3-ol,341.0,1.0,CCCCCC(O)C=C,Saldana11
octan-1-ol,354.0,1.0,CCCCCCCCO,Saldana11
octan-2-ol,358.0,1.0,CCCCCCC(C)O,Saldana11
pentan-1-ol,330.0,1.0,CCCCCO,Saldana11
pentan-2-ol,314.0,1.0,CCCC(C)O,Saldana11
pentan-3-ol,313.0,1.0,CCC(O)CC,Saldana11
"pentane-1,5-diol",402.0,1.0,OCCCCCO,Saldana11
"pentane-2,4-diol",374.0,1.0,CC(O)CC(C)O,Saldana11
prop-2-en-1-ol,294.0,1.0,OCC=C,Saldana11
propan-1-ol,298.0,1.0,CCCO,Saldana11
propan-2-ol,285.0,1.0,CC(C)O,Saldana11
"propane-1,1-diol",372.0,1.0,CCC(O)O,Saldana11
"propane-1,2-diol",372.0,1.0,OCC(C)O,Saldana11
"propane-1,2,3-triol",433.0,1.0,OCC(O)CO,Saldana11
"propane-1,3-diol",352.0,1.0,OCCCO,Saldana11
tetradecan-1-ol,418.0,1.0,CCCCCCCCCCCCCCO,Saldana11
tridecan-1-ol,394.0,1.0,CCCCCCCCCCCCCO,Saldana11
(1-methylheptyl)benzene,373.0,1.0,CCCCCCC(C)c1ccccc1,Saldana11
(1E)-prop-1-en-1-ylbenzene,325.0,1.0,C/C=C/c1ccccc1,Saldana11
(1Z)-prop-1-enylbenzene,311.0,1.0,C/C=C\c1ccccc1,Saldana11
(2-methylbutyl)benzene,337.0,1.0,CCC(C)Cc1ccccc1,Saldana11
"(2,2-dimethylpropyl)benzene",323.0,1.0,CC(C)(C)Cc1ccccc1,Saldana11
1-ethyl-2-isopropylbenzene,331.0,1.0,CC(C)c1ccccc1C,Saldana11
1-ethyl-2-methylbenzene,312.0,1.0,CCc1ccccc1C,Saldana11
"1-ethyl-2,3-dimethylbenzene",338.0,1.0,CCc1cccc(C)c1C,Saldana11
"1-ethyl-2,4-dimethylbenzene",330.0,1.0,CCc1ccc(C)cc1C,Saldana11
1-ethyl-3-methylbenzene,311.0,1.0,CCc1cccc(C)c1,Saldana11
1-ethyl-4-methylbenzene,309.0,1.0,CCc1ccc(C)cc1,Saldana11
1-methyl-2-ethenylbenzene,320.0,1.0,C=Cc1ccccc1C,Saldana11
1-methyl-3-(propan-2-yl)benzene,323.0,1.0,Cc1cccc(c1)C(C)C,Saldana11
1-methyl-3-ethenylbenzene,324.0,1.0,C=Cc1cccc(C)c1,Saldana11
1-methyl-3-propylbenzene,325.0,1.0,CCCc1cccc(C)c1,Saldana11
1-methyl-4-ethenylbenzene,319.0,1.0,C=Cc1ccc(C)cc1,Saldana11
"1,1-diphenylethane",402.0,1.0,CC(c1ccccc1)c1ccccc1,Saldana11
"1,2-diethylbenzene",330.0,1.0,CCc1ccccc1CC,Saldana11
"1,2-dimethyl-3-propylbenzene",345.0,1.0,CCCc1cccc(C)c1C,Saldana11
"1,2-dimethylbenzene",290.0,1.0,Cc1ccccc1C,Saldana11
"1,2-diphenylbenzene",436.0,1.0,c1ccc(cc1)c1ccccc1c1ccccc1,Saldana11
"1,2-diphenylethane",402.0,1.0,c1ccc(cc1)CCc1ccccc1,Saldana11
"1,2,3-trimethylbenzene",317.0,1.0,Cc1cccc(C)c1C,Saldana11
"1,2,3,4-tetramethylbenzene",341.0,1.0,Cc1ccc(C)c(C)c1C,Saldana11
"1,2,3,5-tetramethylbenzene",336.0,1.0,Cc1cc(C)c(C)c(C)c1,Saldana11
"1,2,4-triethylbenzene",353.0,1.0,CCc1ccc(CC)c(CC)c1,Saldana11
"1,2,4-trimethylbenzene",319.0,1.0,Cc1ccc(C)c(C)c1,Saldana11
"1,2,4,5-tetramethylbenzene",328.0,1.0,Cc1cc(C)c(C)cc1C,Saldana11
"1,3-di(propan-2-yl)benzene",349.0,1.0,CC(C)c1cccc(c1)C(C)C,Saldana11
"1,3-diethylbenzene",329.0,1.0,CCc1cccc(CC)c1,Saldana11
"1,3-diphenylbenzene",464.0,1.0,c1ccc(cc1)c1cccc(c1)c1ccccc1,Saldana11
"1,3-xylene",298.0,1.0,Cc1cccc(C)c1,Saldana11
"1,3,5-triethylbenzene",354.0,1.0,CCc1cc(CC)cc(CC)c1,Saldana11
"1,3,5-triisopropylbenzene",360.0,1.0,CC(C)c1cc(cc(c1)C(C)C)C(C)C,Saldana11
"1,3,5-trimethylbenzene",318.0,1.0,Cc1cc(C)cc(C)c1,Saldana11
"1,4-diethylbenzene",329.0,1.0,CCc1ccc(CC)cc1,Saldana11
"1,4-diisopropylbenzene",349.0,1.0,CC(C)c1ccc(cc1)C(C)C,Saldana11
"1,4-dimethylbenzene",298.0,1.0,Cc1ccc(C)cc1,Saldana11
"1,4-diphenylbenzene",480.0,1.0,c1ccc(cc1)c1ccc(cc1)c1ccccc1,Saldana11
"2-ethyl-1,4-dimethylbenzene",329.0,1.0,CCc1cc(C)ccc1C,Saldana11
2-phenyl-2-methylbutane,338.0,1.0,CCC(C)(C)c1ccccc1,Saldana11
"2,2-diphenylpropane",383.0,1.0,CC(C)(c1ccccc1)c1ccccc1,Saldana11
"4-ethyl-1,2-dimethylbenzene",331.0,1.0,CCc1ccc(C)c(C)c1,Saldana11
4-isopropyltoluene,320.0,1.0,Cc1ccc(cc1)C(C)C,Saldana11
alpha-methylstyrene,313.0,1.0,CC(=C)c1ccccc1,Saldana11
benzene,262.0,1.0,c1ccccc1,Saldana11
biphenyl,386.0,1.0,c1ccc(cc1)c1ccccc1,Saldana11
cyclohexylbenzene,372.0,1.0,C1CCC(CC1)c1ccccc1,Saldana11
diphenylmethane,403.0,1.0,c1ccc(cc1)Cc1ccccc1,Saldana11
ethenylbenzene,305.0,1.0,C=Cc1ccccc1,Saldana11
ethylbenzene,288.0,1.0,CCc1ccccc1,Saldana11
indane,322.0,1.0,c1ccc2CCCc2c1,Saldana11
isobutylbenzene,325.0,1.0,CC(C)Cc1ccccc1,Saldana11
isopentylbenzene,335.0,1.0,CC(C)CCc1ccccc1,Saldana11
isopropylbenzene,304.0,1.0,CC(C)c1ccccc1,Saldana11
n-butylbenzene,323.0,1.0,CCCCc1ccccc1,Saldana11
n-decylbenzene,380.0,1.0,CCCCCCCCCCc1ccccc1,Saldana11
n-dodecylbenzene,414.0,1.0,CCCCCCCCCCCCc1ccccc1,Saldana11
n-heptylbenzene,368.0,1.0,CCCCCCCc1ccccc1,Saldana11
n-hexylbenzene,353.0,1.0,CCCCCCc1ccccc1,Saldana11
n-propylbenzene,303.0,1.0,CCCc1ccccc1,Saldana11
n-undecylbenzene,417.0,1.0,CCCCCCCCCCCc1ccccc1,Saldana11
nonylbenzene,372.0,1.0,CCCCCCCCCc1ccccc1,Saldana11
octylbenzene,380.0,1.0,CCCCCCCCc1ccccc1,Saldana11
pentamethylbenzene,364.0,1.0,Cc1cc(C)c(C)c(C)c1C,Saldana11
pentylbenzene,338.0,1.0,CCCCCc1ccccc1,Saldana11
sec-butylbenzene,325.0,1.0,CCC(C)c1ccccc1,Saldana11
tert-butylbenzene,333.0,1.0,CC(C)(C)c1ccccc1,Saldana11
tetralin,350.0,1.0,C1CCc2ccccc2C1,Saldana11
toluene,277.0,1.0,Cc1ccccc1,Saldana11
(1R)-1-phenylethan-1-ol,358.0,1.0,C[C@@H](O)c1ccccc1,Saldana11
(2-methylphenyl)methanol,377.0,1.0,OCc1ccccc1C,Saldana11
(3-methylphenyl)methanol,378.0,1.0,OCc1cccc(C)c1,Saldana11
[4-(hydroxymethyl)phenyl]methanol,461.0,1.0,OCc1ccc(CO)cc1,Saldana11
{4-[(benzoyloxy)methyl]cyclohexyl}methyl benzoate,434.0,1.0,O=C(OCC1CCC(CC1)COC(=O)c1ccccc1)c1ccccc1,Saldana11
1-phenylpropan-1-ol,363.0,1.0,CCC(O)c1ccccc1,Saldana11
1-phenylpropan-2-ol,358.0,1.0,CC(O)Cc1ccccc1,Saldana11
2-ethylphenol,351.0,1.0,CCc1ccccc1O,Saldana11
2-furylmethanol,356.0,1.0,OCc1ccco1,Saldana11
2-methylphenol,354.0,1.0,Cc1ccccc1O,Saldana11
2-phenylethanol,369.0,1.0,OCCc1ccccc1,Saldana11
2-phenylpropan-1-ol,366.0,1.0,OCC(C)c1ccccc1,Saldana11
2-phenylpropan-2-ol,360.0,1.0,CC(C)(O)c1ccccc1,Saldana11
"2,6-di-tert-butyl-p-cresol",390.0,1.0,Cc1cc(c(O)c(c1)C(C)(C)C)C(C)(C)C,Saldana11
3-ethylphenol,367.0,1.0,CCc1cccc(O)c1,Saldana11