,compound,flashpoint,pure substance,smiles,source
10971,"Isoflavone, 5,7-dihydroxy-4'-methoxy- (8CI)",471.35,1,COc1ccc(-c2coc3cc(O)cc(O)c3c2=O)cc1,le15
10972,"9,10-Anthracenedione, 1,8-dihydroxy-3-methoxy-6-methyl- (9CI)",488.55,1,COc1cc(O)c2c(c1)C(=O)c1cc(C)cc(O)c1C2=O,le15
10973,"9H-Purine-6(1H)-thione, 9-beta-D-ribofuranosyl- (8CI)",659.15,1,OC[C@H]1O[C@@H](n2cnc3c(=S)[nH]cnc32)[C@H](O)[C@@H]1O,le15
10974,"7H-Benzimidazo(2,1-a)benz(de)isoquinolin-7-one, 10-methyl-",599.35,1,Cc1ccc2nc3c4cccc5cccc(c(=O)n3c2c1)c54,le15
10975,"Acetanilide, 4',4'''-oxybis- (8CI)",562.25,1,CC(=O)Nc1ccc(Oc2ccc(NC(C)=O)cc2)cc1,le15
10976,4'-Phenylchalcone,478.65,1,O=C(C=Cc1ccccc1)c1ccc(-c2ccccc2)cc1,le15
10977,"1,2-Dihydro-3-methylbenz(j)aceanthrylen- 1-ol",479.95,1,Cc1ccc2cc3c(ccc4ccccc43)c3c2c1CC3O,le15
10978,"Benzeneacetamide, N-ethyl-alpha-(hydroxymethyl)-N-(4-pyridinylmethyl)-",524.95,1,CCN(Cc1ccncc1)C(=O)C(CO)c1ccccc1,le15
10979,"2-Propenoic acid, 3-phenyl-, 1-ethenyl-1,5-dimethyl-4-hexenyl ester",489.25,1,C=CC(C)(CCC=C(C)C)OC(=O)C=Cc1ccccc1,le15
10980,"10H-Phenothiazine-10-propanamine, N,N-dimethyl- (9CI)",476.55,1,CN(C)CCCN1c2ccccc2Sc2ccccc21,le15
10981,"Heptadecanoic acid, 16-methyl-",498.75,1,CC(C)CCCCCCCCCCCCCCC(=O)O,le15
10982,octadecanoic acid,435.55,1,CCCCCCCCCCCCCCCCCC(=O)O,le15
10983,"Myristic acid, butyl ester (8CI)",431.65,1,CCCCCCCCCCCCCC(=O)OCCCC,le15
10984,"Urea, tetrabutyl-",405.15,1,CCCCN(CCCC)C(=O)N(CCCC)CCCC,le15
10985,"Benzene, hexachloro-",424.25,1,Clc1c(Cl)c(Cl)c(Cl)c(Cl)c1Cl,le15
10986,"2H-1,4-Benzodiazepin-2-one, 7-chloro-1,3-dihydro-1-methyl-5-phenyl-",527.75,1,CN1C(=O)CN=C(c2ccccc2)c2cc(Cl)ccc21,le15
10987,"1,1,1,2,2,3,3-heptachloropropane",376.05,1,ClC(Cl)C(Cl)(Cl)C(Cl)(Cl)Cl,le15
10988,"1,1,1,2,3,3,3-heptachloropropane",372.75,1,ClC(C(Cl)(Cl)Cl)C(Cl)(Cl)Cl,le15
10989,"Benzamide, N-9H-fluoren-2-yl- (9CI)",518.65,1,O=C(Nc1ccc2c(c1)Cc1ccccc1-2)c1ccccc1,le15
10990,"Morphinan-6-one, 4,5alpha-epoxy-3-hydroxy-17-methyl- (8CI)",514.55,1,CN1CC[C@]23c4c5ccc(O)c4O[C@H]2C(=O)CC[C@H]3[C@H]1C5,le15
10991,"Benzoic acid, 4-((dipropylamino)sulfonyl)-",491.85,1,CCCN(CCC)S(=O)(=O)c1ccc(C(=O)O)cc1,le15
10992,"Ethanol, 2-chloro-, phosphate (3:1)",505.35,1,O=P(O)(O)O.OCCCl.OCCCl.OCCCl,le15
10993,"Dodecanoic acid, 2-thiocyanatoethyl ester (9CI)",465.15,1,CCCCCCCCCCCC(=O)OCCSC#N,le15
10994,"Ethanol, 2-(bis(2-ethylhexyl)amino)-",413.05,1,CCCCC(CC)CN(CCO)CC(CC)CCCC,le15
10995,"1,3-Isobenzofurandione, 4,5,6,7-tetrachloro-",434.75,1,O=C1OC(=O)c2c(Cl)c(Cl)c(Cl)c(Cl)c21,le15
10996,"2,4-Imidazolidinedione, 1,3-dibromo-5,5-dimethyl-",378.25,1,CC1(C)C(=O)N(Br)C(=O)N1Br,le15
10997,"1,4-dibromonaphthalene",454.55,1,Brc1ccc(Br)c2ccccc12,le15
10998,"9,10-Anthracenedione, 1,4,5,8-tetrahydroxy-2-methyl- (9CI)",591.65,1,Cc1cc(O)c2c(c1O)C(=O)c1c(O)ccc(O)c1C2=O,le15
10999,"Anthraquinone, 1,4,5,7-tetrahydroxy-2-methyl- (8CI)",621.75,1,Cc1cc(O)c2c(c1O)C(=O)c1cc(O)cc(O)c1C2=O,le15
11000,"9,10-Anthracenedione, 1,3,8-trihydroxy-6-(hydroxymethyl)-",647.55,1,O=C1c2cc(O)cc(O)c2C(=O)c2c(O)cc(CO)cc21,le15
11001,"4H-1-Benzopyran-4-one, 3,5,7-trihydroxy-2-(4-hydroxyphenyl)-",499.25,1,O=c1c(O)c(-c2ccc(O)cc2)oc2cc(O)cc(O)c12,le15
11002,"Xanthen-9-one, 1,3,7-trimethoxy-",477.55,1,COc1cc(OC)c2c(=O)c3cc(OC)ccc3oc2c1,le15
11003,"5,5'-Methylenedianthranilic acid",575.55,1,Nc1ccc(Cc2ccc(N)c(C(=O)O)c2)cc1C(=O)O,le15
11004,"Phosphoric acid, dibutyl phenyl ester",442.25,1,CCCCOP(=O)(OCCCC)Oc1ccccc1,le15
11005,"Azoxybenzene, 4,4'-diethoxy- (8CI)",493.05,1,CCOc1ccc(N=[N+]([O-])c2ccc(OCC)cc2)cc1,le15
11006,bis(2-ethylhexyl) carbonate,404.45,1,CCCCC(CC)COC(=O)OCC(CC)CCCC,le15
11007,1-Octadecanethiol,458.15,1,CCCCCCCCCCCCCCCCCCS,le15
11008,"Propane, 2,2-difluoro-1,1,1,3,3,3-hexachloro-",352.95,1,FC(F)(C(Cl)(Cl)Cl)C(Cl)(Cl)Cl,le15
11009,tribromo(chloro)methane,325.95,1,ClC(Br)(Br)Br,le15
11010,4-Bromochalcone,352.75,1,O=C(C=Cc1ccc(Br)cc1)c1ccccc1,le15
11011,"2-Propen-1-one, 1-(4-bromophenyl)-3-phenyl-",355.55,1,O=C(C=Cc1ccccc1)c1ccc(Br)cc1,le15
11012,"Benzene, 1,1'-sulfonylbis(4-chloro-",484.35,1,O=S(=O)(c1ccc(Cl)cc1)c1ccc(Cl)cc1,le15
11013,Bis(2-hydroxy-5-chlorophenyl)sulfide,478.95,1,Oc1ccc(Cl)cc1Sc1cc(Cl)ccc1O,le15
11014,"Benzenamine, N-methyl-N,2,4,6-tetranitro-",531.55,1,CN(c1c([N+](=O)[O-])cc([N+](=O)[O-])cc1[N+](=O)[O-])[N+](=O)[O-],le15
11015,"2,2,3-trichloro-1,1,1,3,4,4,4-heptafluorobutane",295.95,1,FC(F)(F)C(F)(Cl)C(Cl)(Cl)C(F)(F)F,le15
11016,"Piperidine, 4-(5H-dibenzo(a,d)cyclohepten-5-ylidene)-1-methyl-",467.65,1,CN1CCC(=C2c3ccccc3C=Cc3ccccc32)CC1,le15
11017,"N,N-dibenzyl-1-phenylmethanamine",476.15,1,c1ccc(CN(Cc2ccccc2)Cc2ccccc2)cc1,le15
11018,Tribenzylamine,476.0,1,c1ccc(CN(Cc2ccccc2)Cc2ccccc2)cc1,le15
11019,"7,12-Dihydroxymethylbenz(a)anthracene",556.65,1,OCc1c2ccccc2c(CO)c2c1ccc1ccccc12,le15
11020,"Estra-1,3,5(10)-triene-3,16,17-triol, (16alpha,17beta)-",493.95,1,C[C@]12CC[C@@H]3c4ccc(O)cc4CC[C@H]3[C@@H]1C[C@@H](O)[C@@H]2O,le15
11021,"Phosphonodithioic acid, ethyl-, S-(p-tert-butylphenyl) O-methyl ester",444.35,1,CCP(=S)(OC)Sc1ccc(C(C)(C)C)cc1,le15
11022,"2-Cyclopenten-1-one, 2,3,4,4,5,5-hexachloro-",375.35,1,O=C1C(Cl)=C(Cl)C(Cl)(Cl)C1(Cl)Cl,le15
11023,1-chlorooctadecane,457.15,1,CCCCCCCCCCCCCCCCCCCl,le15
11024,"Phosphoramidodithioic acid, butyl-, O-ethyl S-phenyl ester",451.75,1,CCCCNP(=S)(OCC)Sc1ccccc1,le15
11025,"Cyclopentanecarboxylic acid, 1-phenyl-, 2-(diethylamino)ethyl ester",397.95,1,CCN(CC)CCOC(=O)C1(c2ccccc2)CCCC1,le15
11026,"Benzimidazole, 4,5,6-trichloro-2-(trifluoromethyl)-",451.45,1,FC(F)(F)c1nc2cc(Cl)c(Cl)c(Cl)c2[nH]1,le15
11027,"Benzonitrile, 4-hydroxy-3-iodo-5-nitro-",396.35,1,N#Cc1cc(I)c(O)c([N+](=O)[O-])c1,le15
11028,"Pyrophosphoric acid, tetraethyl ester",398.75,1,CCOP(=O)(OCC)OP(=O)(OCC)OCC,le15
11029,"2,4-Pyrimidinediamine, 5-((3,4,5-trimethoxyphenyl)methyl)-",545.05,1,COc1cc(Cc2cnc(N)nc2N)cc(OC)c1OC,le15
11030,"Acetamide, N-(4-((4-aminophenyl)sulfonyl)phenyl)- (9CI)",583.45,1,CC(=O)Nc1ccc(S(=O)(=O)c2ccc(N)cc2)cc1,le15
11031,"Phosphorothioic acid, O,O-diethyl S-(2-(ethylsulfonyl)ethyl) ester",478.75,1,CCOP(=O)(OCC)SCCS(=O)(=O)CC,le15
11032,"Phosphorodithioic acid, O,O-diethyl S-((ethylsulfinyl)ethyl) ester",474.15,1,CCOP(=S)(OCC)SCCS(=O)CC,le15
11033,"1,6,10,14-Hexadecatetraen-3-ol, 3,7,11,15-tetramethyl-, (6E,10E)-",433.15,1,C=CC(C)(O)CC/C=C(\C)CC/C=C(\C)CCC=C(C)C,le15
11034,"Urea, 3-(p-(p-chlorophenoxy)phenyl)-1,1-dimethyl-",504.75,1,CN(C)C(=O)Nc1ccc(Oc2ccc(Cl)cc2)cc1,le15
11035,"Phosphorothioic acid, O,O-diethyl O-(4-nitrophenyl) ester",446.65,1,CCOP(=S)(OCC)Oc1ccc([N+](=O)[O-])cc1,le15
11036,"Phosphorothioic acid, O,S-diethyl O-(4-nitrophenyl) ester (9CI)",466.25,1,CCOP(=O)(Oc1ccc([N+](=O)[O-])cc1)SCC,le15
11037,"Benzoic acid, 2-((1-naphthalenylamino)carbonyl)- (9CI)",499.55,1,O=C(O)c1ccccc1C(=O)Nc1cccc2ccccc12,le15
11038,1-bromopentadecane,406.85,1,CCCCCCCCCCCCCCCBr,le15
11039,"2-Pyrazolin-5-one, 4-dimethylaminomethylene-1,3-diphenyl-",467.65,1,CN(C)C=C1C(=O)N(c2ccccc2)N=C1c1ccccc1,le15
11040,"11H-Dibenz(b,e)azepine, 6-(4-methyl-1-piperazinyl)-",491.25,1,CN1CCN(C2=Nc3ccccc3Cc3ccccc32)CC1,le15
11041,"Phosphoric acid, dimethyl 1,2,2,2-tetrachloroethyl ester",384.35,1,COP(=O)(OC)OC(Cl)C(Cl)(Cl)Cl,le15
11042,"1,1'-Biphenyl, 2,2',4,4'-tetrachloro-",433.45,1,Clc1ccc(-c2ccc(Cl)cc2Cl)c(Cl)c1,le15
11043,"Glycine, N,N'-1,2-ethanediylbis(N-(carboxymethyl)-",598.35,1,O=C(O)CN(CCN(CC(=O)O)CC(=O)O)CC(=O)O,le15
11044,"2-Naphthalenamine, 1-(2-(4-nitrophenyl)diazenyl)-",558.95,1,Nc1ccc2ccccc2c1N=Nc1ccc([N+](=O)[O-])cc1,le15
11045,"Benzenamine, 4,4'-(1,3-phenylenebis(oxy))bis-",544.05,1,Nc1ccc(Oc2cccc(Oc3ccc(N)cc3)c2)cc1,le15
11046,"Phosphorodithioic acid, O,O-diethyl S-((ethylsulfonyl)methyl) ester",467.25,1,CCOP(=S)(OCC)SCS(=O)(=O)CC,le15
11047,"1H-Indene-2-ethanamine, N,N-dimethyl-3-(1-(2-pyridinyl)ethyl)- (9CI)",478.75,1,CC(C1=C(CCN(C)C)Cc2ccccc21)c1ccccn1,le15
11048,"2-Propanol, 1,1',1'',1'''-(1,2-ethanediyldinitrilo)tetrakis-",373.15,1,CC(O)CN(CCN(CC(C)O)CC(C)O)CC(C)O,le15
11049,"Cyclotetrasilazane, 2,2,4,4,6,6,8,8-octamethyl-",339.15,1,C[Si]1(C)N[Si](C)(C)N[Si](C)(C)N[Si](C)(C)N1,le15
11050,"Propionic acid, 2-methyl-2-phenoxy-, 2-morpholinoethyl ester (8CI)",473.75,1,CC(C)(Oc1ccccc1)C(=O)OCCN1CCOCC1,le15
11051,"Piperidine, 1-methyl-4-(9H-thioxanthen-9-ylidene)- (9CI)",492.85,1,CN1CCC(=C2c3ccccc3Sc3ccccc32)CC1,le15
11052,"1,2,3,4,5-pentafluoro-6-iodobenzene",334.45,1,Fc1c(F)c(F)c(I)c(F)c1F,le15
11053,"1-Iodo-2,4-dinitrobenzene",439.75,1,O=[N+]([O-])c1ccc(I)c([N+](=O)[O-])c1,le15
11054,"Ethanone, 1-(4-(1,1-dimethylethyl)-2,6-dimethyl-3,5-dinitrophenyl)-",426.35,1,CC(=O)c1c(C)c([N+](=O)[O-])c(C(C)(C)C)c([N+](=O)[O-])c1C,le15
11055,"3,5-Pyrazolidinedione, 1,2-diphenyl-4-propyl-",444.45,1,CCCC1C(=O)N(c2ccccc2)N(c2ccccc2)C1=O,le15
11056,"Benzo(b)thiophene-6-carboximidamide, 2-(4-(aminoiminomethyl)phenyl)-",541.65,1,N=C(N)c1ccc2cc(-c3ccc(C=NN)cc3)sc2c1,le15
11057,"Linoleic acid, methyl ester (8CI)",370.15,1,CCCCC/C=C\C/C=C\CCCCCCCC(=O)OC,le15
11058,"1,2,2-tribromobutane",357.05,1,CCC(Br)(Br)CBr,le15
11059,"2,2,3-tribromobutane",350.35,1,CC(Br)C(C)(Br)Br,le15
11060,"1,2-dichloro-3,3,4,4,5,5,6,6-octafluorocyclohexene",306.75,1,FC1(F)C(Cl)=C(Cl)C(F)(F)C(F)(F)C1(F)F,le15
11061,"Benzeneacetonitrile, alpha-(beta-D-glucopyranosyloxy)- (9CI)",545.65,1,N#CC(O[C@@H]1O[C@H](CO)[C@@H](O)[C@H](O)[C@H]1O)c1ccccc1,le15
11062,"2H-1,4-Benzodiazepin-2-one, 1,3-dihydro-1-methyl-7-nitro-5-phenyl-",553.85,1,CN1C(=O)CN=C(c2ccccc2)c2cc([N+](=O)[O-])ccc21,le15
11063,"Dibenz(a,j)acridine, 7-oxide",572.85,1,[O-][n+]1c2ccc3ccccc3c2cc2c3ccccc3ccc21,le15
11064,"4H-Dibenzo(de,g)quinoline, 5,6,6a,7-tetrahydro-1,2-dimethoxy-6-methyl-",425.05,1,COc1cc2c3c(c1OC)-c1ccccc1CC3N(C)CC2,le15
11065,1-isocyanatooctadecane,418.05,1,CCCCCCCCCCCCCCCCCCN=C=O,le15
11066,"2H-1,2,4-Benzothiadiazine-7-sulfonamide, 6-chloro-, 1,1-dioxide",595.15,1,NS(=O)(=O)c1cc2c(cc1Cl)N=CNS2(=O)=O,le15
11067,"Benzenamine, 2,4-dibromo-6-nitro-",425.65,1,Nc1c(Br)cc(Br)cc1[N+](=O)[O-],le15
11068,"1,1,1,2,2,3,3-heptafluoro-3-iodopropane",276.55,1,FC(F)(F)C(F)(F)C(F)(F)I,le15
11069,"1,1,1,2,3,3,3-heptafluoro-2-iodopropane",277.85,1,FC(F)(F)C(F)(I)C(F)(F)F,le15
11070,"Pentanedioic acid, hexafluoro-, diethyl ester",360.05,1,CCOC(=O)C(F)(F)C(F)(F)C(F)(F)C(=O)OCC,le15
11071,"1,3,5,7-Tetrazocine, octahydro-1,3,5,7-tetranitro-",774.95,1,O=[N+]([O-])N1CN([N+](=O)[O-])CN([N+](=O)[O-])CN([N+](=O)[O-])C1,le15
11072,1-iodododecane,386.65,1,CCCCCCCCCCCCI,le15
11073,"1H-Imidazole, 2,4,5-triphenyl-",545.75,1,c1ccc(-c2nc(-c3ccccc3)c(-c3ccccc3)[nH]2)cc1,le15
11074,"5H-Dibenz(b,f)azepin-2-ol, 10,11-dihydro-5-(3-(dimethylamino)propyl)-",512.65,1,CN(C)CCCN1c2ccccc2CCc2cc(O)ccc21,le15
11075,"10H-Phenothiazine, 10-((1-methyl-3-pyrrolidinyl)methyl)-",487.25,1,CN1CCC(CN2c3ccccc3Sc3ccccc32)C1,le15
11076,"1H-Isoindole-1,3(2H)-dione, 2-((trichloromethyl)thio)-",428.85,1,O=C1c2ccccc2C(=O)N1SC(Cl)(Cl)Cl,le15
11077,henicosane,386.15,1,CCCCCCCCCCCCCCCCCCCCC,le15
11078,"Cyclotetrasiloxane, octamethyl-",336.35,1,C[Si]1(C)O[Si](C)(C)O[Si](C)(C)O[Si](C)(C)O1,le15
11079,"Acetic acid, 2,2,2-tribromo-",370.15,1,O=C(O)C(Br)(Br)Br,le15
11080,bis(trichloromethyl) carbonate,326.45,1,O=C(OC(Cl)(Cl)Cl)OC(Cl)(Cl)Cl,le15
11081,"Phenol, 2,6-dibromo-4-nitro-",407.05,1,O=[N+]([O-])c1cc(Br)c(O)c(Br)c1,le15
11082,"2-Anthracenecarboxylic acid, 9,10-dihydro-1-nitro-9,10-dioxo- (9CI)",525.45,1,O=C1c2ccccc2C(=O)c2c1ccc(C(=O)O)c2[N+](=O)[O-],le15
11083,"Benzene, 1-(1,1-dimethylethyl)-3,5-dimethyl-2,4,6-trinitro-",447.35,1,Cc1c([N+](=O)[O-])c(C)c([N+](=O)[O-])c(C(C)(C)C)c1[N+](=O)[O-],le15
11084,"1,3,5-Triazine-2,4,6(1H,3H,5H)-trione, 1,3,5-tris(oxiranylmethyl)-",530.05,1,O=c1n(CC2CO2)c(=O)n(CC2CO2)c(=O)n1CC1CO1,le15
11085,"1,3,5-Triazine, 2,4,6-tris(oxiranylmethoxy)- (9CI)",453.05,1,C(Oc1nc(OCC2CO2)nc(OCC2CO2)n1)C1CO1,le15
11086,"Benzenesulfonamide, N-(5-tert-butyl-1,3,4-thiadiazol-2-yl)-",498.75,1,CC(C)(C)c1nnc(NS(=O)(=O)c2ccccc2)s1,le15
11087,"Phosphorothioic acid, O-(3-chloro-4-nitrophenyl) O,O-dimethyl ester",448.65,1,COP(=S)(OC)Oc1ccc([N+](=O)[O-])c(Cl)c1,le15
11088,"Phosphorothioic acid, O-(2-chloro-4-nitrophenyl) O,O-dimethyl ester",442.15,1,COP(=S)(OC)Oc1ccc([N+](=O)[O-])cc1Cl,le15
11089,"Phosphorothioic acid, O-(4-chloro-3-nitrophenyl) O,O-dimethyl ester",438.95,1,COP(=S)(OC)Oc1ccc(Cl)c([N+](=O)[O-])c1,le15
11090,"Methane, nitrotribromo-",321.25,1,O=[N+]([O-])C(Br)(Br)Br,le15
11091,"2H-1-Benzopyran-2-one, 3-(1-(2-furanyl)-3-oxobutyl)-4-hydroxy-",487.35,1,CC(=O)CC(c1ccco1)c1c(O)c2ccccc2oc1=O,le15
11092,"Benzenamine, N,N-diethyl-4-((4-nitrophenyl)azo)-",510.95,1,CCN(CC)c1ccc(N=Nc2ccc([N+](=O)[O-])cc2)cc1,le15
11093,"1H-Pyrazole, 4,5-dihydro-1,3,5-triphenyl-",501.45,1,c1ccc(C2=NN(c3ccccc3)C(c3ccccc3)C2)cc1,le15
11094,"2,4-Xylenol, 6,6'-butylidenebis-",475.05,1,CCCC(c1cc(C)cc(C)c1O)c1cc(C)cc(C)c1O,le15
11095,"1-Naphthaleneacetamide, alpha-(2-(dimethylamino)ethyl)-alpha-isopropyl",518.85,1,CN(C)CCC(C)(C)NC(=O)Cc1cccc2ccccc12,le15
11096,"10H-Phenothiazine-10-propanamine, N,N,beta-trimethyl-",481.15,1,CC(CN(C)C)CN1c2ccccc2Sc2ccccc21,le15
11097,"Oxiraneoctanoic acid, 3-octyl- (9CI)",414.25,1,CCCCCCCCC1OC1CCCCCCCC(=O)O,le15
11098,methyl octadecanoate,383.15,1,CCCCCCCCCCCCCCCCCC(=O)OC,le15
11099,"Phosphorotrithious acid, tributyl ester",456.95,1,CCCCSP(SCCCC)SCCCC,le15
11100,"Hexadecanoic acid, 1-methylethyl ester",435.35,1,CCCCCCCCCCCCCCCC(=O)OC(C)C,le15
11101,"2,5-Norbornadiene, 1,2,3,4,7,7-hexachloro- (8CI)",407.75,1,ClC1=C(Cl)C2(Cl)C=CC1(Cl)C2(Cl)Cl,le15
11102,"Succinic acid, alpha-butyl-p-chlorobenzyl ester",507.65,1,CCCCC(OC(=O)CCC(=O)[O-])c1ccc(Cl)cc1,le15
11103,"Phosphoric acid, 2,4-dichlorophenyl diethyl ester",481.65,1,CCOP(=O)(OCC)Oc1ccc(Cl)cc1Cl,le15
11104,"Phosphonothioic acid, ethyl-, O-(2,4-dichlorophenyl) O-ethyl ester",434.55,1,CCOP(=S)(CC)Oc1ccc(Cl)cc1Cl,le15
11105,"Caffeine, 8-(p-aminobenzyl)-",576.15,1,Cn1c(=O)c2c(nc(Cc3ccc(N)cc3)n2C)n(C)c1=O,le15
11106,"Morphinan-6-one, 4,5alpha-epoxy-3-methoxy-17-methyl- (8CI)",506.05,1,COc1ccc2c3c1O[C@H]1C(=O)CC[C@H]4[C@@H](C2)N(C)CC[C@]314,le15
11107,"3H-1,4-Benzodiazepine, 7-chloro-2-(methylamino)-5-phenyl-, 4-oxide",559.0,1,CNC1=Nc2ccc(Cl)cc2C(c2ccccc2)=[N+]([O-])C1,le15
11108,"Benzamide, 4-amino-5-chloro-N-(2-(diethylamino)ethyl)-2-methoxy- (9CI)",480.15,1,CCN(CC)CCNC(=O)c1cc(Cl)c(N)cc1OC,le15
11109,"Benzimidazole, 5,6-dichloro-4-nitro-2-(trifluoromethyl)-",477.35,1,O=[N+]([O-])c1c(Cl)c(Cl)cc2nc(C(F)(F)F)[nH]c12,le15
11110,"Benzimidazole, 4,5-dichloro-6-nitro-2-(trifluoromethyl)-",477.35,1,O=[N+]([O-])c1cc2nc(C(F)(F)F)[nH]c2c(Cl)c1Cl,le15
11111,"Decane, 1,10-dibromo-",426.55,1,BrCCCCCCCCCCBr,le15
11112,"2-Anthracenecarboxylic acid, 9,10-dihydro-4,5,7-trihydroxy-9,10-dioxo-",657.85,1,O=C(O)c1cc(O)c2c(c1)C(=O)c1cc(O)cc(O)c1C2=O,le15
11113,"2-Butenoic acid, 3-((dimethoxyphosphinyl)oxy)-, phenylmethyl ester",458.55,1,COP(=O)(OC)OC(C)=CC(=O)OCc1ccccc1,le15
11114,"9,10-Anthracenedione, 1,4,5-trihydroxy-7-methoxy-2-methyl- (9CI)",502.75,1,COc1cc(O)c2c(c1)C(=O)c1c(O)c(C)cc(O)c1C2=O,le15
11115,"Benzoic acid, 2-(acetyloxy)-, 2-carboxyphenyl ester",477.05,1,CC(=O)Oc1ccccc1C(=O)Oc1ccccc1C(=O)O,le15
11116,"4H-1-Benzopyran-4-one, 5,7-dihydroxy-2-(4-hydroxyphenyl)-6-methoxy-",503.25,1,COc1c(O)cc2oc(-c3ccc(O)cc3)cc(=O)c2c1O,le15
11117,"Anthraquinone, 3-methoxy-6-methyl-1,2,8-trihydroxy-",486.65,1,COc1cc2c(c(O)c1O)C(=O)c1c(O)cc(C)cc1C2=O,le15
11118,"2-Naphthalenol, 1,1'-methylenebis- (9CI)",531.75,1,Oc1ccc2ccccc2c1Cc1c(O)ccc2ccccc12,le15
11119,"Benzenesulfonamide, 4-amino-N-2-quinoxalinyl-",560.25,1,Nc1ccc(S(=O)(=O)Nc2cnc3ccccc3n2)cc1,le15
11120,"2-Cyclohexen-1-one, 3-hexyl-5-(3,4-(methylenedioxy)phenyl)-",474.65,1,CCCCCCC1=CC(=O)CC(c2ccc3c(c2)OCO3)C1,le15
11121,"Methane, sulfonylbis(trichloro-",398.85,1,O=S(=O)(C(Cl)(Cl)Cl)C(Cl)(Cl)Cl,le15
11122,"5-Bromo-2-phenyl-1H-indene-1,3(2H)-dione",434.95,1,O=C1c2ccc(Br)cc2C(=O)C1c1ccccc1,le15
11123,"1,3-Indandione, 4-bromo-2-phenyl-",434.95,1,O=C1c2cccc(Br)c2C(=O)C1c1ccccc1,le15
11124,"Benzohydroxamic acid, N-fluoren-2-yl-",547.55,1,O=C(c1ccccc1)N(O)c1ccc2c(c1)Cc1ccccc1-2,le15
11125,"Morphinan-6-one, 4,5alpha-epoxy-3,14-dihydroxy-17-methyl- (8CI)",540.606,1,CN1CC[C@]23c4c5ccc(O)c4O[C@H]2C(=O)CC[C@@]3(O)[C@H]1C5,le15
11126,"Morphinan-6-ol, 4,5-epoxy-3-methoxy-17-methyl-, (5alpha,6alpha)-",506.35,1,COc1ccc2c3c1O[C@H]1[C@@H](O)CC[C@H]4[C@@H](C2)N(C)CC[C@]314,le15
11127,"4H-1-Benzopyran-4-one, 2-(3,4-dihydroxyphenyl)-3,5,7-trihydroxy-",521.25,1,O=c1c(O)c(-c2ccc(O)c(O)c2)oc2cc(O)cc(O)c12,le15
11128,"Xanthen-9-one, 8-hydroxy-1,3,5-trimethoxy-",466.75,1,COc1cc(OC)c2c(=O)c3c(O)ccc(OC)c3oc2c1,le15
11129,"Naphtho(1,2,3,4-def)chrysene",555.15,1,c1ccc2c(c1)cc1c3ccccc3c3cccc4ccc2c1c43,le15
11130,"1,2-Benzenediol, 4,4'-(2,3-dimethyl-1,4-butanediyl)bis-",520.95,1,CC(Cc1ccc(O)c(O)c1)C(C)Cc1ccc(O)c(O)c1,le15
11131,"5,8,11,14,17-Eicosapentaenoic acid",609.15,1,CCC=CCC=CCC=CCC=CCC=CCCCC(=O)O,le15
11132,"Androst-4-en-3-one, 17-hydroxy-17-methyl-, (17beta)-",458.45,1,C[C@]1(O)CC[C@H]2[C@@H]3CCC4=CC(=O)CC[C@]4(C)[C@H]3CC[C@@]21C,le15
11133,Octadecanoyl chloride,438.15,1,CCCCCCCCCCCCCCCCCC(=O)Cl,le15
11134,"Acetic acid, (2,3-dichloro-4-(2-methylene-1-oxobutyl)phenoxy)-",517.25,1,C=C(CC)C(=O)c1ccc(OCC(=O)O)c(Cl)c1Cl,le15
11135,"Phenol, 2,4-dichloro-, benzenesulfonate",490.15,1,O=S(=O)(Oc1ccc(Cl)cc1Cl)c1ccccc1,le15
11136,"Propane, 1,1,1,2,3,3,3-heptachloro-2-fluoro-",379.35,1,FC(Cl)(C(Cl)(Cl)Cl)C(Cl)(Cl)Cl,le15
11137,"4H-1-Benzopyran-4-one, 7-methoxy-2,3-dimethyl-8-(4-morpholinylmethyl)-",494.95,1,COc1ccc2c(=O)c(C)c(C)oc2c1CN1CCOCC1,le15
11138,"Butane, 2,2,3,3-tetrachloro-1,1,1,4,4,4-hexafluoro-",318.25,1,FC(F)(F)C(Cl)(Cl)C(Cl)(Cl)C(F)(F)F,le15
11139,"Benzenemethanamine, N-(2-chloroethyl)-N-(1-methyl-2-phenoxyethyl)-",457.65,1,CC(COc1ccccc1)N(CCCl)Cc1ccccc1,le15
11140,"Benzenesulfonamide, N,N-dibutyl-4-chloro-",467.15,1,CCCCN(CCCC)S(=O)(=O)c1ccc(Cl)cc1,le15
11141,"1,4-Benzenedicarboxylic acid, 2,3,5,6-tetrachloro-",484.05,1,O=C(O)c1c(Cl)c(Cl)c(C(=O)O)c(Cl)c1Cl,le15
11142,"1,4,5,8-Naphthalenetetracarboxylic acid",687.15,1,O=C(O)c1ccc(C(=O)O)c2c(C(=O)O)ccc(C(=O)O)c12,le15
11143,"Benzenebutanoic acid, 4-(bis(2-chloroethyl)amino)-",505.25,1,O=C(O)CCCc1ccc(N(CCCl)CCCl)cc1,le15
11144,"Dibenz(c,f)indeno(1,2,3-ij)(2,7)naphthyridine",537.65,1,c1ccc2c(c1)-c1nc3ccccc3c3c1c-2nc1ccccc13,le15
11145,"Phthalic acid, butyl cyclohexyl ester (8CI)",457.55,1,CCCCOC(=O)c1ccccc1C(=O)OC1CCCCC1,le15
11146,ethoxy(triphenyl)silane,436.65,1,CCO[Si](c1ccccc1)(c1ccccc1)c1ccccc1,le15
11147,"Androstan-3-one, 17-hydroxy-2-methyl-, (2alpha,5alpha,17beta)- (9CI)",452.55,1,C[C@@H]1C[C@@]2(C)[C@@H](CC[C@H]3[C@@H]4CC[C@H](O)[C@@]4(C)CC[C@@H]32)CC1=O,le15
11148,"1,4-Benzenediamine, N,N'-bis(1,4-dimethylpentyl)-",507.95,1,CC(C)CCC(C)Nc1ccc(NC(C)CCC(C)C)cc1,le15
11149,"1H-Imidazole, 2,4,5-tribromo-",469.65,1,Brc1nc(Br)c(Br)[nH]1,le15
11150,"1,3-Benzenedisulfonamide, 4,5-dichloro-",584.05,1,NS(=O)(=O)c1cc(Cl)c(Cl)c(S(N)(=O)=O)c1,le15
11151,"Alanine, 3-(p-(bis(2-chloroethyl)amino)phenyl)-, DL-",513.05,1,NC(Cc1ccc(N(CCCl)CCCl)cc1)C(=O)O,le15
11152,"Alanine, 3-(p-(bis(2-chloroethyl)amino)phenyl)-, L-",513.05,1,N[C@@H](Cc1ccc(N(CCCl)CCCl)cc1)C(=O)O,le15
11153,"Phosphorothioic acid, O-isopropyl O-methyl O-(4-nitro-m-tolyl) ester",452.15,1,COP(=S)(Oc1cc(C)ccc1[N+](=O)[O-])OC(C)C,le15
11154,1-bromohexadecane,412.95,1,CCCCCCCCCCCCCCCCBr,le15
11155,"6-Nonenamide, 8-methyl-N-vanillyl-, (E)- (8CI)",536.25,1,COc1cc(CNC(=O)CCCC/C=C/C(C)C)ccc1O,le15
11156,"8-Quinolinol, 5-chloro-7-iodo-",438.85,1,Oc1c(I)cc(Cl)c2cccnc12,le15
11157,triphenylarsane,447.783,1,c1ccc([As](c2ccccc2)c2ccccc2)cc1,le15
11158,"Glycine, N,N'-1,3-propanediylbis(N-(carboxymethyl)-",602.25,1,O=C(O)CN(CCCN(CC(=O)O)CC(=O)O)CC(=O)O,le15
11159,"1,3,5-triphenylbenzene",511.15,1,c1ccc(-c2cc(-c3ccccc3)cc(-c3ccccc3)c2)cc1,le15
11160,"2,9-Dimethylpicene",552.25,1,Cc1ccc2ccc3c(ccc4c5cccc(C)c5ccc43)c2c1,le15
11161,"dipentyl benzene-1,2-dicarboxylate",461.95,1,CCCCCOC(=O)c1ccccc1C(=O)OCCCCC,le15
11162,"Phosphoric acid, dimethyl 3,5,6-trichloro-2-pyridinyl ester",425.45,1,COP(=O)(OC)Oc1nc(Cl)c(Cl)cc1Cl,le15
11163,"Phosphonic acid, bis(2-ethylhexyl) ester",465.95,1,CCCCC(CC)CO[PH](=O)OCC(CC)CCCC,le15