compound,flashpoint,pure substance,smiles,source
butyl benzoate,380.15,1,CCCCOC(=O)C1=CC=CC=C1,pubchem
methyl 2-cyanoprop-2-enoate,352.15,1,COC(=O)C(=C)C#N,pubchem
"zinc;N,N-dimethylcarbamodithioate",366.15,1,CN(C)C(=S)[S-].CN(C)C(=S)[S-].[Zn+2],pubchem
"2,4-di(nonyl)phenol",400.15,1,CCCCCCCCCC1=CC(=C(C=C1)O)CCCCCCCCC,pubchem
2-[ethyl(2-hydroxyethyl)amino]ethanol,371.15,1,CCN(CCO)CCO,pubchem
trisodium;2-[2-[bis(carboxylatomethyl)amino]ethyl-(2-hydroxyethyl)amino]acetate,373.15,1,C(CN(CC(=O)[O-])CC(=O)[O-])N(CCO)CC(=O)[O-].[Na+].[Na+].[Na+],pubchem
tris(2-chloroethyl) phosphite,411.15,1,C(CCl)OP(OCCCl)OCCCl,pubchem
benzyl acetate,364.15,1,CC(=O)OCC1=CC=CC=C1,pubchem
2-phenylacetonitrile,375.15,1,C1=CC=C(C=C1)CC#N,pubchem
2-piperazin-1-ylethanamine,366.15,1,C1CN(CCN1)CCN,pubchem
N-[4-(2-chloroacetyl)phenyl]acetamide,383.15,1,CC(=O)NC1=CC=C(C=C1)C(=O)CCl,pubchem
1-methoxy-4-prop-2-enylbenzene,354.15,1,COC1=CC=C(C=C1)CC=C,pubchem
5-ethenyl-2-methylpyridine,347.15,1,CC1=NC=C(C=C1)C=C,pubchem
dibutyl butanedioate,408.15,1,CCCCOC(=O)CCC(=O)OCCCC,pubchem
"2,4,4-trimethylpentane-2-thiol",319.15,1,CC(C)(C)CC(C)(C)S,pubchem
butanoyl chloride,295.15,1,CCCC(=O)Cl,pubchem
4-methylpent-3-en-2-one,296.15,1,CC(=CC(=O)C)C,pubchem
ethyl 3-oxobutanoate,330.15,1,CCOC(=O)CC(=O)C,pubchem
aniline;hydrochloride,466.15,1,C1=CC=C(C=C1)N.Cl,pubchem
hexyl 2-methylprop-2-enoate,355.15,1,CCCCCCOC(=O)C(=C)C,pubchem
N-(2-hydroxyethyl)acetamide,450.15,1,CC(=O)NCCO,pubchem
"1,3-dichloropropane",294.15,1,C(CCl)CCl,pubchem
oxane,253.15,1,C1CCOCC1,pubchem
N-propylpropan-1-amine,290.15,1,CCCNCCC,pubchem
decane-1-thiol,371.15,1,CCCCCCCCCCS,pubchem
N-hexylhexan-1-amine,368.15,1,CCCCCCNCCCCCC,pubchem
2-[2-(2-butoxyethoxy)ethoxy]ethanol,416.15,1,CCCCOCCOCCOCCO,pubchem
hexadecan-1-amine,414.15,1,CCCCCCCCCCCCCCCCN,pubchem
"2,2,4-trimethylpentane-1,3-diol",386.15,1,CC(C)C(C(C)(C)CO)O,pubchem
"2,2,4-trimethyl-1H-quinoline",374.15,1,CC1=CC(NC2=CC=CC=C12)(C)C,pubchem
tris(butylsulfanyl)phosphane,419.15,1,CCCCSP(SCCCC)SCCCC,pubchem
4-methoxyphenol,405.15,1,COC1=CC=C(C=C1)O,pubchem
"1,4-dimethoxybenzene",361.15,1,COC1=CC=C(C=C1)OC,pubchem
4-ethoxyaniline,389.15,1,CCOC1=CC=C(C=C1)N,pubchem
3-aminopropan-1-ol,352.15,1,C(CN)CO,pubchem
fluoranthene,471.15,1,C1=CC=C2C(=C1)C3=CC=CC4=C3C2=CC=C4,pubchem
acenaphthylene,395.15,1,C1=CC2=C3C(=C1)C=CC3=CC=C2,pubchem
1-benzofuran,329.15,1,C1=CC=C2C(=C1)C=CO2,pubchem
7-oxabicyclo[4.1.0]heptane,354.15,1,C1CCC2C(C1)O2,pubchem
"1H-1,2,4-triazole",443.15,1,C1=NC=NN1,pubchem
bis(2-ethylhexyl) hydrogen phosphate,469.15,1,CCCCC(CC)COP(=O)(O)OCC(CC)CCCC,pubchem
tris(2-ethylhexyl) phosphite,444.15,1,CCCCC(CC)COP(OCC(CC)CCCC)OCC(CC)CCCC,pubchem
"1,2-dichloro-4-(trifluoromethyl)benzene",338.15,1,C1=CC(=C(C=C1C(F)(F)F)Cl)Cl,pubchem
methyl trifluoromethanesulfonate,311.15,1,COS(=O)(=O)C(F)(F)F,pubchem
2-fluoroaniline,333.15,1,C1=CC=C(C(=C1)N)F,pubchem
1-fluoro-4-methylbenzene,314.15,1,CC1=CC=C(C=C1)F,pubchem
1-fluoro-3-methylbenzene,282.15,1,CC1=CC(=CC=C1)F,pubchem
ethylsulfanylethane,263.15,1,CCSCC,pubchem
"2,4-difluoroaniline",336.15,1,C1=CC(=C(C=C1F)F)N,pubchem
4-fluoroaniline,347.15,1,C1=CC(=CC=C1N)F,pubchem
2-fluoroethanol,304.15,1,C(CF)O,pubchem
1-nitro-2-(trifluoromethyl)benzene,369.15,1,C1=CC=C(C(=C1)C(F)(F)F)[N+](=O)[O-],pubchem
2-fluorobenzoyl chloride,355.15,1,C1=CC=C(C(=C1)C(=O)Cl)F,pubchem
6-methylhept-5-en-2-one,330.15,1,CC(=CCCC(=O)C)C,pubchem
cyanamide,414.15,1,C(#N)N,pubchem
1-bromo-4-fluorobenzene,333.15,1,C1=CC(=CC=C1F)Br,pubchem
fluorobenzene,258.15,1,C1=CC=C(C=C1)F,pubchem
pyridin-3-amine,463.15,1,C1=CC(=CN=C1)N,pubchem
"3,3-dimethylbutan-2-ol",351.15,1,CC(C(C)(C)C)O,pubchem
prop-2-ynoic acid,331.15,1,C#CC(=O)O,pubchem
"2,6,6-trimethylbicyclo[3.1.1]heptane",313.15,1,CC1CCC2CC1C2(C)C,pubchem
"InChI=1S/C4H4O2/c5-4-2-1-3-6-4/h1-2H,3H2",374.15,1,C1C=CC(=O)O1,pubchem
2-methyl-5-propan-2-ylphenol,373.15,1,CC1=C(C=C(C=C1)C(C)C)O,pubchem
benzyl carbonochloridate,381.15,1,C1=CC=C(C=C1)COC(=O)Cl,pubchem
oxepan-2-one,400.15,1,C1CCC(=O)OCC1,pubchem
nonan-5-one,333.15,1,CCCCC(=O)CCCC,pubchem
2-(fluoromethyl)oxirane,277.15,1,C1C(O1)CF,pubchem
but-2-yne,253.15,1,CC#CC,pubchem
oxetane,245.15,1,C1COC1,pubchem
3-methylbutanoic acid,343.15,1,CC(C)CC(=O)O,pubchem
"2,6-dimethylhepta-2,5-dien-4-one",358.15,1,CC(=CC(=O)C=C(C)C)C,pubchem
pyridin-2-amine,365.15,1,C1=CC=NC(=C1)N,pubchem
"propane-1,3-diol",447.15,1,C(CO)CO,pubchem
"1,3-dioxane",275.15,1,C1COCOC1,pubchem
1-chloro-2-(2-chloroethylsulfanyl)ethane,378.15,1,C(CCl)SCCCl,pubchem
acetyl bromide,348.15,1,CC(=O)Br,pubchem
2-bromo-2-methylpropane,257.15,1,CC(C)(C)Br,pubchem
1-chloro-2-methylpropane,263.15,1,CC(C)CCl,pubchem
1-chloro-2-methylprop-1-ene,272.15,1,CC(=CCl)C,pubchem
2-methylprop-2-en-1-ol,306.15,1,CC(=C)CO,pubchem
butane-2-thiol,250.15,1,CCC(C)S,pubchem
"1,2,3,5-tetramethylbenzene",336.15,1,CC1=CC(=C(C(=C1)C)C)C,pubchem
"1,2-dinitrobenzene",423.15,1,C1=CC=C(C(=C1)[N+](=O)[O-])[N+](=O)[O-],pubchem
2-methylbenzonitrile,357.15,1,CC1=CC=CC=C1C#N,pubchem
2-methylbenzaldehyde,340.15,1,CC1=CC=CC=C1C=O,pubchem
"3,4-dihydro-2H-naphthalen-1-one",402.15,1,C1CC2=CC=CC=C2C(=O)C1,pubchem
2-chloro-1-phenylethanone,391.15,1,C1=CC=C(C=C1)C(=O)CCl,pubchem
2-hydroxy-2-phenylacetonitrile,355.15,1,C1=CC=C(C=C1)C(C#N)O,pubchem
"3,5-dimethyl-1,3,5-thiadiazinane-2-thione",366.15,1,CN1CN(C(=S)SC1)C,pubchem
2-methylfuran,243.15,1,CC1=CC=CO1,pubchem
"2,3-di(octanoyloxy)propyl octanoate",450.15,1,CCCCCCCC(=O)OCC(COC(=O)CCCCCCC)OC(=O)CCCCCCC,pubchem
2-bromoethanol,314.15,1,C(CBr)O,pubchem
1-chloropropane,255.15,1,CCCCl,pubchem
"1,3-dichlorobenzene",336.15,1,C1=CC(=CC(=C1)Cl)Cl,pubchem
chlorocyclohexane,305.15,1,C1CCC(CC1)Cl,pubchem
2-methylpropyl nitrite,250.15,1,CC(C)CON=O,pubchem
2-hydroxyethyl acetate,375.15,1,CC(=O)OCCO,pubchem
3-chloropropanenitrile,349.15,1,C(CCl)C#N,pubchem
1-chloropentane,274.15,1,CCCCCCl,pubchem
1-chlorohexane,308.15,1,CCCCCCCl,pubchem
"2,2,2-trichloroacetonitrile",347.15,1,C(#N)C(Cl)(Cl)Cl,pubchem
1-[bis(aziridin-1-yl)phosphoryl]aziridine,436.15,1,C1CN1P(=O)(N2CC2)N3CC3,pubchem
methyl 2-hydroxypropanoate,324.15,1,CC(C(=O)OC)O,pubchem
"1,3-dioxo-2-benzofuran-5-carboxylic acid",500.15,1,C1=CC2=C(C=C1C(=O)O)C(=O)OC2=O,pubchem
"2,4-dichloroaniline",388.15,1,C1=CC(=C(C=C1Cl)Cl)N,pubchem
3-methylidene-6-propan-2-ylcyclohexene,393.15,1,CC(C)C1CCC(=C)C=C1,pubchem
oxiran-2-ylmethanol,345.15,1,C1C(O1)CO,pubchem
methylimino(sulfanylidene)methane,308.15,1,CN=C=S,pubchem
3-methylbut-2-en-1-ol,323.15,1,CC(=CCO)C,pubchem
zinc;octadecanoate,550.15,1,CCCCCCCCCCCCCCCCCC(=O)[O-].CCCCCCCCCCCCCCCCCC(=O)[O-].[Zn+2],pubchem
3-prop-2-enoxyprop-1-ene,266.15,1,C=CCOCC=C,pubchem
ethenol,352.15,1,C=CO,pubchem
4-methyl-1-propan-2-ylcyclohex-3-en-1-ol,352.15,1,CC1=CCC(CC1)(C(C)C)O,pubchem
tris(3-methylphenyl) phosphate,483.15,1,CC1=CC(=CC=C1)OP(=O)(OC2=CC=CC(=C2)C)OC3=CC=CC(=C3)C,pubchem
3-chloro-2-methylprop-1-ene,260.15,1,CC(=C)CCl,pubchem
3-methylbutan-2-one,279.15,1,CC(C)C(=O)C,pubchem
"2,6-dimethylphenol",347.15,1,CC1=C(C(=CC=C1)C)O,pubchem
"1,2-di(propan-2-yl)benzene",350.15,1,CC(C)C1=CC=CC=C1C(C)C,pubchem
2-ethylaniline,358.15,1,CCC1=CC=CC=C1N,pubchem
2-methylcyclohexan-1-ol,332.15,1,CC1CCCCC1O,pubchem
2-hydroxy-4-methylsulfanylbutanoic acid,394.15,1,CSCCC(C(=O)O)O,pubchem
"butane-1,2-diol",313.15,1,CCC(CO)O,pubchem
"2,4-diisocyanato-1-methylbenzene",405.15,1,CC1=C(C=C(C=C1)N=C=O)N=C=O,pubchem
1-bromoethylbenzene,369.15,1,CC(C1=CC=CC=C1)Br,pubchem
N-phenylaniline,426.15,1,C1=CC=C(C=C1)NC2=CC=CC=C2,pubchem
4-methylcyclohexan-1-ol,343.15,1,CC1CCC(CC1)O,pubchem
1-methylcyclohexan-1-ol,340.15,1,CC1(CCCCC1)O,pubchem
3-methylbutanal,286.15,1,CC(C)CC=O,pubchem
1-bromo-3-methylbenzene,333.15,1,CC1=CC(=CC=C1)Br,pubchem
3-bromophenol,383.15,1,C1=CC(=CC(=C1)Br)O,pubchem
3-methylcyclohexan-1-ol,335.15,1,CC1CCCC(C1)O,pubchem
iodobenzene,350.15,1,C1=CC=C(C=C1)I,pubchem
hexan-2-one,296.15,1,CCCCC(=O)C,pubchem
"penta-1,4-diene",277.15,1,C=CCC=C,pubchem
tridecan-2-one,380.15,1,CCCCCCCCCCCC(=O)C,pubchem
dimethylmercury,278.15,1,C[Hg]C,pubchem
2-chloro-2-nitropropane,330.15,1,CC(C)([N+](=O)[O-])Cl,pubchem
"1,1-dichloro-1-nitroethane",349.15,1,CC([N+](=O)[O-])(Cl)Cl,pubchem
1-bromopropan-2-one,324.15,1,CC(=O)CBr,pubchem
"2,2-dichloroethanol",351.15,1,C(C(Cl)Cl)O,pubchem
3-methylbutan-2-ol,306.15,1,CC(C)C(C)O,pubchem
2-chloropropanoic acid,380.15,1,CC(C(=O)O)Cl,pubchem
"pentane-2,3-dione",292.15,1,CCC(=O)C(=O)C,pubchem
1-chloro-1-nitropropane,335.15,1,CCC([N+](=O)[O-])Cl,pubchem
2-ethylpropanedioic acid,358.15,1,CCC(C(=O)O)C(=O)O,pubchem
"1-methyl-2,3-dinitrobenzene",480.15,1,CC1=C(C(=CC=C1)[N+](=O)[O-])[N+](=O)[O-],pubchem
"N,N-diphenylaniline",453.15,1,C1=CC=C(C=C1)N(C2=CC=CC=C2)C3=CC=CC=C3,pubchem
triphenylphosphane,453.15,1,C1=CC=C(C=C1)P(C2=CC=CC=C2)C3=CC=CC=C3,pubchem
2-amino-2-methylpropan-1-ol,340.15,1,CC(C)(CO)N,pubchem
"2-methyl-1,3-dinitrobenzene",480.15,1,CC1=C(C=CC=C1[N+](=O)[O-])[N+](=O)[O-],pubchem
"N,N,2-trimethylaniline",356.15,1,CC1=CC=CC=C1N(C)C,pubchem
"4-methyl-1,2-dinitrobenzene",480.15,1,CC1=CC(=C(C=C1)[N+](=O)[O-])[N+](=O)[O-],pubchem
1-ethenyl-2-methylbenzene,333.15,1,CC1=CC=CC=C1C=C,pubchem
1-(bromomethyl)-2-chlorobenzene,382.15,1,C1=CC=C(C(=C1)CBr)Cl,pubchem
1-chloro-2-(chloromethyl)benzene,364.15,1,C1=CC=C(C(=C1)CCl)Cl,pubchem
8-methylquinoline,378.15,1,CC1=CC=CC2=C1N=CC=C2,pubchem
7-methylquinoline,383.15,1,CC1=CC2=C(C=CC=N2)C=C1,pubchem
tert-butyl benzenecarboperoxoate,366.15,1,CC(C)(C)OOC(=O)C1=CC=CC=C1,pubchem
"2,4-dibromophenol",386.15,1,C1=CC(=C(C=C1Br)Br)O,pubchem
"2,3-dichloropropan-1-ol",364.15,1,C(C(CCl)Cl)O,pubchem
pyrrolidin-2-one,402.15,1,C1CC(=O)NC1,pubchem
"1,3-dichloro-5-nitrobenzene",413.15,1,C1=C(C=C(C=C1Cl)Cl)[N+](=O)[O-],pubchem
"1-methyl-3,5-dinitrobenzene",480.15,1,CC1=CC(=CC(=C1)[N+](=O)[O-])[N+](=O)[O-],pubchem
"2-methyl-1,4-dinitrobenzene",480.15,1,CC1=C(C=CC(=C1)[N+](=O)[O-])[N+](=O)[O-],pubchem
1-(bromomethyl)-3-methylbenzene,355.15,1,CC1=CC(=CC=C1)CBr,pubchem
3-methylbenzonitrile,360.15,1,CC1=CC=CC(=C1)C#N,pubchem
2-phenylmethoxyethanol,402.15,1,C1=CC=C(C=C1)COCCO,pubchem
2-chloroethenylbenzene,331.15,1,C1=CC=C(C=C1)C=CCl,pubchem
1-ethenyl-4-methylbenzene,325.15,1,CC1=CC=C(C=C1)C=C,pubchem
furan-2-ylmethyl acetate,339.15,1,CC(=O)OCC1=CC=CO1,pubchem
2-acetyloxypropyl acetate,359.15,1,CC(COC(=O)C)OC(=O)C,pubchem
methyl pentanoate,295.15,1,CCCCC(=O)OC,pubchem
methylimino(oxo)methane,266.15,1,CN=C=O,pubchem
2-methylbutan-2-yl acetate,299.15,1,CCC(C)(C)OC(=O)C,pubchem
ethyl nitrate,283.15,1,CCO[N+](=O)[O-],pubchem
"2,5-dimethylfuran",272.15,1,CC1=CC=C(O1)C,pubchem
pentan-2-yl acetate,305.15,1,CCCC(C)OC(=O)C,pubchem
2-ethoxyacetic acid,371.15,1,CCOCC(=O)O,pubchem
3-bromopropan-1-ol,367.15,1,C(CO)CBr,pubchem
3-chloropropan-1-ol,346.15,1,C(CO)CCl,pubchem
dimethyl hexanedioate,380.15,1,COC(=O)CCCCC(=O)OC,pubchem
1-ethoxybutane,277.15,1,CCCCOCC,pubchem
"hexane-1,6-diol",375.15,1,C(CCCO)CCO,pubchem
"1,2-diethoxyethane",308.15,1,CCOCCOCC,pubchem
2-formyloxyethyl formate,366.15,1,C(COC=O)OC=O,pubchem
1-(propyldisulfanyl)propane,339.15,1,CCCSSCCC,pubchem
henicosane,386.15,1,CCCCCCCCCCCCCCCCCCCCC,pubchem
docosane,386.15,1,CCCCCCCCCCCCCCCCCCCCCC,pubchem
pentacosane,393.15,1,CCCCCCCCCCCCCCCCCCCCCCCCC,pubchem
"2,2-dibromoacetic acid",386.15,1,C(C(=O)O)(Br)Br,pubchem
2-ethoxy-2-methylpropane,254.15,1,CCOC(C)(C)C,pubchem
tricosane,386.15,1,CCCCCCCCCCCCCCCCCCCCCCC,pubchem
dichloro(phenyl)phosphane,375.15,1,C1=CC=C(C=C1)P(Cl)Cl,pubchem
1-iodo-3-nitrobenzene,345.15,1,C1=CC(=CC(=C1)I)[N+](=O)[O-],pubchem
"1,3-dioxolane",275.15,1,C1COCO1,pubchem
4-methylideneoxetan-2-one,307.15,1,C=C1CC(=O)O1,pubchem
N-[bis(dimethylamino)phosphoryl]-N-methylmethanamine,379.15,1,CN(C)P(=O)(N(C)C)N(C)C,pubchem
dibutyl(dichloro)stannane,441.15,1,CCCC[Sn](CCCC)(Cl)Cl,pubchem
"N,N-diethylacetamide",350.15,1,CCN(CC)C(=O)C,pubchem
tributyl borate,366.15,1,B(OCCCC)(OCCCC)OCCCC,pubchem
2-ethylhexyl 2-methylprop-2-enoate,365.15,1,CCCCC(CC)COC(=O)C(=C)C,pubchem
4-methylpent-1-ene,241.15,1,CC(C)CC=C,pubchem
"2,4,6-tritert-butylphenol",403.15,1,CC(C)(C)C1=CC(=C(C(=C1)C(C)(C)C)O)C(C)(C)C,pubchem
N-[2-di(propan-2-yloxy)phosphinothioylsulfanylethyl]benzenesulfonamide,588.15,1,CC(C)OP(=S)(OC(C)C)SCCNS(=O)(=O)C1=CC=CC=C1,pubchem
[methoxy(methyl)phosphoryl]oxymethane,316.15,1,COP(=O)(C)OC,pubchem
"S-ethyl N,N-dipropylcarbamothioate",389.15,1,CCCN(CCC)C(=O)SCC,pubchem
"3,4-dichlorobut-1-ene",386.15,1,C=CC(CCl)Cl,pubchem
ethyl 3-ethoxypropanoate,332.15,1,CCOCCC(=O)OCC,pubchem
oxirane-2-carbaldehyde,304.15,1,C1C(O1)C=O,pubchem
N-propan-2-ylaniline,361.15,1,CC(C)NC1=CC=CC=C1,pubchem
"4-N-(4-methylpentan-2-yl)-1-N-phenylbenzene-1,4-diamine",477.15,1,CC(C)CC(C)NC1=CC=C(C=C1)NC2=CC=CC=C2,pubchem
prop-2-enoyl chloride,287.15,1,C=CC(=O)Cl,pubchem
2-hydroxyethyl prop-2-enoate,374.15,1,C=CC(=O)OCCO,pubchem
nonan-2-one,337.15,1,CCCCCCCC(=O)C,pubchem
"1,6-diisocyanatohexane",413.15,1,C(CCCN=C=O)CCN=C=O,pubchem
5-methyl-1H-imidazole,430.15,1,CC1=CN=CN1,pubchem
"(2,6-dimethyl-1,3-dioxan-4-yl) acetate",334.15,1,CC1CC(OC(O1)C)OC(=O)C,pubchem
4-nitro-N-phenylaniline,463.15,1,C1=CC=C(C=C1)NC2=CC=C(C=C2)[N+](=O)[O-],pubchem
2-hydroxyethyl 2-methylprop-2-enoate,370.15,1,CC(=C)C(=O)OCCO,pubchem
1-pentylsulfanylpentane,358.15,1,CCCCCSCCCCC,pubchem
1-methylpyrrolidin-2-one,369.15,1,CN1CCCC1=O,pubchem
"2,4-dichlorobenzaldehyde",408.15,1,C1=CC(=C(C=C1Cl)Cl)C=O,pubchem
2-(2-aminoethoxy)ethanol,400.15,1,C(COCCO)N,pubchem
dodecan-1-amine,451.15,1,CCCCCCCCCCCCN,pubchem
2-ethenyloxirane,227.15,1,C=CC1CO1,pubchem
1-nitrosopyrrolidine,356.15,1,C1CCN(C1)N=O,pubchem
"2,3,6-trichlorophenol",352.15,1,C1=CC(=C(C(=C1Cl)O)Cl)Cl,pubchem
2-ethylnaphthalene,377.15,1,CCC1=CC2=CC=CC=C2C=C1,pubchem
"3-(dimethoxyphosphinothioylsulfanylmethyl)-5-methoxy-1,3,4-thiadiazol-2-one",373.15,1,COC1=NN(C(=O)S1)CSP(=S)(OC)OC,pubchem
2-(aziridin-1-yl)ethanol,340.15,1,C1CN1CCO,pubchem
S-propyl N-butyl-N-ethylcarbamothioate,324.15,1,CCCCN(CC)C(=O)SCCC,pubchem
"2-methyl-N,N-bis(2-methylpropyl)propan-1-amine",324.15,1,CC(C)CN(CC(C)C)CC(C)C,pubchem
butyl(trichloro)stannane,354.15,1,CCCC[Sn](Cl)(Cl)Cl,pubchem
dimethyl pentanedioate,376.15,1,COC(=O)CCCC(=O)OC,pubchem
S-ethyl N-cyclohexyl-N-ethylcarbamothioate,412.15,1,CCN(C1CCCCC1)C(=O)SCC,pubchem
2-(4-methylphenyl)propan-2-ol,369.15,1,CC1=CC=C(C=C1)C(C)(C)O,pubchem
"1,1-diphenylguanidine",443.15,1,C1=CC=C(C=C1)N(C2=CC=CC=C2)C(=N)N,pubchem
2-ethylhexyl diphenyl phosphate,497.15,1,CCCCC(CC)COP(=O)(OC1=CC=CC=C1)OC2=CC=CC=C2,pubchem
didecyl phenyl phosphite,698.15,1,CCCCCCCCCCOP(OCCCCCCCCCC)OC1=CC=CC=C1,pubchem
8-methylnonyl prop-2-enoate,389.15,1,CC(C)CCCCCCCOC(=O)C=C,pubchem
1-chloro-2-ethenylbenzene,332.15,1,C=CC1=CC=CC=C1Cl,pubchem
nonane-1-thiol,351.15,1,CCCCCCCCCS,pubchem
"dimethyl benzene-1,3-dicarboxylate",411.15,1,COC(=O)C1=CC(=CC=C1)C(=O)OC,pubchem
dimethylcyanamide,344.15,1,CN(C)C#N,pubchem
[3-(aminomethyl)phenyl]methanamine,390.15,1,C1=CC(=CC(=C1)CN)CN,pubchem
1-propoxypropan-2-ol,321.15,1,CCCOCC(C)O,pubchem
1-ethoxypropan-2-ol,313.15,1,CCOCC(C)O,pubchem
cyclohexanethiol,316.15,1,C1CCC(CC1)S,pubchem
2-methoxy-2-methylpropane,247.15,1,CC(C)(C)OC,pubchem
heptane-1-thiol,319.15,1,CCCCCCCS,pubchem
6-methylheptan-1-ol,355.15,1,CC(C)CCCCCO,pubchem
1-ethenoxy-2-methoxyethane,291.15,1,COCCOC=C,pubchem
tert-butyl prop-2-enoate,292.15,1,CC(C)(C)OC(=O)C=C,pubchem
"(2,6-dibromo-4-cyanophenyl) octanoate",375.15,1,CCCCCCCC(=O)OC1=C(C=C(C=C1Br)C#N)Br,pubchem
3-(dimethylamino)propanenitrile,337.15,1,CN(C)CCC#N,pubchem
"2,3,7,8-tetrachlorodibenzo-p-dioxin",277.15,1,C1=C2C(=CC(=C1Cl)Cl)OC3=CC(=C(C=C3O2)Cl)Cl,pubchem
4-octylphenol,386.15,1,CCCCCCCCC1=CC=C(C=C1)O,pubchem
octadecan-1-amine,422.15,1,CCCCCCCCCCCCCCCCCCN,pubchem
phenyl carbonochloridate,342.15,1,C1=CC=C(C=C1)OC(=O)Cl,pubchem
"S-propyl N,N-dipropylcarbamothioate",395.15,1,CCCN(CCC)C(=O)SCCC,pubchem
2-chloro-6-(trichloromethyl)pyridine,373.15,1,C1=CC(=NC(=C1)Cl)C(Cl)(Cl)Cl,pubchem
"2-tert-butylbenzene-1,4-diol",444.15,1,CC(C)(C)C1=C(C=CC(=C1)O)O,pubchem
"S-ethyl N,N-bis(2-methylpropyl)carbamothioate",389.15,1,CCSC(=O)N(CC(C)C)CC(C)C,pubchem
2-propan-2-ylnaphthalene,395.15,1,CC(C)C1=CC2=CC=CC=C2C=C1,pubchem
N-pentylpentan-1-amine,324.15,1,CCCCCNCCCCC,pubchem
"hexane-1,6-diamine",354.15,1,C(CCCN)CCN,pubchem
decyl prop-2-enoate,400.15,1,CCCCCCCCCCOC(=O)C=C,pubchem
octyl 2-methylprop-2-enoate,364.15,1,CCCCCCCCOC(=O)C(=C)C,pubchem
"1,6-dichlorohexane",347.15,1,C(CCCCl)CCCl,pubchem
1-(prop-2-enyldisulfanyl)propane,329.15,1,CCCSSCC=C,pubchem
2-[(2-methylphenoxy)methyl]oxirane,366.15,1,CC1=CC=CC=C1OCC2CO2,pubchem
S-ethyl azepane-1-carbothioate,412.15,1,CCSC(=O)N1CCCCCC1,pubchem
"(2,2-dimethyl-3-prop-2-enoyloxypropyl) prop-2-enoate",388.15,1,CC(C)(COC(=O)C=C)COC(=O)C=C,pubchem
"N,N-diethyl-3-oxobutanamide",523.15,1,CCN(CC)C(=O)CC(=O)C,pubchem
2-(oxiran-2-ylmethoxymethyl)oxirane,337.15,1,C1C(O1)COCC2CO2,pubchem
"naphthalene-1,5-diamine",499.15,1,C1=CC2=C(C=CC=C2N)C(=C1)N,pubchem
(5S)-2-methyl-5-prop-1-en-2-ylcyclohex-2-en-1-one,362.15,1,CC1=CCC(CC1=O)C(=C)C,pubchem
2-octyloxirane,351.15,1,CCCCCCCCC1CO1,pubchem
2-(butoxymethyl)oxirane,327.15,1,CCCCOCC1CO1,pubchem
2-(diethylamino)ethyl prop-2-enoate,364.15,1,CCN(CC)CCOC(=O)C=C,pubchem
"2,3,4-trichlorobut-1-ene",336.15,1,C=C(C(CCl)Cl)Cl,pubchem
2-(dimethylamino)ethyl prop-2-enoate,302.15,1,CN(C)CCOC(=O)C=C,pubchem
2-(2-ethylhexoxymethyl)oxirane,370.15,1,CCCCC(CC)COCC1CO1,pubchem
octyl prop-2-enoate,355.15,1,CCCCCCCCOC(=O)C=C,pubchem
hexyl prop-2-enoate,341.15,1,CCCCCCOC(=O)C=C,pubchem
chloro-diethoxy-sulfanylidene-λ5-phosphane,365.15,1,CCOP(=S)(OCC)Cl,pubchem
"5-ethoxy-3-(trichloromethyl)-1,2,4-thiadiazole",427.15,1,CCOC1=NC(=NS1)C(Cl)(Cl)Cl,pubchem
4-dimethoxyphosphinothioyloxybenzonitrile,377.15,1,COP(=S)(OC)OC1=CC=C(C=C1)C#N,pubchem
"1,4-dichloro-2,5-dimethoxybenzene",434.15,1,COC1=CC(=C(C=C1Cl)OC)Cl,pubchem
bromo(triethyl)stannane,372.15,1,CC[Sn](CC)(CC)Br,pubchem
2-propoxyethanol,322.15,1,CCCOCCO,pubchem
prop-2-enyl 3-methylbutanoate,312.15,1,CC(C)CC(=O)OCC=C,pubchem
"3-(aminomethyl)-3,5,5-trimethylcyclohexan-1-amine",383.15,1,CC1(CC(CC(C1)(C)CN)N)C,pubchem
2-decyloxirane,317.15,1,CCCCCCCCCCC1CO1,pubchem
2-(dimethylamino)ethyl 2-methylprop-2-enoate,347.15,1,CC(=C)C(=O)OCCN(C)C,pubchem
octadecane-1-thiol,458.15,1,CCCCCCCCCCCCCCCCCCS,pubchem
hexadecane-1-thiol,375.15,1,CCCCCCCCCCCCCCCCS,pubchem
"hexane-2,5-diol",374.15,1,CC(CCC(C)O)O,pubchem
S-ethyl chloromethanethioate,304.15,1,CCSC(=O)Cl,pubchem
"2-[2-(dimethylamino)ethoxy]-N,N-dimethylethanamine",352.15,1,CN(C)CCOCCN(C)C,pubchem
"2,3-dibromopropyl 2-methylprop-2-enoate",332.15,1,CC(=C)C(=O)OCC(CBr)Br,pubchem
4-methyloxetan-2-one,333.15,1,CC1CC(=O)O1,pubchem
tridecyl prop-2-enoate,405.15,1,CCCCCCCCCCCCCOC(=O)C=C,pubchem
2-(trichloromethyl)oxirane,340.15,1,C1C(O1)C(Cl)(Cl)Cl,pubchem
2-[(4-tert-butylphenoxy)methyl]oxirane,375.15,1,CC(C)(C)C1=CC=C(C=C1)OCC2CO2,pubchem
2-methoxyethyl prop-2-enoate,355.15,1,COCCOC(=O)C=C,pubchem
2-(bromomethyl)oxirane,329.15,1,C1C(O1)CBr,pubchem
isocyanatocyclohexane,322.15,1,C1CCC(CC1)N=C=O,pubchem
"1,5-diisocyanatonaphthalene",428.15,1,C1=CC2=C(C=CC=C2N=C=O)C(=C1)N=C=O,pubchem
"1,2-dichloro-3-nitrobenzene",397.15,1,C1=CC(=C(C(=C1)Cl)Cl)[N+](=O)[O-],pubchem
dipropoxyphosphinothioyloxy-dipropoxy-sulfanylidene-λ5-phosphane,422.15,1,CCCOP(=S)(OCCC)OP(=S)(OCCC)OCCC,pubchem
"2,3-dimethyloxirane",255.15,1,CC1C(O1)C,pubchem
3-methylsulfanylpropanal,334.15,1,CSCCC=O,pubchem
"3-(2-methylpiperidin-1-yl)propyl 3,4-dichlorobenzoate",344.15,1,CC1CCCCN1CCCOC(=O)C2=CC(=C(C=C2)Cl)Cl,pubchem
"diheptyl benzene-1,2-dicarboxylate",497.15,1,CCCCCCCOC(=O)C1=CC=CC=C1C(=O)OCCCCCCC,pubchem
"N,N-diethylhydroxylamine",318.15,1,CCN(CC)O,pubchem
2-(tert-butylamino)ethyl 2-methylprop-2-enoate,369.15,1,CC(=C)C(=O)OCCNC(C)(C)C,pubchem
"hexane-2,3-dione",301.15,1,CCCC(=O)C(=O)C,pubchem
"tris(2,4-dimethylphenyl) phosphate",505.15,1,CC1=CC(=C(C=C1)OP(=O)(OC2=C(C=C(C=C2)C)C)OC3=C(C=C(C=C3)C)C)C,pubchem
2-ethylbutyl prop-2-enoate,325.15,1,CCC(CC)COC(=O)C=C,pubchem
2-(propan-2-yloxymethyl)oxirane,306.15,1,CC(C)OCC1CO1,pubchem