compound,flashpoint,pure substance,smiles,source
"Phosphorodithioic acid, O,O-diethyl S-(2-(ethylthio)ethyl) ester",426.95,1.0,CCOP(=S)(OCC)SCCSCC,le15
"Silane, tris(1,1-dimethylethoxy)ethenyl- (9CI)",388.05,1.0,CC(C)(C)OC([SiH3])=C(OC(C)(C)C)OC(C)(C)C,le15
tetradecylbenzene,433.55,1.0,CCCCCCCCCCCCCCc1ccccc1,le15
"9H-Fluorene-9-carboxylic acid, 2-chloro-9-hydroxy-, methyl ester",484.85,1.0,COC(=O)C1(O)c2ccccc2-c2ccc(Cl)cc21,le15
"Pyridine, 2-(p-chloro-alpha-(2-(dimethylamino)ethyl)benzyl)-",456.15,1.0,CN(C)CCC(c1ccc(Cl)cc1)c1ccccn1,le15
"Acetanilide, 2-bromo-2'-hydroxy-5'-nitro- (8CI)",512.65,1.0,O=C(CBr)Nc1cc([N+](=O)[O-])ccc1O,le15
"Acetophenone, 2-bromo-4'-phenyl- (8CI)",348.25,1.0,O=C(CBr)c1ccc(-c2ccccc2)cc1,le15
"Phosphoric acid, diethyl 4-nitrophenyl ester",435.45,1.0,CCOP(=O)(OCC)Oc1ccc([N+](=O)[O-])cc1,le15
"Phenol, 4-((2,4-dinitrophenyl)amino)-",495.35,1.0,O=[N+]([O-])c1ccc(Nc2ccc(O)cc2)c([N+](=O)[O-])c1,le15
"8H-Benzo(g)-1,3-benzodioxolo(6,5,4-de)quinolin-8-one (9CI)",548.15,1.0,O=C1c2ccccc2-c2c3c(cc4ccnc1c24)OCO3,le15
"Phosphonothioic acid, methyl-, O-(4-nitrophenyl) O-propyl ester",445.75,1.0,CCCOP(C)(=S)Oc1ccc([N+](=O)[O-])cc1,le15
"2H-1-Benzothiopyran-7-sulfonamide, 3,4-dihydro-6-methyl-, 1,1-dioxide",559.05,1.0,Cc1cc2c(cc1S(N)(=O)=O)S(=O)(=O)CCC2,le15
N-(1-piperidin-1-ylpropan-2-yl)-N-pyridin-2-ylpropanamide,474.95,1.0,CCC(=O)N(c1ccccn1)C(C)CN1CCCCC1,le15
"1,3,5-Triazin-2-amine, 4,6-dichloro-N-(2-chlorophenyl)- (9CI)",505.35,1.0,Clc1nc(Cl)nc(Nc2ccccc2Cl)n1,le15
"Succinic acid, 2,3-dibromo- (8CI)",385.65,1.0,O=C(O)C(Br)C(Br)C(=O)O,le15
"Benzene, 1,2,3,4-tetrachloro-5,6-dimethoxy-",395.25,1.0,COc1c(Cl)c(Cl)c(Cl)c(Cl)c1OC,le15
"Benzimidazole, 5,6-dinitro-2-(trifluoromethyl)-",512.95,1.0,O=[N+]([O-])c1cc2nc(C(F)(F)F)[nH]c2cc1[N+](=O)[O-],le15
"1,2-dibromo-1-chloro-1,2,2-trifluoroethane",282.25,1.0,FC(F)(Br)C(F)(Cl)Br,le15
"Benzene, 1,1'-thiobis(4-nitro-",521.75,1.0,O=[N+]([O-])c1ccc(Sc2ccc([N+](=O)[O-])cc2)cc1,le15
"1H-Pyrrole-2,5-dione, 1,1'-(1,6-hexanediyl)bis- (9CI)",491.25,1.0,O=C1C=CC(=O)N1CCCCCCN1C(=O)C=CC1=O,le15
"Dibenzo(def,mno)chrysene",520.3499999999998,1.0,c1cc2ccc3cc4cccc5ccc6cc(c1)c2c3c6c54,le15
"Indeno(1,2,3-cd)pyrene",520.3499999999998,1.0,c1ccc2c(c1)-c1ccc3ccc4cccc5cc-2c1c3c45,le15
Benzo(def)cyclopenta(hi)chrysene,538.45,1.0,c1cc2ccc3c4cccc5ccc(c6ccc(c1)c2c36)c54,le15
"Phosphorothioic acid, O,O-diethyl S-((ethylsulfonyl)methyl) ester",462.85,1.0,CCOP(=O)(OCC)SCS(=O)(=O)CC,le15
"Benzeneacetic acid, alpha-hydroxy-, 3,3,5-trimethylcyclohexyl ester",423.25,1.0,CC1CC(OC(=O)C(O)c2ccccc2)CC(C)(C)C1,le15
"4-Decen-3-one, 1-(4-hydroxy-3-methoxyphenyl)-",423.45,1.0,CCCCCC=CC(=O)CCc1ccc(O)c(OC)c1,le15
"Silane, hydroxytriphenyl-",461.95,1.0,O[Si](c1ccccc1)(c1ccccc1)c1ccccc1,le15
"Silane, triethoxyoctyl-",374.45,1.0,CCOC(CCCCCCC[SiH3])(OCC)OCC,le15
"Benzonitrile, 3,5-dibromo-4-hydroxy-",387.55,1.0,N#Cc1cc(Br)c(O)c(Br)c1,le15
"Acetic acid, (2,4-dichlorophenoxy)-, 2-methylpropyl ester (9CI)",402.05,1.0,CC(C)COC(=O)COc1ccc(Cl)cc1Cl,le15
"Acetic acid, (2,4-dichlorophenoxy)-, butyl ester",405.15,1.0,CCCCOC(=O)COc1ccc(Cl)cc1Cl,le15
"Phosphorothioic acid, O,O-dimethyl O-(3-methyl-4-nitrophenyl) ester",438.35,1.0,COP(=S)(OC)Oc1ccc([N+](=O)[O-])c(C)c1,le15
"Acetamide, N-9H-fluoren-2-yl-2,2,2-trifluoro- (9CI)",475.15,1.0,O=C(Nc1ccc2c(c1)Cc1ccccc1-2)C(F)(F)F,le15
"Phosphorothioic acid, O-ethyl O-methyl O-(4-nitrophenyl) ester (9CI)",438.05,1.0,CCOP(=S)(OC)Oc1ccc([N+](=O)[O-])cc1,le15
"1H-Purine, 6-((1-methyl-4-nitro-1H-imidazol-5-yl)thio)-",641.65,1.0,Cn1cnc([N+](=O)[O-])c1Sc1[nH]cnc2ncnc1-2,le15
1-bromotetradecane,400.45,1.0,CCCCCCCCCCCCCCBr,le15
"Phenol, 4,4'-(2-pyridinylmethylene)bis- (9CI)",506.45,1.0,Oc1ccc(C(c2ccc(O)cc2)c2ccccn2)cc1,le15
bis[[chloro(dimethyl)silyl]oxy]-dimethylsilane,326.45,1.0,C[Si](C)(Cl)O[Si](C)(C)O[Si](C)(C)Cl,le15
"Phenol, 2,6-bis(1,1-dimethylethyl)-4-methyl-, methylcarbamate (9CI)",429.15,1.0,CNC(=O)Oc1c(C(C)(C)C)cc(C)cc1C(C)(C)C,le15
10-chloro-5H-phenarsazinine,469.85,1.0,Cl[As]1c2ccccc2Nc2ccccc21,le15
"Ethanone, 2-bromo-1-(4-bromophenyl)-",387.25,1.0,O=C(CBr)c1ccc(Br)cc1,le15
"Phthalic acid, bis(2,3-epoxypropyl) ester",446.05,1.0,O=C(OCC1CO1)c1ccccc1C(=O)OCC1CO1,le15
"Glycine, N-(2-(bis(carboxymethyl)amino)ethyl)-N-(2-hydroxyethyl)-",573.15,1.0,O=C(O)CN(CCO)CCN(CC(=O)O)CC(=O)O,le15
"Phosphine oxide, triphenyl-",506.95,1.0,O=P(c1ccccc1)(c1ccccc1)c1ccccc1,le15
"2-Naphthalenol, 1-((2-methoxyphenyl)azo)-",495.35,1.0,COc1ccccc1N=Nc1c(O)ccc2ccccc12,le15
"1H-Indene, 2,3-dihydro-1,1,3,3,5-pentamethyl-4,6-dinitro-",418.45,1.0,Cc1c([N+](=O)[O-])cc2c(c1[N+](=O)[O-])C(C)(C)CC2(C)C,le15
"Threitol, 1,4-dimethanesulfonate, (2S,3S)- (8CI)",594.05,1.0,CS(=O)(=O)OC[C@H](O)[C@@H](O)COS(C)(=O)=O,le15
"1H-Purine-2,6-dione, 3,7-dihydro-3,7-dimethyl-1-(5-oxohexyl)-",548.25,1.0,CC(=O)CCCCn1c(=O)c2c(ncn2C)n(C)c1=O,le15
"Dibenz(a,h)anthracene",537.65,1.0,c1ccc2c(c1)ccc1cc3c(ccc4ccccc43)cc12,le15
Benzo(c)chrysene,537.65,1.0,c1ccc2c(c1)ccc1c2ccc2ccc3ccccc3c21,le15
Benzo(a)chrysene,537.65,1.0,c1ccc2c(c1)ccc1c2ccc2c3ccccc3ccc21,le15
"Dibenz(a,j)anthracene",537.65,1.0,c1ccc2c(c1)ccc1cc3ccc4ccccc4c3cc12,le15
"Benzenesulfonamide, 4-amino-N-(4,6-dimethyl-2-pyrimidinyl)-",545.25,1.0,Cc1cc(C)nc(NS(=O)(=O)c2ccc(N)cc2)n1,le15
"1,2-Benzenedicarboxylic acid, bis(2-methylpropyl) ester",427.05,1.0,CC(C)COC(=O)c1ccccc1C(=O)OCC(C)C,le15
"1,4-Benzenedicarboxylic acid, dibutyl ester",453.35,1.0,CCCCOC(=O)c1ccc(C(=O)OCCCC)cc1,le15
"1,2-Benzenedicarboxylic acid, mono(2-ethylhexyl) ester (9CI)",417.25,1.0,CCCCC(CC)COC(=O)c1ccccc1C(=O)[O-],le15
"1,2-Benzenedicarboxylic acid, dibutyl ester",450.55,1.0,CCCCOC(=O)c1ccccc1C(=O)OCCCC,le15
"Pyridine, 2-(1-(4-methylphenyl)-3-(1-pyrrolidinyl)-1-propenyl)-, (E)-",490.25,1.0,Cc1ccc(/C(=C\CN2CCCC2)c2ccccn2)cc1,le15
"Benzene, 1,1',1''-(chloromethylidyne)tris-",451.05,1.0,ClC(c1ccccc1)(c1ccccc1)c1ccccc1,le15
"1H-Indene-1-carboxylic acid, 6-chloro-5-cyclohexyl-2,3-dihydro- (9CI)",483.65,1.0,O=C(O)C1CCc2cc(C3CCCCC3)c(Cl)cc21,le15
"1,2-dichloro-1,1,2-trifluoro-2-iodoethane",289.0499999999999,1.0,FC(F)(Cl)C(F)(Cl)I,le15
"Dibenz(a,j)acridine",513.45,1.0,c1ccc2c(c1)ccc1nc3ccc4ccccc4c3cc12,le15
"Dibenz(c,h)acridine",513.45,1.0,c1ccc2c(c1)ccc1cc3ccc4ccccc4c3nc12,le15
"Dibenz(a,h)acridine",513.45,1.0,c1ccc2c(c1)ccc1nc3c(ccc4ccccc43)cc12,le15
"Salicylaldehyde, 3,5-dibromo- (6CI,7CI,8CI)",384.85,1.0,O=Cc1cc(Br)cc(Br)c1O,le15
"3,5-Dibromo-4-hydroxybenzaldehyde",392.25,1.0,O=Cc1cc(Br)c(O)c(Br)c1,le15
1-iodo-4-phenylbenzene,418.95,1.0,Ic1ccc(-c2ccccc2)cc1,le15
"Benzophenone, 2',5-dichloro-2-methylamino-",499.55,1.0,CNc1ccc(Cl)cc1C(=O)c1ccccc1Cl,le15
"Benzenesulfonamide, 4-amino-N-(3-methoxypyrazinyl)-",522.45,1.0,COc1nccnc1NS(=O)(=O)c1ccc(N)cc1,le15
"2H-1-Benzopyran-2-one, 4-hydroxy-3-(1-phenylpropyl)-",424.95,1.0,CCC(c1ccccc1)c1c(O)c2ccccc2oc1=O,le15
"Benzenesulfonamide, 4-amino-N-(6-methoxy-4-pyrimidinyl)-",537.3499999999998,1.0,COc1cc(NS(=O)(=O)c2ccc(N)cc2)ncn1,le15
"Acetamide, N,N'-9H-fluorene-2,7-diylbis- (9CI)",520.05,1.0,CC(=O)Nc1ccc2c(c1)Cc1cc(NC(C)=O)ccc1-2,le15
"4(3H)-Quinazolinone, 3-(p-ethoxyphenyl)-2-methyl-",504.05,1.0,CCOc1ccc(-n2c(C)nc3ccccc3c2=O)cc1,le15
"6-Ethenyl-6-(methoxyethoxy)-2,5,7,10-tetraoxa-6-silaundecane (9CI)",377.95,1.0,C=C[Si](OCCOC)(OCCOC)OCCOC,le15
"5H-Dibenz(b,f)azepine-5-propanamine, 10,11-dihydro-N,N-dimethyl- (9CI)",452.85,1.0,CN(C)CCCN1c2ccccc2CCc2ccccc21,le15
"9,12-Octadecadienoic acid, (9E,12E)-",546.15,1.0,CCCCC/C=C/C/C=C/CCCCCCCC(=O)O,le15
tetradecylcyclohexane,437.85,1.0,CCCCCCCCCCCCCCC1CCCCC1,le15
"Acetaldehyde, tribromo-",338.15,1.0,O=CC(Br)(Br)Br,le15
"1,2,2-tribromopropane",344.85,1.0,CC(Br)(Br)CBr,le15
"1,1,2-tribromopropane",344.95,1.0,CC(Br)C(Br)Br,le15
"Propane, 1,2,3-tribromo-",366.15,1.0,BrCC(Br)CBr,le15
"Phosphonodithioic acid, ethyl-, S-(4-chlorophenyl) O-ethyl ester",441.25,1.0,CCOP(=S)(CC)Sc1ccc(Cl)cc1,le15
"1,4-Dibromo-2-nitrobenzene",388.05,1.0,O=[N+]([O-])c1cc(Br)ccc1Br,le15
"Benzeneacetic acid, 4-chloro-alpha-(4-chlorophenyl)- (9CI)",475.75,1.0,O=C(O)C(c1ccc(Cl)cc1)c1ccc(Cl)cc1,le15
"Anthranilic acid, N-(alpha,alpha,alpha-trifluoro-m-tolyl)-",453.05,1.0,O=C(O)c1ccccc1Nc1cccc(C(F)(F)F)c1,le15
"2H-1,4-Benzodiazepin-2-one, 1,3-dihydro-7-nitro-5-phenyl-",527.55,1.0,O=C1CN=C(c2ccccc2)c2cc([N+](=O)[O-])ccc2N1,le15
"Adenosine, N-methyl- (8CI)(9CI)",619.45,1.0,CNc1ncnc2c1ncn2[C@@H]1O[C@H](CO)[C@@H](O)[C@H]1O,le15
"Benzenamine, 4-methyl-2,6-dinitro-N,N-dipropyl- (9CI)",475.55,1.0,CCCN(CCC)c1c([N+](=O)[O-])cc(C)cc1[N+](=O)[O-],le15
"Benzenamine, N-(1-ethylpropyl)-3,4-dimethyl-2,6-dinitro- (9CI)",481.55,1.0,CCC(CC)Nc1c([N+](=O)[O-])cc(C)c(C)c1[N+](=O)[O-],le15
"4H-Dibenzo(de,g)quinolin-2-ol, 5,6,6a,7-tetrahydro-1-methoxy-6-methyl-",499.95,1.0,COc1c(O)cc2c3c1-c1ccccc1CC3N(C)CC2,le15
"Morpholine, 4-cyclododecyl-2,6-dimethyl-",382.85,1.0,CC1CN(C2CCCCCCCCCCC2)CC(C)O1,le15
"1,1-diiodoethane",345.65,1.0,CC(I)I,le15
"1,2-diiodoethane",374.05,1.0,ICCI,le15
"2-Pentenedioic acid, 3-((dimethoxyphosphinyl)oxy)-, dimethyl ester",439.95,1.0,COC(=O)C=C(CC(=O)OC)OP(=O)(OC)OC,le15
"2-Anthraquinonecarboxaldehyde, 3-hydroxy-1-methoxy-",478.05,1.0,COc1c(C=O)c(O)cc2c1C(=O)c1ccccc1C2=O,le15
"Phthalic acid, bis(2-methoxyethyl) ester (8CI)",404.75,1.0,COCCOC(=O)c1ccccc1C(=O)OCCOC,le15
"9H-Fluorene-9-carboxylic acid, 9-hydroxy-, butyl ester",405.95,1.0,CCCCOC(=O)C1(O)c2ccccc2-c2ccccc21,le15
"Benzoic acid, 3,4,5-trihydroxy-, octyl ester",450.25,1.0,CCCCCCCCOC(=O)c1cc(O)c(O)c(O)c1,le15
"3,6,9,12,15-Pentaoxaheptadecane-1,17-diol",383.15,1.0,OCCOCCOCCOCCOCCOCCO,le15
"Benzenethiol, 2,3,4,5,6-pentachloro-",417.75,1.0,Sc1c(Cl)c(Cl)c(Cl)c(Cl)c1Cl,le15
"Butanedioic acid, dicyclohexyl ester (9CI)",455.35,1.0,O=C(CCC(=O)OC1CCCCC1)OC1CCCCC1,le15
"(1,1'-Biphenyl)-4-ol, 3,5-bis(1,1-dimethylethyl)-",441.05,1.0,CC(C)(C)c1cc(-c2ccccc2)cc(C(C)(C)C)c1O,le15
"1,4-Benzenediamine, N-(1,4-dimethylpentyl)-N'-phenyl-",525.8499999999998,1.0,CC(C)CCC(C)Nc1ccc(Nc2ccccc2)cc1,le15
"Ethanol, 2,2,2-tribromo-",372.85,1.0,OCC(Br)(Br)Br,le15
1-bromo-2-iodobenzene,377.95,1.0,Brc1ccccc1I,le15
1-bromo-4-iodobenzene,375.05,1.0,Brc1ccc(I)cc1,le15
1-bromo-3-iodobenzene,378.45,1.0,Brc1cccc(I)c1,le15
"Adenine, N-hydroxy-9-ribofuranosyl-",652.55,1.0,OC[C@H]1OC(n2cnc3c(NO)ncnc32)[C@H](O)[C@@H]1O,le15
"Morphinan-3-ol, 17-(2-propenyl)-",487.35,1.0,C=CCN1CC[C@]23CCCC[C@H]2[C@H]1Cc1ccc(O)cc13,le15
"Phosphoric acid, 2-chloroethyl 2,2-dichloroethenyl ethyl ester",397.65,1.0,CCOP(=O)(OC=C(Cl)Cl)OCCCl,le15
Octadecanamide,480.65,1.0,CCCCCCCCCCCCCCCCCC(N)=O,le15
"Benzene, 2,4-dichloro-1-(4-nitrophenoxy)-",445.05,1.0,O=[N+]([O-])c1ccc(Oc2ccc(Cl)cc2Cl)cc1,le15
"Isoflavone, 5,7-dihydroxy-4'-methoxy- (8CI)",471.35,1.0,COc1ccc(-c2coc3cc(O)cc(O)c3c2=O)cc1,le15
"9,10-Anthracenedione, 1,8-dihydroxy-3-methoxy-6-methyl- (9CI)",488.55,1.0,COc1cc(O)c2c(c1)C(=O)c1cc(C)cc(O)c1C2=O,le15
"9H-Purine-6(1H)-thione, 9-beta-D-ribofuranosyl- (8CI)",659.15,1.0,OC[C@H]1O[C@@H](n2cnc3c(=S)[nH]cnc32)[C@H](O)[C@@H]1O,le15
"7H-Benzimidazo(2,1-a)benz(de)isoquinolin-7-one, 10-methyl-",599.3499999999998,1.0,Cc1ccc2nc3c4cccc5cccc(c(=O)n3c2c1)c54,le15
"Acetanilide, 4',4'''-oxybis- (8CI)",562.25,1.0,CC(=O)Nc1ccc(Oc2ccc(NC(C)=O)cc2)cc1,le15
4'-Phenylchalcone,478.65,1.0,O=C(C=Cc1ccccc1)c1ccc(-c2ccccc2)cc1,le15
"1,2-Dihydro-3-methylbenz(j)aceanthrylen- 1-ol",479.95,1.0,Cc1ccc2cc3c(ccc4ccccc43)c3c2c1CC3O,le15
"Benzeneacetamide, N-ethyl-alpha-(hydroxymethyl)-N-(4-pyridinylmethyl)-",524.95,1.0,CCN(Cc1ccncc1)C(=O)C(CO)c1ccccc1,le15
"2-Propenoic acid, 3-phenyl-, 1-ethenyl-1,5-dimethyl-4-hexenyl ester",489.25,1.0,C=CC(C)(CCC=C(C)C)OC(=O)C=Cc1ccccc1,le15
"10H-Phenothiazine-10-propanamine, N,N-dimethyl- (9CI)",476.55,1.0,CN(C)CCCN1c2ccccc2Sc2ccccc21,le15
"Heptadecanoic acid, 16-methyl-",498.75,1.0,CC(C)CCCCCCCCCCCCCCC(=O)O,le15
octadecanoic acid,435.55,1.0,CCCCCCCCCCCCCCCCCC(=O)O,le15
"Myristic acid, butyl ester (8CI)",431.65,1.0,CCCCCCCCCCCCCC(=O)OCCCC,le15
"Urea, tetrabutyl-",405.15,1.0,CCCCN(CCCC)C(=O)N(CCCC)CCCC,le15
"Benzene, hexachloro-",424.25,1.0,Clc1c(Cl)c(Cl)c(Cl)c(Cl)c1Cl,le15
"2H-1,4-Benzodiazepin-2-one, 7-chloro-1,3-dihydro-1-methyl-5-phenyl-",527.75,1.0,CN1C(=O)CN=C(c2ccccc2)c2cc(Cl)ccc21,le15
"1,1,1,2,2,3,3-heptachloropropane",376.05,1.0,ClC(Cl)C(Cl)(Cl)C(Cl)(Cl)Cl,le15
"1,1,1,2,3,3,3-heptachloropropane",372.75,1.0,ClC(C(Cl)(Cl)Cl)C(Cl)(Cl)Cl,le15
"Benzamide, N-9H-fluoren-2-yl- (9CI)",518.65,1.0,O=C(Nc1ccc2c(c1)Cc1ccccc1-2)c1ccccc1,le15
"Morphinan-6-one, 4,5alpha-epoxy-3-hydroxy-17-methyl- (8CI)",514.55,1.0,CN1CC[C@]23c4c5ccc(O)c4O[C@H]2C(=O)CC[C@H]3[C@H]1C5,le15
"Benzoic acid, 4-((dipropylamino)sulfonyl)-",491.85,1.0,CCCN(CCC)S(=O)(=O)c1ccc(C(=O)O)cc1,le15
"Ethanol, 2-chloro-, phosphate (3:1)",505.35,1.0,O=P(O)(O)O.OCCCl.OCCCl.OCCCl,le15
"Dodecanoic acid, 2-thiocyanatoethyl ester (9CI)",465.15,1.0,CCCCCCCCCCCC(=O)OCCSC#N,le15
"Ethanol, 2-(bis(2-ethylhexyl)amino)-",413.05,1.0,CCCCC(CC)CN(CCO)CC(CC)CCCC,le15
"1,3-Isobenzofurandione, 4,5,6,7-tetrachloro-",434.75,1.0,O=C1OC(=O)c2c(Cl)c(Cl)c(Cl)c(Cl)c21,le15
"2,4-Imidazolidinedione, 1,3-dibromo-5,5-dimethyl-",378.25,1.0,CC1(C)C(=O)N(Br)C(=O)N1Br,le15
"1,4-dibromonaphthalene",454.55,1.0,Brc1ccc(Br)c2ccccc12,le15
"9,10-Anthracenedione, 1,4,5,8-tetrahydroxy-2-methyl- (9CI)",591.65,1.0,Cc1cc(O)c2c(c1O)C(=O)c1c(O)ccc(O)c1C2=O,le15
"Anthraquinone, 1,4,5,7-tetrahydroxy-2-methyl- (8CI)",621.75,1.0,Cc1cc(O)c2c(c1O)C(=O)c1cc(O)cc(O)c1C2=O,le15
"9,10-Anthracenedione, 1,3,8-trihydroxy-6-(hydroxymethyl)-",647.55,1.0,O=C1c2cc(O)cc(O)c2C(=O)c2c(O)cc(CO)cc21,le15
"4H-1-Benzopyran-4-one, 3,5,7-trihydroxy-2-(4-hydroxyphenyl)-",499.25,1.0,O=c1c(O)c(-c2ccc(O)cc2)oc2cc(O)cc(O)c12,le15
"Xanthen-9-one, 1,3,7-trimethoxy-",477.55,1.0,COc1cc(OC)c2c(=O)c3cc(OC)ccc3oc2c1,le15
"5,5'-Methylenedianthranilic acid",575.55,1.0,Nc1ccc(Cc2ccc(N)c(C(=O)O)c2)cc1C(=O)O,le15
"Phosphoric acid, dibutyl phenyl ester",442.25,1.0,CCCCOP(=O)(OCCCC)Oc1ccccc1,le15
"Azoxybenzene, 4,4'-diethoxy- (8CI)",493.05,1.0,CCOc1ccc(N=[N+]([O-])c2ccc(OCC)cc2)cc1,le15
bis(2-ethylhexyl) carbonate,404.45,1.0,CCCCC(CC)COC(=O)OCC(CC)CCCC,le15
1-Octadecanethiol,458.15,1.0,CCCCCCCCCCCCCCCCCCS,le15
"Propane, 2,2-difluoro-1,1,1,3,3,3-hexachloro-",352.95,1.0,FC(F)(C(Cl)(Cl)Cl)C(Cl)(Cl)Cl,le15
tribromo(chloro)methane,325.95,1.0,ClC(Br)(Br)Br,le15
4-Bromochalcone,352.75,1.0,O=C(C=Cc1ccc(Br)cc1)c1ccccc1,le15
"2-Propen-1-one, 1-(4-bromophenyl)-3-phenyl-",355.54999999999984,1.0,O=C(C=Cc1ccccc1)c1ccc(Br)cc1,le15
"Benzene, 1,1'-sulfonylbis(4-chloro-",484.35,1.0,O=S(=O)(c1ccc(Cl)cc1)c1ccc(Cl)cc1,le15
Bis(2-hydroxy-5-chlorophenyl)sulfide,478.95,1.0,Oc1ccc(Cl)cc1Sc1cc(Cl)ccc1O,le15
"Benzenamine, N-methyl-N,2,4,6-tetranitro-",531.55,1.0,CN(c1c([N+](=O)[O-])cc([N+](=O)[O-])cc1[N+](=O)[O-])[N+](=O)[O-],le15
"2,2,3-trichloro-1,1,1,3,4,4,4-heptafluorobutane",295.95,1.0,FC(F)(F)C(F)(Cl)C(Cl)(Cl)C(F)(F)F,le15
"Piperidine, 4-(5H-dibenzo(a,d)cyclohepten-5-ylidene)-1-methyl-",467.65,1.0,CN1CCC(=C2c3ccccc3C=Cc3ccccc32)CC1,le15
"N,N-dibenzyl-1-phenylmethanamine",476.15,1.0,c1ccc(CN(Cc2ccccc2)Cc2ccccc2)cc1,le15
Tribenzylamine,476.0,1.0,c1ccc(CN(Cc2ccccc2)Cc2ccccc2)cc1,le15
"7,12-Dihydroxymethylbenz(a)anthracene",556.65,1.0,OCc1c2ccccc2c(CO)c2c1ccc1ccccc12,le15
"Estra-1,3,5(10)-triene-3,16,17-triol, (16alpha,17beta)-",493.95,1.0,C[C@]12CC[C@@H]3c4ccc(O)cc4CC[C@H]3[C@@H]1C[C@@H](O)[C@@H]2O,le15
"Phosphonodithioic acid, ethyl-, S-(p-tert-butylphenyl) O-methyl ester",444.35,1.0,CCP(=S)(OC)Sc1ccc(C(C)(C)C)cc1,le15
"2-Cyclopenten-1-one, 2,3,4,4,5,5-hexachloro-",375.35,1.0,O=C1C(Cl)=C(Cl)C(Cl)(Cl)C1(Cl)Cl,le15
1-chlorooctadecane,457.15,1.0,CCCCCCCCCCCCCCCCCCCl,le15
"Phosphoramidodithioic acid, butyl-, O-ethyl S-phenyl ester",451.75,1.0,CCCCNP(=S)(OCC)Sc1ccccc1,le15
"Cyclopentanecarboxylic acid, 1-phenyl-, 2-(diethylamino)ethyl ester",397.95,1.0,CCN(CC)CCOC(=O)C1(c2ccccc2)CCCC1,le15
"Benzimidazole, 4,5,6-trichloro-2-(trifluoromethyl)-",451.45,1.0,FC(F)(F)c1nc2cc(Cl)c(Cl)c(Cl)c2[nH]1,le15
"Benzonitrile, 4-hydroxy-3-iodo-5-nitro-",396.35,1.0,N#Cc1cc(I)c(O)c([N+](=O)[O-])c1,le15
"Pyrophosphoric acid, tetraethyl ester",398.75,1.0,CCOP(=O)(OCC)OP(=O)(OCC)OCC,le15
"2,4-Pyrimidinediamine, 5-((3,4,5-trimethoxyphenyl)methyl)-",545.05,1.0,COc1cc(Cc2cnc(N)nc2N)cc(OC)c1OC,le15
"Acetamide, N-(4-((4-aminophenyl)sulfonyl)phenyl)- (9CI)",583.45,1.0,CC(=O)Nc1ccc(S(=O)(=O)c2ccc(N)cc2)cc1,le15
"Phosphorothioic acid, O,O-diethyl S-(2-(ethylsulfonyl)ethyl) ester",478.75,1.0,CCOP(=O)(OCC)SCCS(=O)(=O)CC,le15
"Phosphorodithioic acid, O,O-diethyl S-((ethylsulfinyl)ethyl) ester",474.15,1.0,CCOP(=S)(OCC)SCCS(=O)CC,le15
"1,6,10,14-Hexadecatetraen-3-ol, 3,7,11,15-tetramethyl-, (6E,10E)-",433.15,1.0,C=CC(C)(O)CC/C=C(\C)CC/C=C(\C)CCC=C(C)C,le15
"Urea, 3-(p-(p-chlorophenoxy)phenyl)-1,1-dimethyl-",504.75,1.0,CN(C)C(=O)Nc1ccc(Oc2ccc(Cl)cc2)cc1,le15
"Phosphorothioic acid, O,O-diethyl O-(4-nitrophenyl) ester",446.65,1.0,CCOP(=S)(OCC)Oc1ccc([N+](=O)[O-])cc1,le15
"Phosphorothioic acid, O,S-diethyl O-(4-nitrophenyl) ester (9CI)",466.25,1.0,CCOP(=O)(Oc1ccc([N+](=O)[O-])cc1)SCC,le15
"Benzoic acid, 2-((1-naphthalenylamino)carbonyl)- (9CI)",499.55,1.0,O=C(O)c1ccccc1C(=O)Nc1cccc2ccccc12,le15
1-bromopentadecane,406.85,1.0,CCCCCCCCCCCCCCCBr,le15
"2-Pyrazolin-5-one, 4-dimethylaminomethylene-1,3-diphenyl-",467.65,1.0,CN(C)C=C1C(=O)N(c2ccccc2)N=C1c1ccccc1,le15
"11H-Dibenz(b,e)azepine, 6-(4-methyl-1-piperazinyl)-",491.25,1.0,CN1CCN(C2=Nc3ccccc3Cc3ccccc32)CC1,le15
"Phosphoric acid, dimethyl 1,2,2,2-tetrachloroethyl ester",384.35,1.0,COP(=O)(OC)OC(Cl)C(Cl)(Cl)Cl,le15
"1,1'-Biphenyl, 2,2',4,4'-tetrachloro-",433.45,1.0,Clc1ccc(-c2ccc(Cl)cc2Cl)c(Cl)c1,le15
"Glycine, N,N'-1,2-ethanediylbis(N-(carboxymethyl)-",598.3499999999998,1.0,O=C(O)CN(CCN(CC(=O)O)CC(=O)O)CC(=O)O,le15
"2-Naphthalenamine, 1-(2-(4-nitrophenyl)diazenyl)-",558.95,1.0,Nc1ccc2ccccc2c1N=Nc1ccc([N+](=O)[O-])cc1,le15
"Benzenamine, 4,4'-(1,3-phenylenebis(oxy))bis-",544.05,1.0,Nc1ccc(Oc2cccc(Oc3ccc(N)cc3)c2)cc1,le15
"Phosphorodithioic acid, O,O-diethyl S-((ethylsulfonyl)methyl) ester",467.25,1.0,CCOP(=S)(OCC)SCS(=O)(=O)CC,le15
"1H-Indene-2-ethanamine, N,N-dimethyl-3-(1-(2-pyridinyl)ethyl)- (9CI)",478.75,1.0,CC(C1=C(CCN(C)C)Cc2ccccc21)c1ccccn1,le15
"2-Propanol, 1,1',1'',1'''-(1,2-ethanediyldinitrilo)tetrakis-",373.15,1.0,CC(O)CN(CCN(CC(C)O)CC(C)O)CC(C)O,le15
"Cyclotetrasilazane, 2,2,4,4,6,6,8,8-octamethyl-",339.15,1.0,C[Si]1(C)N[Si](C)(C)N[Si](C)(C)N[Si](C)(C)N1,le15
"Propionic acid, 2-methyl-2-phenoxy-, 2-morpholinoethyl ester (8CI)",473.75,1.0,CC(C)(Oc1ccccc1)C(=O)OCCN1CCOCC1,le15
"Piperidine, 1-methyl-4-(9H-thioxanthen-9-ylidene)- (9CI)",492.85,1.0,CN1CCC(=C2c3ccccc3Sc3ccccc32)CC1,le15
"1,2,3,4,5-pentafluoro-6-iodobenzene",334.45,1.0,Fc1c(F)c(F)c(I)c(F)c1F,le15
"1-Iodo-2,4-dinitrobenzene",439.75,1.0,O=[N+]([O-])c1ccc(I)c([N+](=O)[O-])c1,le15
"Ethanone, 1-(4-(1,1-dimethylethyl)-2,6-dimethyl-3,5-dinitrophenyl)-",426.35,1.0,CC(=O)c1c(C)c([N+](=O)[O-])c(C(C)(C)C)c([N+](=O)[O-])c1C,le15
"3,5-Pyrazolidinedione, 1,2-diphenyl-4-propyl-",444.45,1.0,CCCC1C(=O)N(c2ccccc2)N(c2ccccc2)C1=O,le15
"Benzo(b)thiophene-6-carboximidamide, 2-(4-(aminoiminomethyl)phenyl)-",541.65,1.0,N=C(N)c1ccc2cc(-c3ccc(C=NN)cc3)sc2c1,le15
"Linoleic acid, methyl ester (8CI)",370.15,1.0,CCCCC/C=C\C/C=C\CCCCCCCC(=O)OC,le15
"1,2,2-tribromobutane",357.04999999999984,1.0,CCC(Br)(Br)CBr,le15
"2,2,3-tribromobutane",350.35,1.0,CC(Br)C(C)(Br)Br,le15
"1,2-dichloro-3,3,4,4,5,5,6,6-octafluorocyclohexene",306.75,1.0,FC1(F)C(Cl)=C(Cl)C(F)(F)C(F)(F)C1(F)F,le15
"Benzeneacetonitrile, alpha-(beta-D-glucopyranosyloxy)- (9CI)",545.65,1.0,N#CC(O[C@@H]1O[C@H](CO)[C@@H](O)[C@H](O)[C@H]1O)c1ccccc1,le15
"2H-1,4-Benzodiazepin-2-one, 1,3-dihydro-1-methyl-7-nitro-5-phenyl-",553.8499999999998,1.0,CN1C(=O)CN=C(c2ccccc2)c2cc([N+](=O)[O-])ccc21,le15
"Dibenz(a,j)acridine, 7-oxide",572.8499999999998,1.0,[O-][n+]1c2ccc3ccccc3c2cc2c3ccccc3ccc21,le15
"4H-Dibenzo(de,g)quinoline, 5,6,6a,7-tetrahydro-1,2-dimethoxy-6-methyl-",425.05,1.0,COc1cc2c3c(c1OC)-c1ccccc1CC3N(C)CC2,le15
1-isocyanatooctadecane,418.05,1.0,CCCCCCCCCCCCCCCCCCN=C=O,le15
"2H-1,2,4-Benzothiadiazine-7-sulfonamide, 6-chloro-, 1,1-dioxide",595.15,1.0,NS(=O)(=O)c1cc2c(cc1Cl)N=CNS2(=O)=O,le15