smiles,compound,flashpoint,source,pure substance
CC(C)C1=CC=CC=C1C(C)C,"1,2-di(propan-2-yl)benzene",350.15,pubchem,1
CCC1=CC=CC=C1N,2-ethylaniline,358.15,pubchem,1
CC1CCCCC1O,2-methylcyclohexan-1-ol,332.15,pubchem,1
CC1CCCCC1=O,2-methylcyclohexan-1-one,321.15,pubchem,1
CSCCC(C(=O)O)O,2-hydroxy-4-methylsulfanylbutanoic acid,394.15,pubchem,1
CCC(CC)O,pentan-3-ol,303.15,pubchem,1
CCC(CO)O,"butane-1,2-diol",313.15,pubchem,1
CC1=C(C=C(C=C1)N=C=O)N=C=O,"2,4-diisocyanato-1-methylbenzene",405.15,pubchem,1
CC(C1=CC=CC=C1)Br,1-bromoethylbenzene,369.15,pubchem,1
CC1=CCC(=C(C)C)CC1,1-methyl-4-propan-2-ylidenecyclohexene,337.15,pubchem,1
C1=CC=C(C=C1)NC2=CC=CC=C2,N-phenylaniline,426.15,pubchem,1
CC1CCC(CC1)O,4-methylcyclohexan-1-ol,343.15,pubchem,1
CCCCOC(=O)CC,butyl propanoate,311.15,pubchem,1
CC1(CCCCC1)O,1-methylcyclohexan-1-ol,340.15,pubchem,1
CC(C)CC=O,3-methylbutanal,286.15,pubchem,1
CC1=CC(=CC=C1)Br,1-bromo-3-methylbenzene,333.15,pubchem,1
C1=CC(=CC(=C1)Br)O,3-bromophenol,383.15,pubchem,1
CC1CCCC(C1)O,3-methylcyclohexan-1-ol,335.15,pubchem,1
C1=CC=C(C=C1)I,iodobenzene,350.15,pubchem,1
CCCCC(C)C,2-methylhexane,255.15,pubchem,1
CCCCC(=O)C,hexan-2-one,296.15,pubchem,1
CC(=O)OCC=C,prop-2-enyl acetate,295.15,pubchem,1
C=CCC=C,"penta-1,4-diene",277.15,pubchem,1
CCCCCC(C)C,2-methylheptane,277.15,pubchem,1
CCCCC=C,hex-1-ene,247.15,pubchem,1
C1CC=CC=C1,"cyclohexa-1,3-diene",299.15,pubchem,1
CC(=O)OCN=[N+](C)[O-],acetyloxymethylimino-methyl-oxidoazanium,372.15,pubchem,1
CCCCCC=C,hept-1-ene,269.15,pubchem,1
CCCCOC=O,butyl formate,291.15,pubchem,1
CCCCCCCCCCCC(=O)C,tridecan-2-one,380.15,pubchem,1
CCCCCCCCCCCCCCCCCC,octadecane,373.15,pubchem,1
C[Hg]C,dimethylmercury,278.15,pubchem,1
CC(C)([N+](=O)[O-])Cl,2-chloro-2-nitropropane,330.15,pubchem,1
CC([N+](=O)[O-])(Cl)Cl,"1,1-dichloro-1-nitroethane",349.15,pubchem,1
CC(=O)CBr,1-bromopropan-2-one,324.15,pubchem,1
C(C(Cl)Cl)O,"2,2-dichloroethanol",351.15,pubchem,1
CC(C)C(C)O,3-methylbutan-2-ol,306.15,pubchem,1
CC(C(=O)O)Cl,2-chloropropanoic acid,380.15,pubchem,1
CCC(=O)C(=O)C,"pentane-2,3-dione",292.15,pubchem,1
CCC([N+](=O)[O-])Cl,1-chloro-1-nitropropane,335.15,pubchem,1
CCC(C(=O)O)C(=O)O,2-ethylpropanedioic acid,358.15,pubchem,1
CC1=C(C(=CC=C1)[N+](=O)[O-])[N+](=O)[O-],"1-methyl-2,3-dinitrobenzene",480.15,pubchem,1
C1=CC=C(C=C1)N(C2=CC=CC=C2)C3=CC=CC=C3,"N,N-diphenylaniline",453.15,pubchem,1
C1=CC=C(C=C1)P(C2=CC=CC=C2)C3=CC=CC=C3,triphenylphosphane,453.15,pubchem,1
CC(C)(CO)N,2-amino-2-methylpropan-1-ol,340.15,pubchem,1
CC1=C(C=CC=C1[N+](=O)[O-])[N+](=O)[O-],"2-methyl-1,3-dinitrobenzene",480.15,pubchem,1
CC1=CC=CC=C1N(C)C,"N,N,2-trimethylaniline",356.15,pubchem,1
CC1=CC(=C(C=C1)[N+](=O)[O-])[N+](=O)[O-],"4-methyl-1,2-dinitrobenzene",480.15,pubchem,1
CC1=CC=CC=C1C=C,1-ethenyl-2-methylbenzene,333.15,pubchem,1
C1=CC=C(C(=C1)CBr)Cl,1-(bromomethyl)-2-chlorobenzene,382.15,pubchem,1
C1=CC=C(C(=C1)CCl)Cl,1-chloro-2-(chloromethyl)benzene,364.15,pubchem,1
CC1=CC=CC2=C1N=CC=C2,8-methylquinoline,378.15,pubchem,1
CC1=CC2=C(C=CC=N2)C=C1,7-methylquinoline,383.15,pubchem,1
CC(C)(C)OOC(=O)C1=CC=CC=C1,tert-butyl benzenecarboperoxoate,366.15,pubchem,1
C1=CC(=C(C=C1Br)Br)O,"2,4-dibromophenol",386.15,pubchem,1
C(C(CCl)Cl)O,"2,3-dichloropropan-1-ol",364.15,pubchem,1
COC(=O)OC,dimethyl carbonate,272.15,pubchem,1
C1CC(=O)NC1,pyrrolidin-2-one,402.15,pubchem,1
C1=C(C=C(C=C1Cl)Cl)[N+](=O)[O-],"1,3-dichloro-5-nitrobenzene",413.15,pubchem,1
CC1=CC(=CC(=C1)[N+](=O)[O-])[N+](=O)[O-],"1-methyl-3,5-dinitrobenzene",480.15,pubchem,1
CC1=C(C=CC(=C1)[N+](=O)[O-])[N+](=O)[O-],"2-methyl-1,4-dinitrobenzene",480.15,pubchem,1
CC1=CC(=CC=C1)CBr,1-(bromomethyl)-3-methylbenzene,355.15,pubchem,1
CC1=CC=CC(=C1)C#N,3-methylbenzonitrile,360.15,pubchem,1
CCCCCN(CCCCC)CCCCC,"N,N-dipentylpentan-1-amine",375.15,pubchem,1
C1=CC=C(C=C1)COCCO,2-phenylmethoxyethanol,402.15,pubchem,1
C1=CC=C(C=C1)C=CCl,2-chloroethenylbenzene,331.15,pubchem,1
CC(=O)OC1CCCCC1,cyclohexyl acetate,331.15,pubchem,1
CC1=CC=C(C=C1)C=C,1-ethenyl-4-methylbenzene,325.15,pubchem,1
CC(=O)OCC1=CC=CO1,furan-2-ylmethyl acetate,339.15,pubchem,1
CCCC(=O)OC,methyl butanoate,287.15,pubchem,1
CC(COC(=O)C)OC(=O)C,2-acetyloxypropyl acetate,359.15,pubchem,1
CCCCC(=O)OC,methyl pentanoate,295.15,pubchem,1
CCCCCOC(=O)CC,pentyl propanoate,314.15,pubchem,1
CN=C=O,methylimino(oxo)methane,266.15,pubchem,1
CSSC,(methyldisulfanyl)methane,297.15,pubchem,1
CCC(C)(C)OC(=O)C,2-methylbutan-2-yl acetate,299.15,pubchem,1
CC(C)OC=O,propan-2-yl formate,267.15,pubchem,1
CCO[N+](=O)[O-],ethyl nitrate,283.15,pubchem,1
CC1=CC=C(O1)C,"2,5-dimethylfuran",272.15,pubchem,1
CCCC(C)OC(=O)C,pentan-2-yl acetate,305.15,pubchem,1
CCCCC(C)O,hexan-2-ol,314.15,pubchem,1
CCOCC(=O)O,2-ethoxyacetic acid,371.15,pubchem,1
CCCO[N+](=O)[O-],propyl nitrate,293.15,pubchem,1
C(CO)CBr,3-bromopropan-1-ol,367.15,pubchem,1
C(CO)CCl,3-chloropropan-1-ol,346.15,pubchem,1
COC(=O)CCCCC(=O)OC,dimethyl hexanedioate,380.15,pubchem,1
CCCCCOC(=O)C,pentyl acetate,306.15,pubchem,1
CCCCOCC,1-ethoxybutane,277.15,pubchem,1
C(CCCO)CCO,"hexane-1,6-diol",375.15,pubchem,1
CCOCCOCC,"1,2-diethoxyethane",308.15,pubchem,1
C(COC=O)OC=O,2-formyloxyethyl formate,366.15,pubchem,1
CCCSSCCC,1-(propyldisulfanyl)propane,339.15,pubchem,1
CCCCCCCCCCCCC,tridecane,352.15,pubchem,1
CCCCCCCCCCCCCC,tetradecane,373.15,pubchem,1
CCCCCCCCCCCCCCCCC,heptadecane,422.15,pubchem,1
CCCCCCCCCCCCCCCCCCCCC,henicosane,386.15,pubchem,1
CCCCCCCCCCCCCCCCCCCCCC,docosane,386.15,pubchem,1
CCCCCCCCCCCCCCCCCCCCCCCCC,pentacosane,393.15,pubchem,1
C(C(=O)O)(Br)Br,"2,2-dibromoacetic acid",386.15,pubchem,1
CCOC(C)(C)C,2-ethoxy-2-methylpropane,254.15,pubchem,1
CCCCCOC=O,pentyl formate,299.15,pubchem,1
CCCCCCCCCCCCCCCCCCCCCCC,tricosane,386.15,pubchem,1
C1=CC=C(C=C1)P(Cl)Cl,dichloro(phenyl)phosphane,375.15,pubchem,1
C1=CC(=CC(=C1)I)[N+](=O)[O-],1-iodo-3-nitrobenzene,345.15,pubchem,1
CCCC=C(CC)C=O,2-ethylhex-2-enal,341.15,pubchem,1
C1COCO1,"1,3-dioxolane",275.15,pubchem,1
C=C1CC(=O)O1,4-methylideneoxetan-2-one,307.15,pubchem,1
C1CC=CCCC=CCCC=C1,"cyclododeca-1,5,9-triene",344.15,pubchem,1
CN(C)P(=O)(N(C)C)N(C)C,N-[bis(dimethylamino)phosphoryl]-N-methylmethanamine,379.15,pubchem,1
CO[Si](OC)(OC)OC,tetramethyl silicate,369.15,pubchem,1
CCCC[Sn](CCCC)(Cl)Cl,dibutyl(dichloro)stannane,441.15,pubchem,1
CCN(CC)C(=O)C,"N,N-diethylacetamide",350.15,pubchem,1
B(OCCCC)(OCCCC)OCCCC,tributyl borate,366.15,pubchem,1
CCCCC(CC)COC(=O)C(=C)C,2-ethylhexyl 2-methylprop-2-enoate,365.15,pubchem,1
CC(C)CC=C,4-methylpent-1-ene,241.15,pubchem,1
CC(C)C1CCCCC1,propan-2-ylcyclohexane,309.15,pubchem,1
CC(C)(C)C1=CC(=C(C(=C1)C(C)(C)C)O)C(C)(C)C,"2,4,6-tritert-butylphenol",403.15,pubchem,1
CC(C)OP(=S)(OC(C)C)SCCNS(=O)(=O)C1=CC=CC=C1,N-[2-di(propan-2-yloxy)phosphinothioylsulfanylethyl]benzenesulfonamide,588.15,pubchem,1
COP(=O)(C)OC,[methoxy(methyl)phosphoryl]oxymethane,316.15,pubchem,1
CCCN(CCC)C(=O)SCC,"S-ethyl N,N-dipropylcarbamothioate",389.15,pubchem,1
C=CC(CCl)Cl,"3,4-dichlorobut-1-ene",386.15,pubchem,1
CCCC(=C)C,2-methylpent-1-ene,247.15,pubchem,1
CCOCCC(=O)OCC,ethyl 3-ethoxypropanoate,332.15,pubchem,1
C1C(O1)C=O,oxirane-2-carbaldehyde,304.15,pubchem,1
CC(C)NC1=CC=CC=C1,N-propan-2-ylaniline,361.15,pubchem,1
CC(C)CC(C)NC1=CC=C(C=C1)NC2=CC=CC=C2,"4-N-(4-methylpentan-2-yl)-1-N-phenylbenzene-1,4-diamine",477.15,pubchem,1
C=CC(=O)Cl,prop-2-enoyl chloride,287.15,pubchem,1
C=CC(=O)OCCO,2-hydroxyethyl prop-2-enoate,374.15,pubchem,1
CCCCCCCC(=O)C,nonan-2-one,337.15,pubchem,1
CCCCCCCCCC=C,undec-1-ene,344.15,pubchem,1
C(CCCN=C=O)CCN=C=O,"1,6-diisocyanatohexane",413.15,pubchem,1
CC1=CN=CN1,5-methyl-1H-imidazole,430.15,pubchem,1
CC1CC(OC(O1)C)OC(=O)C,"(2,6-dimethyl-1,3-dioxan-4-yl) acetate",334.15,pubchem,1
C1=CC=C(C=C1)NC2=CC=C(C=C2)[N+](=O)[O-],4-nitro-N-phenylaniline,463.15,pubchem,1
CC(=C)C(=O)OCCO,2-hydroxyethyl 2-methylprop-2-enoate,370.15,pubchem,1
CCCCCCCCC=C,dec-1-ene,326.15,pubchem,1
CCCCCSCCCCC,1-pentylsulfanylpentane,358.15,pubchem,1
CN1CCCC1=O,1-methylpyrrolidin-2-one,369.15,pubchem,1
C1=CC(=C(C=C1Cl)Cl)C=O,"2,4-dichlorobenzaldehyde",408.15,pubchem,1
CCO[Si](CCCN)(OCC)OCC,3-triethoxysilylpropan-1-amine,371.15,pubchem,1
CC(=CC=C)C,"4-methylpenta-1,3-diene",239.15,pubchem,1
CC(=CCCl)Cl,"1,3-dichlorobut-2-ene",300.15,pubchem,1
C(COCCO)N,2-(2-aminoethoxy)ethanol,400.15,pubchem,1
CCCCCCCCCCCCN,dodecan-1-amine,451.15,pubchem,1
C=CC1CO1,2-ethenyloxirane,227.15,pubchem,1
C1CCN(C1)N=O,1-nitrosopyrrolidine,356.15,pubchem,1
C1=CC(=C(C(=C1Cl)O)Cl)Cl,"2,3,6-trichlorophenol",352.15,pubchem,1
CCC1=CC2=CC=CC=C2C=C1,2-ethylnaphthalene,377.15,pubchem,1
COC1=NN(C(=O)S1)CSP(=S)(OC)OC,"3-(dimethoxyphosphinothioylsulfanylmethyl)-5-methoxy-1,3,4-thiadiazol-2-one",373.15,pubchem,1
C[Si](C)(C)N[Si](C)(C)C,[dimethyl-(trimethylsilylamino)silyl]methane,282.15,pubchem,1
C1CN1CCO,2-(aziridin-1-yl)ethanol,340.15,pubchem,1
CCCCN(CC)C(=O)SCCC,S-propyl N-butyl-N-ethylcarbamothioate,324.15,pubchem,1
CC(C)CN(CC(C)C)CC(C)C,"2-methyl-N,N-bis(2-methylpropyl)propan-1-amine",324.15,pubchem,1
CCCC[Sn](Cl)(Cl)Cl,butyl(trichloro)stannane,354.15,pubchem,1
COC(=O)CCCC(=O)OC,dimethyl pentanedioate,376.15,pubchem,1
CCCCCCCCCCC,undecane,338.15,pubchem,1
CCCCCCCCCCCCC=C,tetradec-1-ene,383.15,pubchem,1
CCN(C1CCCCC1)C(=O)SCC,S-ethyl N-cyclohexyl-N-ethylcarbamothioate,412.15,pubchem,1
CC1=CC=C(C=C1)C(C)(C)O,2-(4-methylphenyl)propan-2-ol,369.15,pubchem,1
C1=CC=C(C=C1)N(C2=CC=CC=C2)C(=N)N,"1,1-diphenylguanidine",443.15,pubchem,1
CCCCC(CC)COP(=O)(OC1=CC=CC=C1)OC2=CC=CC=C2,2-ethylhexyl diphenyl phosphate,497.15,pubchem,1
CCCCCCCCCCOP(OCCCCCCCCCC)OC1=CC=CC=C1,didecyl phenyl phosphite,698.15,pubchem,1
CC(C)CCCCCCC=O,8-methylnonanal,358.15,pubchem,1
CC1(C2CCC(=C)C1C2)C,"6,6-dimethyl-2-methylidenebicyclo[3.1.1]heptane",304.15,pubchem,1
CC(C)CCCCCCCOC(=O)C=C,8-methylnonyl prop-2-enoate,389.15,pubchem,1
C=CC1=CC=CC=C1Cl,1-chloro-2-ethenylbenzene,332.15,pubchem,1
CCCCCCCCCS,nonane-1-thiol,351.15,pubchem,1
COC(=O)C1=CC(=CC=C1)C(=O)OC,"dimethyl benzene-1,3-dicarboxylate",411.15,pubchem,1
CN(C)C#N,dimethylcyanamide,344.15,pubchem,1
C(C=CCCl)Cl,"1,4-dichlorobut-2-ene",326.15,pubchem,1
C1=CC(=CC(=C1)CN)CN,[3-(aminomethyl)phenyl]methanamine,390.15,pubchem,1
C([Si](Cl)(Cl)Cl)Cl,trichloro(chloromethyl)silane,342.15,pubchem,1
CCCOCC(C)O,1-propoxypropan-2-ol,321.15,pubchem,1
CCOCC(C)O,1-ethoxypropan-2-ol,313.15,pubchem,1
C1CCC(CC1)S,cyclohexanethiol,316.15,pubchem,1
CC=CC=C,"penta-1,3-diene",245.15,pubchem,1
CC(C)(C)OC,2-methoxy-2-methylpropane,247.15,pubchem,1
CCCCCCCS,heptane-1-thiol,319.15,pubchem,1
CC(C)CCCCCO,6-methylheptan-1-ol,355.15,pubchem,1
COCCOC=C,1-ethenoxy-2-methoxyethane,291.15,pubchem,1
CC(C)(C)OC(=O)C=C,tert-butyl prop-2-enoate,292.15,pubchem,1
CCC1CCCCC1,ethylcyclohexane,308.15,pubchem,1
CCCCCCCC(=O)OC1=C(C=C(C=C1Br)C#N)Br,"(2,6-dibromo-4-cyanophenyl) octanoate",375.15,pubchem,1
CC[Si](CC)(Cl)Cl,dichloro(diethyl)silane,297.15,pubchem,1
CCCCCCCCCC,decane,319.15,pubchem,1
CN(C)CCC#N,3-(dimethylamino)propanenitrile,337.15,pubchem,1
C1=C2C(=CC(=C1Cl)Cl)OC3=CC(=C(C=C3O2)Cl)Cl,"2,3,7,8-tetrachlorodibenzo-p-dioxin",277.15,pubchem,1
CCCCCCCCC1=CC=C(C=C1)O,4-octylphenol,386.15,pubchem,1
CCCCCCCCCCCCCCCCCCN,octadecan-1-amine,422.15,pubchem,1
C1=CC=C(C=C1)OC(=O)Cl,phenyl carbonochloridate,342.15,pubchem,1
CCCN(CCC)C(=O)SCCC,"S-propyl N,N-dipropylcarbamothioate",395.15,pubchem,1
C1=CC(=NC(=C1)Cl)C(Cl)(Cl)Cl,2-chloro-6-(trichloromethyl)pyridine,373.15,pubchem,1
CC(C)(C)C1=C(C=CC(=C1)O)O,"2-tert-butylbenzene-1,4-diol",444.15,pubchem,1
CCSC(=O)N(CC(C)C)CC(C)C,"S-ethyl N,N-bis(2-methylpropyl)carbamothioate",389.15,pubchem,1
CC(C)C1=CC2=CC=CC=C2C=C1,2-propan-2-ylnaphthalene,395.15,pubchem,1
CCCCCNCCCCC,N-pentylpentan-1-amine,324.15,pubchem,1
C(CCCN)CCN,"hexane-1,6-diamine",354.15,pubchem,1
CCCCCCCCCCOC(=O)C=C,decyl prop-2-enoate,400.15,pubchem,1
CCCCCCCCOC(=O)C(=C)C,octyl 2-methylprop-2-enoate,364.15,pubchem,1
C(CCCCl)CCCl,"1,6-dichlorohexane",347.15,pubchem,1
CCCSSCC=C,1-(prop-2-enyldisulfanyl)propane,329.15,pubchem,1
CCCOC(=O)C(=C)C,propyl 2-methylprop-2-enoate,303.15,pubchem,1
CC1=CC=CC=C1OCC2CO2,2-[(2-methylphenoxy)methyl]oxirane,366.15,pubchem,1
CCSC(=O)N1CCCCCC1,S-ethyl azepane-1-carbothioate,412.15,pubchem,1
CC1CCC(C(C1)O)C(C)C,"(1R,2S,5R)-5-methyl-2-propan-2-ylcyclohexan-1-ol",364.15,pubchem,1
CC(C)(COC(=O)C=C)COC(=O)C=C,"(2,2-dimethyl-3-prop-2-enoyloxypropyl) prop-2-enoate",388.15,pubchem,1
CCN(CC)C(=O)CC(=O)C,"N,N-diethyl-3-oxobutanamide",523.15,pubchem,1
C1C(O1)COCC2CO2,2-(oxiran-2-ylmethoxymethyl)oxirane,337.15,pubchem,1
C1=CC2=C(C=CC=C2N)C(=C1)N,"naphthalene-1,5-diamine",499.15,pubchem,1
CC1=CCC(CC1=O)C(=C)C,(5S)-2-methyl-5-prop-1-en-2-ylcyclohex-2-en-1-one,362.15,pubchem,1
CCCCCCCCC1CO1,2-octyloxirane,351.15,pubchem,1
CCCCOCC1CO1,2-(butoxymethyl)oxirane,327.15,pubchem,1
CCN(CC)CCOC(=O)C=C,2-(diethylamino)ethyl prop-2-enoate,364.15,pubchem,1
C=C(C(CCl)Cl)Cl,"2,3,4-trichlorobut-1-ene",336.15,pubchem,1
CCCCCCCCCCCC=C,tridec-1-ene,352.15,pubchem,1
CN(C)CCOC(=O)C=C,2-(dimethylamino)ethyl prop-2-enoate,302.15,pubchem,1
CCCCC(CC)COCC1CO1,2-(2-ethylhexoxymethyl)oxirane,370.15,pubchem,1
CCCCCCCCOC(=O)C=C,octyl prop-2-enoate,355.15,pubchem,1
CCCCCCOC(=O)C=C,hexyl prop-2-enoate,341.15,pubchem,1
CCOP(=S)(OCC)Cl,chloro-diethoxy-sulfanylidene-λ5-phosphane,365.15,pubchem,1
CC(=C)C(=O)OCCC[Si](OC)(OC)OC,3-trimethoxysilylpropyl 2-methylprop-2-enoate,365.15,pubchem,1
CCOC1=NC(=NS1)C(Cl)(Cl)Cl,"5-ethoxy-3-(trichloromethyl)-1,2,4-thiadiazole",427.15,pubchem,1
COP(=S)(OC)OC1=CC=C(C=C1)C#N,4-dimethoxyphosphinothioyloxybenzonitrile,377.15,pubchem,1
COC1=CC(=C(C=C1Cl)OC)Cl,"1,4-dichloro-2,5-dimethoxybenzene",434.15,pubchem,1
CC[Sn](CC)(CC)Br,bromo(triethyl)stannane,372.15,pubchem,1
CCCOCCO,2-propoxyethanol,322.15,pubchem,1
CC(C)CC(=O)OCC=C,prop-2-enyl 3-methylbutanoate,312.15,pubchem,1
CC1(CC(CC(C1)(C)CN)N)C,"3-(aminomethyl)-3,5,5-trimethylcyclohexan-1-amine",383.15,pubchem,1
CCCCCCCCCCC1CO1,2-decyloxirane,317.15,pubchem,1
CC(=C)C(=O)OCCN(C)C,2-(dimethylamino)ethyl 2-methylprop-2-enoate,347.15,pubchem,1
CCCCCCCCCCCCCCCCCCS,octadecane-1-thiol,458.15,pubchem,1
CCCCCCCCCCCCCCCCS,hexadecane-1-thiol,375.15,pubchem,1
CC(CCC(C)O)O,"hexane-2,5-diol",374.15,pubchem,1
C=CCOC(=O)Cl,prop-2-enyl carbonochloridate,304.15,pubchem,1
CCSC(=O)Cl,S-ethyl chloromethanethioate,304.15,pubchem,1
CN(C)CCOCCN(C)C,"2-[2-(dimethylamino)ethoxy]-N,N-dimethylethanamine",352.15,pubchem,1
CC(=C)C(=O)OCC(CBr)Br,"2,3-dibromopropyl 2-methylprop-2-enoate",332.15,pubchem,1
CC1CC(=O)O1,4-methyloxetan-2-one,333.15,pubchem,1
CCCCCCCCCCCCCOC(=O)C=C,tridecyl prop-2-enoate,405.15,pubchem,1
C1C(O1)C(Cl)(Cl)Cl,2-(trichloromethyl)oxirane,340.15,pubchem,1
CC(C)(C)C1=CC=C(C=C1)OCC2CO2,2-[(4-tert-butylphenoxy)methyl]oxirane,375.15,pubchem,1
COCCOC(=O)C=C,2-methoxyethyl prop-2-enoate,355.15,pubchem,1
C1C(O1)CBr,2-(bromomethyl)oxirane,329.15,pubchem,1
C1CCC(CC1)N=C=O,isocyanatocyclohexane,322.15,pubchem,1
C1=CC2=C(C=CC=C2N=C=O)C(=C1)N=C=O,"1,5-diisocyanatonaphthalene",428.15,pubchem,1
C1=CC(=C(C(=C1)Cl)Cl)[N+](=O)[O-],"1,2-dichloro-3-nitrobenzene",397.15,pubchem,1
CCCOP(=S)(OCCC)OP(=S)(OCCC)OCCC,dipropoxyphosphinothioyloxy-dipropoxy-sulfanylidene-λ5-phosphane,422.15,pubchem,1
CC1C(O1)C,"2,3-dimethyloxirane",255.15,pubchem,1
CSCCC=O,3-methylsulfanylpropanal,334.15,pubchem,1
CC(CCO)CC(C)(C)C,"3,5,5-trimethylhexan-1-ol",366.15,pubchem,1
CC1CCCCN1CCCOC(=O)C2=CC(=C(C=C2)Cl)Cl,"3-(2-methylpiperidin-1-yl)propyl 3,4-dichlorobenzoate",344.15,pubchem,1
CC(C)CCC(C)(C)C,"2,2,5-trimethylhexane",304.15,pubchem,1
CC1CCC(C(C1)O)C(C)C,"(1R,2R,5R)-5-methyl-2-propan-2-ylcyclohexan-1-ol",364.15,pubchem,1
CCCCCCCOC(=O)C1=CC=CC=C1C(=O)OCCCCCCC,"diheptyl benzene-1,2-dicarboxylate",497.15,pubchem,1
C=CCCCCC=C,"octa-1,7-diene",282.15,pubchem,1
CCN(CC)O,"N,N-diethylhydroxylamine",318.15,pubchem,1
CC=CC(=O)O,but-2-enoic acid,361.15,pubchem,1
CC(=C)C(=O)OCCNC(C)(C)C,2-(tert-butylamino)ethyl 2-methylprop-2-enoate,369.15,pubchem,1
CCCC(=O)C(=O)C,"hexane-2,3-dione",301.15,pubchem,1
CC1=CC(=C(C=C1)OP(=O)(OC2=C(C=C(C=C2)C)C)OC3=C(C=C(C=C3)C)C)C,"tris(2,4-dimethylphenyl) phosphate",505.15,pubchem,1
CCC(CC)COC(=O)C=C,2-ethylbutyl prop-2-enoate,325.15,pubchem,1
CC(C)OCC1CO1,2-(propan-2-yloxymethyl)oxirane,306.15,pubchem,1
C=CC(=O)OCCOCCOC(=O)C=C,2-(2-prop-2-enoyloxyethoxy)ethyl prop-2-enoate,351.15,pubchem,1
CCCCCCC(C)O,octan-2-ol,349.15,pubchem,1
CC(CCOC(=O)C)OC,3-methoxybutyl acetate,350.15,pubchem,1
CCCCN(CC)N=O,N-butyl-N-ethylnitrous amide,366.15,pubchem,1
CC(CCC#N)C#N,2-methylpentanedinitrile,399.15,pubchem,1
CC(C)OC(=O)C(=C)C,propan-2-yl 2-methylprop-2-enoate,294.15,pubchem,1
CC1CC(=O)C=C2C1(CC(CC2)C(=C)C)C,"4,4a-dimethyl-6-prop-1-en-2-yl-3,4,5,6,7,8-hexahydronaphthalen-2-one",373.15,pubchem,1
CCCCOCC(C)O,1-butoxypropan-2-ol,336.15,pubchem,1
CC1=C(SCCO1)C(=O)NC2=CC=CC=C2,"6-methyl-N-phenyl-2,3-dihydro-1,4-oxathiine-5-carboxamide",476.15,pubchem,1
CC1=C(S(=O)(=O)CCO1)C(=O)NC2=CC=CC=C2,"6-methyl-4,4-dioxo-N-phenyl-2,3-dihydro-1,4-oxathiine-5-carboxamide",492.15,pubchem,1
C(COC(=O)N)O,2-hydroxyethyl carbamate,461.15,pubchem,1
B(OC(C)C)(OC(C)C)OC(C)C,tripropan-2-yl borate,301.15,pubchem,1
CC(CC=O)CC(C)(C)C,"3,5,5-trimethylhexanal",389.15,pubchem,1
CCNC1CCCCC1,N-ethylcyclohexanamine,302.15,pubchem,1
C1CCC(C(C1)C(=O)OCC2CO2)C(=O)OCC3CO3,"bis(oxiran-2-ylmethyl) cyclohexane-1,2-dicarboxylate",463.15,pubchem,1
CCCC[O-].CCCC[O-].CCCC[O-].CCCC[O-].[Ti+4],butan-1-olate;titanium(4+),350.15,pubchem,1
COP(=S)(OC)OC1=NC(=C(C=C1Cl)Cl)Cl,"dimethoxy-sulfanylidene-(3,5,6-trichloropyridin-2-yl)oxy-λ5-phosphane",455.15,pubchem,1
C1=CC(=O)NNC1=O,"1,2-dihydropyridazine-3,6-dione",573.15,pubchem,1
CCCCCCCCCCCCCCCC[Si](Cl)(Cl)Cl,trichloro(hexadecyl)silane,419.15,pubchem,1
CC1=CCC(CC1)C(=C)C,1-methyl-4-prop-1-en-2-ylcyclohexene,319.15,pubchem,1
CCCC(C)O,pentan-2-ol,308.15,pubchem,1
CCCCC(CC)COC(=O)C1=CC=C(C=C1)C(=O)OCC(CC)CCCC,"bis(2-ethylhexyl) benzene-1,4-dicarboxylate",511.15,pubchem,1
CCCCCCCCCCCC1=CC=CC=C1,undecylbenzene,414.15,pubchem,1
CC(C)C(C(C)(C)COC(=O)C(C)C)OC(=O)C(C)C,"[2,2,4-trimethyl-3-(2-methylpropanoyloxy)pentyl] 2-methylpropanoate",394.15,pubchem,1
CCCCN(C)N=O,N-butyl-N-methylnitrous amide,305.15,pubchem,1
C1=CC=C(C=C1)C=C([N+](=O)[O-])Br,(2-bromo-2-nitroethenyl)benzene,327.15,pubchem,1
CCCC[Si](Cl)(Cl)Cl,butyl(trichloro)silane,325.15,pubchem,1
CC(C)(C)OCC1CO1,2-[(2-methylpropan-2-yl)oxymethyl]oxirane,316.15,pubchem,1
[O-]S(=O)S(=O)[O-].[Na+].[Na+],"InChI=1S/2Na.H2O4S2/c;;1-5(2)6(3)4/h;;(H,1,2)(H,3,4)/q2*+1;/p-2",373.15,pubchem,1
CC(C)(C)C1=C(C=CC(=C1)O)OC.CC(C)(C)C1=C(C=CC(=C1)OC)O,2-tert-butyl-4-methoxyphenol;3-tert-butyl-4-methoxyphenol,386.15,pubchem,1
C1=CC=C(C=C1)C2=CC=CC=C2.C1=CC=C(C=C1)OC2=CC=CC=C2,"1,1'-biphenyl;phenoxybenzene",397.15,pubchem,1
CC(C)CCCCCOC(=O)COC1=C(C=C(C=C1)Cl)Cl,"6-methylheptyl 2-(2,4-dichlorophenoxy)acetate",321.15,pubchem,1
CC1=CCCC(C1C=CC(=O)C)(C)C,"4-(2,6,6-trimethylcyclohex-2-en-1-yl)but-3-en-2-one",391.15,pubchem,1
C[Si](C)(C)O[Si](C)(C)O[Si](C)(C)C,dimethyl-bis(trimethylsilyloxy)silane,408.15,pubchem,1
CCOP(=O)(OCC)SCCSCC.CCOP(=S)(OCC)OCCSCC,diethoxy-(2-ethylsulfanylethoxy)-sulfanylidene-λ5-phosphane;1-diethoxyphosphorylsulfanyl-2-ethylsulfanylethane,318.15,pubchem,1
C(C=CCl)Cl,"(E)-1,3-dichloroprop-1-ene",308.15,pubchem,1
CC(CN(CC(C)O)CC(C)O)O,1-[bis(2-hydroxypropyl)amino]propan-2-ol,433.15,pubchem,1
CC(C)NC1=NC(=NC(=N1)NC2CC2)Cl,"6-chloro-4-N-cyclopropyl-2-N-propan-2-yl-1,3,5-triazine-2,4-diamine",436.15,pubchem,1
CC1=CC(=CC=C1)NC(=O)OC2=CC=CC(=C2)NC(=O)OC,[3-(methoxycarbonylamino)phenyl] N-(3-methylphenyl)carbamate,347.15,pubchem,1
CCCCCCCCCCCCCCCCCC(=O)OCCO,2-hydroxyethyl octadecanoate,533.15,pubchem,1
C[Si](C)(C)O[Si](C)(C)C,trimethyl(trimethylsilyloxy)silane,243.15,pubchem,1
S(SCl)Cl,chlorosulfanyl thiohypochlorite,391.15,pubchem,1
CCC(C)N,butan-2-amine,264.15,pubchem,1
CCCCNC1CCCCC1,N-butylcyclohexanamine,366.15,pubchem,1
CC(=O)OC(CCl)Cl,"1,2-dichloroethyl acetate",426.15,pubchem,1
CCC(C)C(C)CO,"2,3-dimethylpentan-1-ol",334.15,pubchem,1
CC(CO)OCC(C)OCC(C)OC,2-[2-(2-methoxypropoxy)propoxy]propan-1-ol,384.15,pubchem,1
CC(=C)C(OC(=O)C)OC(=O)C,(1-acetyloxy-2-methylprop-2-enyl) acetate,488.15,pubchem,1
S(Cl)Cl,chloro thiohypochlorite,391.15,pubchem,1