smiles,compound,flashpoint,source,pure substance
C1C2C3C(C1C4C2O4)C5(C(=C(C3(C5(Cl)Cl)Cl)Cl)Cl)Cl,"(1S,2S,3S,6S,7R,8S)-3,4,5,6,13,13-hexachloro-10-oxapentacyclo[6.3.1.13,6.02,7.09,11]tridec-4-ene",300.15,pubchem,1
CCC1CCC(C1)CCC(=O)O,"3-[(1S,3R)-3-ethylcyclopentyl]propanoic acid",374.15,pubchem,1
C1=CC=C(C=C1)[Si](Cl)(Cl)[Cl-]Cl,dichloro-chlorochloranuidyl-phenylsilane,397.15,pubchem,1
CCO[Si]([O-])([O-])[O-],ethoxy(trioxido)silane,310.15,pubchem,1
CC(C)C1=CC=CC=C1.O[O-],"InChI=1S/C9H12.H2O2/c1-8(2)9-6-4-3-5-7-9;1-2/h3-8H,1-2H3;1-2H/p-1",352.15,pubchem,1
C1=CC=C(C=C1)C(CC(C2=CC=C(C=C2)C3=CC=C(C=C3)Br)O)C4=C(C5=CC=CC=C5OC4=O)O,3-[3-[4-(4-bromophenyl)phenyl]-3-hydroxy-1-phenylpropyl]-4-hydroxychromen-2-one,491.15,pubchem,1
CC1=CC(=C(C=C1)N)C.CC1=CC(=C(C=C1)C)N.CC1=C(C(=CC=C1)N)C.CC1=C(C(=CC=C1)C)N.CC1=C(C=C(C=C1)N)C.CC1=CC(=CC(=C1)N)C,"2,3-dimethylaniline;2,4-dimethylaniline;2,5-dimethylaniline;2,6-dimethylaniline;3,4-dimethylaniline;3,5-dimethylaniline",370.15,pubchem,1
C1CC(CCC1CO)CO.C1CC(CCC1CO)CO,[4-(hydroxymethyl)cyclohexyl]methanol,439.15,pubchem,1
CCCCCC1C(O1)CC2C(O2)CCCCCCCC(=O)OCC(COC(=O)CCCCCCCC3C(O3)CC4C(O4)CCCCC)OC(=O)CCCCCCCC5C(O5)CC6C(O6)CCCCC,"2,3-bis[8-[3-[(3-pentyloxiran-2-yl)methyl]oxiran-2-yl]octanoyloxy]propyl 8-[3-[(3-pentyloxiran-2-yl)methyl]oxiran-2-yl]octanoate",580.15,pubchem,1
C1C2C3C(C1C4C2O4)C5(C(=C(C3(C5(Cl)Cl)Cl)Cl)Cl)Cl,"(1R,2R,3S,6S,7R,8R,9S,11R)-3,4,5,6,13,13-hexachloro-10-oxapentacyclo[6.3.1.13,6.02,7.09,11]tridec-4-ene",300.15,pubchem,1
B([O-])([O-])OC,methoxy(dioxido)borane,266.15,pubchem,1
CCC1CCC(CC1)CCC(=O)[O-].CCC1CCC(C1)CCC(=O)[O-].[Cu+2],copper;3-(4-ethylcyclohexyl)propanoate;3-(3-ethylcyclopentyl)propanoate,311.15,pubchem,1
CC1=C(C=CC=C1COC(=O)C2C(C2(C)C)C=C(C(F)(F)F)Cl)C3=CC=CC=C3,"(2-methyl-3-phenylphenyl)methyl (3S)-3-[(Z)-2-chloro-3,3,3-trifluoroprop-1-enyl]-2,2-dimethylcyclopropane-1-carboxylate",438.15,pubchem,1
CC(C)C1=CC(=CC(=C1)OO)C(C)C,"1-hydroperoxy-3,5-di(propan-2-yl)benzene",352.15,pubchem,1
CCS(=O)C1=NC(=CC(=N1)C(F)(F)F)C2=CC(=CC=C2)OCC#C,2-ethylsulfinyl-4-(3-prop-2-ynoxyphenyl)-6-(trifluoromethyl)pyrimidine,513.15,pubchem,1
COP(=O)(OC)OC1=C(C2C1CC=C2)Cl,"[(1R,5S)-7-chloro-6-bicyclo[3.2.0]hepta-2,6-dienyl] dimethyl phosphate",438.15,pubchem,1
CCCCC(CC)CC1=C(C(=C(C=C1C(=O)OOOC(=O)C2=CC(=C(C(=C2)O)O)O)O)O)O,"(3,4,5-trihydroxybenzoyl)oxy 2-(2-ethylhexyl)-3,4,5-trihydroxybenzenecarboperoxoate",505.15,pubchem,1
CCCCC(CC)CN1C(=O)C2C3CC(C2C1=O)C=C3,"(1S,2R,6S,7R)-4-(2-ethylhexyl)-4-azatricyclo[5.2.1.02,6]dec-8-ene-3,5-dione",450.15,pubchem,1
C1C2C3C(C1C4C2O4)C5(C(=C(C3(C5(Cl)Cl)Cl)Cl)Cl)Cl,"(1R,2R,6S,7S,8S,9S,11R)-3,4,5,6,13,13-hexachloro-10-oxapentacyclo[6.3.1.13,6.02,7.09,11]tridec-4-ene",300.15,pubchem,1
CC=C1CC2CC1C=C2,"(1S,4R)-5-ethylidenebicyclo[2.2.1]hept-2-ene",299.15,pubchem,1
C1=C(C=C(C(=C1O)O)O)C(=O)OC2=CC(=CC(=C2O)O)C(=O)OCC3C(C(C(C(O3)OC(=O)C4=CC(=C(C(=C4)OC(=O)C5=CC(=C(C(=C5)O)O)O)O)O)OC(=O)C6=CC(=C(C(=C6)OC(=O)C7=CC(=C(C(=C7)O)O)O)O)O)OC(=O)C8=CC(=C(C(=C8)OC(=O)C9=CC(=C(C(=C9)O)O)O)O)O)OC(=O)C1=CC(=C(C(=C1)OC(=O)C1=CC(=C(C(=C1)O)O)O)O)O,"[2,3-dihydroxy-5-[[(2R,3R,4R,5R,6S)-3,4,5,6-tetrakis[[3,4-dihydroxy-5-(3,4,5-trihydroxybenzoyl)oxybenzoyl]oxy]oxan-2-yl]methoxycarbonyl]phenyl] 3,4,5-trihydroxybenzoate",472.15,pubchem,1
CC(=CCCC(=CCCC(=CCCC=C(C)CCC=C(C)CCC=C(C)C)C)C)C,"(10E,14E,18E)-2,6,10,15,19,23-hexamethyltetracosa-2,6,10,14,18,22-hexaene",383.15,pubchem,1
C1C2C(C(C1Cl)Cl)C3(C(=C(C2(C3(Cl)Cl)Cl)Cl)Cl)Cl,"(1S,7S)-1,3,4,7,8,9,10,10-octachlorotricyclo[5.2.1.02,6]dec-8-ene",380.15,pubchem,1
C1C2C3C(C1C4C2O4)C5(C(=C(C3(C5(Cl)Cl)Cl)Cl)Cl)Cl,"(1R,2R,3S,6R,7S,8R,9R,11S)-3,4,5,6,13,13-hexachloro-10-oxapentacyclo[6.3.1.13,6.02,7.09,11]tridec-4-ene",300.15,pubchem,1
CCCCCCCCCCCCCC(=O)OC1C(C2(C(C=C(CC3(C2C=C(C3=O)C)O)CO)C4C1(C4(C)C)OC(=O)C)O)C,"[(1S,2S,6R,10S,11R,13S)-13-acetyloxy-1,6-dihydroxy-8-(hydroxymethyl)-4,12,12,15-tetramethyl-5-oxo-14-tetracyclo[8.5.0.02,6.011,13]pentadeca-3,8-dienyl] tetradecanoate",310.15,pubchem,1
C1C(C(OC1N2C=NC3=C2N=CNC3=O)COP(=O)(O)OP(=O)(O)O)O,"[(2R,3S,5R)-3-hydroxy-5-(6-oxo-1H-purin-9-yl)oxolan-2-yl]methyl phosphono hydrogen phosphate",502.15,pubchem,1
CCC(=NOCC=CCl)C1=C(CC(CC1=O)CC(C)SCC)O,2-[(E)-N-[(E)-3-chloroprop-2-enoxy]-C-ethylcarbonimidoyl]-5-(2-ethylsulfanylpropyl)-3-hydroxycyclohex-2-en-1-one,345.15,pubchem,1
C1C(C(OC1N2C=NC3=C2N=CNC3=O)COP(=O)([O-])OP(=O)([O-])[O-])O,"[[(2R,3S,5R)-3-hydroxy-5-(6-oxo-1H-purin-9-yl)oxolan-2-yl]methoxy-oxidophosphoryl] phosphate",502.15,pubchem,1
CCCCC,pentane,233.0,carroll11,1
CCCCCC,hexane,247.0,carroll11,1
CCCCCCC,heptane,269.0,carroll11,1
CCCCCCCC,octane,286.0,carroll11,1
CCCCCCCCC,nonane,304.0,carroll11,1
CCCCCCCCCC,decane,319.0,carroll11,1
CCCCCCCCCCC,undecane,333.0,carroll11,1
CCCCCCCCCCCC,dodecane,344.0,carroll11,1
CCCCCCCCCCCCC,tridecane,367.0,carroll11,1
CCCCCCCCCCCCCC,tetradecane,373.0,carroll11,1
CCCCCCCCCCCCCCC,pentadecane,388.0,carroll11,1
CCCCCCCCCCCCCCCC,hexadecane,408.0,carroll11,1
CCCCCCCCCCCCCCCCC,heptadecane,421.0,carroll11,1
CC(C)CC,2-methylbutane,222.0,carroll11,1
CC(C)CCC,2-methylpentane,241.0,carroll11,1
CC(C)CCCCC,2-methylheptane,277.0,carroll11,1
CC(C)CCCCCC,2-methyloctane,297.0,carroll11,1
CC(C)CCCCCCC,2-methylnonane,311.0,carroll11,1
CC(C)CCCCCCCC,2-methyldecane,323.0,carroll11,1
CC(C)CCCCCCCCC,2-methylundecane,334.0,carroll11,1
CC(C)CCCCCCCCCC,2-methyldodecane,344.0,carroll11,1
C1CCCC1,cyclopentane,236.0,carroll11,1
CC(C)(CC)C,"2,2-dimethylbutane",244.0,carroll11,1
CC(C)C(C)C,"2,3-dimethylbutane",244.0,carroll11,1
CC1CCCC1,methylcyclopentane,250.0,carroll11,1
CC(C)(CCC)C,"2,2-dimethylpentane",250.0,carroll11,1
CC(C)(C(C)C)C,"2,2,3-trimethylbutane",249.0,carroll11,1
CC(C)CC(C)C,"2,4-dimethylpentane",261.0,carroll11,1
C1CCCCC1,cyclohexane,255.0,carroll11,1
CC(CC)(CC)C,"3,3-dimethylpentane",254.0,carroll11,1
CC1(CCCC1)C,"1,1-dimethylcyclopentane",257.0,carroll11,1
CC(C)C(CC)C,"2,3-dimethylpentane",258.0,carroll11,1
CC(CC)CC,3-methylpentane,241.0,carroll11,1
CC(CC)CCC,3-methylhexane,258.0,carroll11,1
CC(CC)CCCC,3-methylheptane,279.0,carroll11,1
CC(CC)CCCCC,3-methyloctane,297.0,carroll11,1
CC(CC)CCCCCC,3-methylnonane,314.0,carroll11,1
C(C)C(CC)CC,3-ethylpentane,261.0,carroll11,1
CC(C)(CC(C)C)C,"2,2,4-trimethylpentane",266.0,carroll11,1
C[C@H]1[C@H](CCC1)C,"cis-1,2-dimethylcyclopentane",269.0,carroll11,1
CC1CCCCC1,methylcyclohexane,269.0,carroll11,1
C(C)C1CCCC1,ethylcyclopentane,269.0,carroll11,1
CC(C)(CCCC)C,"2,2-dimethylhexane",270.0,carroll11,1
CC(C)(C(C)(C)C)C,"2,2,3,3-tetramethylbutane",273.0,carroll11,1
CC(C)CCC(C)C,"2,5-dimethylhexane",271.0,carroll11,1
CC(C)(C(CC)C)C,"2,2,3-trimethylpentane",270.0,carroll11,1
CC(CC)(CCC)C,"3,3-dimethylhexane",272.0,carroll11,1
CC(C)C(C(C)C)C,"2,3,4-trimethylpentane",273.0,carroll11,1
CC(C)C(CC)(C)C,"2,3,3-trimethylpentane",278.0,carroll11,1
C(C)C(C(C)C)CC,3-ethyl-2-methylpentane,276.0,carroll11,1
CC(C)C(CCC)C,"2,3-dimethylhexane",278.0,carroll11,1
CC(CC)C(CC)C,"3,4-dimethylhexane",279.0,carroll11,1
CC(CCC)CCC,4-methylheptane,278.0,carroll11,1
C(C)C(CC)(CC)C,3-ethyl-3-methylpentane,276.0,carroll11,1
C(C)C(CC)CCC,3-ethylhexane,278.0,carroll11,1
C1CCCCCC1,cycloheptane,279.0,carroll11,1
C[C@@H]1CC[C@H](CC1)C,"trans-1,4-dimethylcyclohexane",279.0,carroll11,1
C[C@@H]1C[C@@H](CCC1)C,"cis-1,3-dimethylcyclohexane",279.0,carroll11,1
CC1(CCCCC1)C,"1,1-dimethylcyclohexane",280.0,carroll11,1
CC(C)(CC(C)(C)C)C,"2,2,4,4-tetramethylpentane",279.0,carroll11,1
C(C)C1(CCCC1)C,1-ethyl-1-methylcyclopentane,279.0,carroll11,1
CC(C)(CCC(C)C)C,"2,2,5-trimethylhexane",286.0,carroll11,1
C[C@@H]1C[C@H](CCC1)C,"trans-1,3-dimethylcyclohexane",281.0,carroll11,1
C[C@@H]1CC[C@@H](CC1)C,"cis-1,4-dimethylcyclohexane",279.0,carroll11,1
C(C)(C)C1CCCC1,isopropylcyclopentane,287.0,carroll11,1
CC(C)(CC(CC)C)C,"2,2,4-trimethylhexane",286.0,carroll11,1
C[C@H]1[C@H](CCCC1)C,"cis-1,2-dimethylcyclohexane",285.0,carroll11,1
CC(C)CC(CC)(C)C,"2,4,4-trimethylhexane",288.0,carroll11,1
CC(C)C(CC(C)C)C,"2,3,5-trimethylhexane",288.0,carroll11,1
C(CC)C1CCCC1,propylcyclopentane,289.0,carroll11,1
C(C)C1CCCCC1,ethylcyclohexane,291.0,carroll11,1
CC(C)(C(C(C)C)C)C,"2,2,3,4-tetramethylpentane",284.0,carroll11,1
CC(C)CC(CCC)C,"2,4-dimethylheptane",288.0,carroll11,1
CC(C)(CCCCC)C,"2,2-dimethylheptane",297.0,carroll11,1
C(C)C(C(C)(C)C)CC,"3-ethyl-2,2-dimethylpentane",286.0,carroll11,1
CC(C)(C(CCC)C)C,"2,2,3-trimethylhexane",288.0,carroll11,1
CC(CCC)(CCC)C,"4,4-dimethylheptane",288.0,carroll11,1
CC(C)CCC(CC)C,"2,5-dimethylheptane",288.0,carroll11,1
CC(C)CCCC(C)C,"2,6-dimethylheptane",299.0,carroll11,1
CC(CC)CC(CC)C,"3,5-dimethylheptane",288.0,carroll11,1
C(C)C(C(C)C)C(C)C,"3-ethyl-2,4-dimethylpentane",288.0,carroll11,1
CC(C)(CCC(C)(C)C)C,"2,2,5,5-tetramethylhexane",289.0,carroll11,1
CC(C)C(CCC)(C)C,"2,3,3-trimethylhexane",288.0,carroll11,1
CC(C)C(C(CC)C)C,"2,3,4-trimethylhexane",288.0,carroll11,1
CC(C)C(C(C)C)(C)C,"2,3,3,4-tetramethylpentane",284.0,carroll11,1
CC(C)C(CCCC)C,"2,3-dimethylheptane",288.0,carroll11,1
CC(C)(C(CC)(C)C)C,"2,2,3,3-tetramethylpentane",289.0,carroll11,1
C(C)C(CCC)CCC,4-ethylheptane,288.0,carroll11,1
C(C)C(CC)C(CC)C,3-ethyl-4-methylhexane,288.0,carroll11,1
CC(CC)C(CCC)C,"3,4-dimethylheptane",288.0,carroll11,1
CC(CC)(C(CC)C)C,"3,3,4-trimethylhexane",288.0,carroll11,1
C(C)C(C(C)C)(CC)C,"3-ethyl-2,3-dimethylpentane",288.0,carroll11,1
CC(CCC)CCCC,4-methyloctane,295.0,carroll11,1
C(C)C(CC)(CC)CC,"3,3-diethylpentane",294.0,carroll11,1
CC(C)CC(CC(C)C)C,"2,4,6-trimethylheptane",304.0,carroll11,1
C1CCCCCCC1,cyclooctane,301.0,carroll11,1
CC(C)(CC(CC)(C)C)C,"2,2,4,4-tetramethylhexane",304.0,carroll11,1
CC(C)(CCCCCC)C,"2,2-dimethyloctane",304.0,carroll11,1
CC(C)(C(C(CC)C)C)C,"2,2,3,4-tetramethylhexane",304.0,carroll11,1
C(C)(C)C1CCCCC1,isopropylcyclohexane,308.0,carroll11,1
CC(CC)(CC(CC)C)C,"3,3,5-trimethylheptane",304.0,carroll11,1
CC(C)C(C(C(C)C)C)C,"2,3,4,5-tetramethylhexane",304.0,carroll11,1
C(CC)C1CCCCC1,propylcyclohexane,304.0,carroll11,1
C(CCC)C1CCCC1,butylcyclopentane,305.0,carroll11,1
C(C)C(CC)CC(CC)C,3-ethyl-5-methylheptane,304.0,carroll11,1
CC(C)CCCC(CC)C,"2,6-dimethyloctane",307.0,carroll11,1
C(C)C(C(C)(C)C)CCC,"3-ethyl-2,2-dimethylhexane",311.0,carroll11,1
CC(CC)CC(CCC)C,"3,5-dimethyloctane",314.0,carroll11,1
CC(C)(C(CCC)(C)C)C,"2,2,3,3-tetramethylhexane",304.0,carroll11,1
CC(CC)(CCCCC)C,"3,3-dimethyloctane",314.0,carroll11,1
CC(C)C(C(CC)(C)C)C,"2,3,4,4-tetramethylhexane",304.0,carroll11,1
C(CC)C(CCC)CCC,4-propylheptane,308.0,carroll11,1
C(C)C(CCC)CCCC,4-ethyloctane,314.0,carroll11,1
CC(CC)C(C(CC)C)C,"3,4,5-trimethylheptane",304.0,carroll11,1
CC(C)C(CCCCC)C,"2,3-dimethyloctane",309.0,carroll11,1
C(C)C(CC)(CCCC)C,3-ethyl-3-methylheptane,314.0,carroll11,1
CC(C)C(C(CC)C)(C)C,"2,3,3,4-tetramethylhexane",304.0,carroll11,1
CC(CCCC)CCCC,5-methylnonane,310.0,carroll11,1
CC(CCC)CCCCC,4-methylnonane,311.0,carroll11,1
C(C)C(C(CC)C)CCC,4-ethyl-3-methylheptane,314.0,carroll11,1
C(C)C(C(C)C)(C(C)C)C,"3-ethyl-2,3,4-trimethylpentane",304.0,carroll11,1
CC(CC)(C(CC)(C)C)C,"3,3,4,4-tetramethylhexane",304.0,carroll11,1
C(C)(C)(C)C1CCCCC1,tert-butylcyclohexane,313.0,carroll11,1
C1CCCCCCCC1,cyclononane,316.0,carroll11,1
C(CCC)C1CCCCC1,butylcyclohexane,321.0,carroll11,1
C1CCC[C@@H]2CCCC[C@@H]12,trans-decalin,326.0,carroll11,1
C1CCC[C@@H]2CCCC[C@H]12,cis-decalin,330.0,carroll11,1
C1CCCCCCCCC1,cyclodecane,332.0,carroll11,1
C(CCCC)C1CCCCC1,pentylcyclohexane,336.0,carroll11,1
C1(CCCCC1)C1CCCCC1,bicyclohexyl,365.0,carroll11,1
CC(C)(CC(CC(CC(C)(C)C)C)(C)C)C,"2,2,4,4,6,8,8-heptamethylnonane",368.0,carroll11,1
C=CCCC,1-pentene,222.0,carroll11,1
C=CCCCC,1-hexene,247.0,carroll11,1
C=CCCCCC,1-heptene,264.0,carroll11,1
C=CCCCCCCC,1-nonene,298.0,carroll11,1
C=CCCCCCCCC,1-decene,311.0,carroll11,1
C=CCCCCCCCCC,1-undecene,327.0,carroll11,1
C=CCCCCCCCCCC,1-dodecene,346.0,carroll11,1
C=CCCCCCCCCCCC,1-tridecene,365.0,carroll11,1
C=CCCCCCCCCCCCC,1-tetradecene,370.0,carroll11,1
C=CCCCCCCCCCCCCC,1-pentadecene,386.0,carroll11,1
C=CCCCCCCCCCCCCCC,1-hexadecene,402.0,carroll11,1
C=CCCCCCCCCCCCCCCC,1-heptadecene,414.0,carroll11,1
C=CCCCCCCCCCCCCCCCC,1-octadecene,427.0,carroll11,1
C\C=C/CC,cis-2-pentene,227.0,carroll11,1
C\C=C\CC,trans-2-pentene,228.0,carroll11,1
CC\C=C/CC,cis-3-hexene,248.0,carroll11,1
CC\C=C\CC,trans-3-hexene,248.0,carroll11,1
C\C=C\CCC,trans-2-hexene,248.0,carroll11,1
C\C=C/CCC,cis-2-hexene,248.0,carroll11,1
CC\C=C/CCC,cis-3-heptene,264.0,carroll11,1
CC\C=C\CCC,trans-3-heptene,266.0,carroll11,1
C\C=C\CCCC,trans-2-heptene,267.0,carroll11,1
C\C=C/CCCC,cis-2-heptene,267.0,carroll11,1
CCC\C=C\CCC,trans-4-octene,281.0,carroll11,1
CC\C=C\CCCC,trans-3-octene,282.0,carroll11,1
CCC\C=C/CCC,cis-4-octene,290.0,carroll11,1
CC\C=C/CCCC,cis-3-octene,287.0,carroll11,1
C\C=C\CCCCC,trans-2-octene,287.0,carroll11,1
CC(=C)CC,2-methyl-1-butene,226.0,carroll11,1
CC(C)=CC,2-methyl-2-butene,228.0,carroll11,1
C1=CCCC1,cyclopentene,243.0,carroll11,1
CC(CC=C)C,4-methyl-1-pentene,241.0,carroll11,1
CC(C=C)CC,3-methyl-1-pentene,240.0,carroll11,1
CC(\C=C/C)C,cis-4-methyl-2-pentene,240.0,carroll11,1
CC(/C=C/C)C,trans-4-methyl-2-pentene,246.0,carroll11,1
CC(=C)CCC,2-methyl-1-pentene,246.0,carroll11,1
C(C)C(=C)CC,2-ethyl-1-butene,247.0,carroll11,1
CC(C)=C(C)C,"2,3-dimethyl-2-butene",253.0,carroll11,1
C=C1CCCC1,methylenecyclopentane,255.0,carroll11,1
CC1=CCCC1,1-methylcyclopentene,254.0,carroll11,1
CC(=C)C(C)(C)C,"2,3,3-trimethyl-1-butene",256.0,carroll11,1
C1=CCCCC1,cyclohexene,256.0,carroll11,1
CC(C=C)CCC,3-methyl-1-hexene,255.0,carroll11,1
CC(=C)C(CC)C,"2,3-dimethyl-1-pentene",256.0,carroll11,1
C(C)C(C=C)CC,3-ethyl-1-pentene,256.0,carroll11,1
CC(CCC=C)C,5-methyl-1-hexene,263.0,carroll11,1
CC(CC=C)CC,4-methyl-1-hexene,258.0,carroll11,1
CC(=C)CCCC,2-methyl-1-hexene,265.0,carroll11,1
C(C)C(=C)CCC,2-ethyl-1-pentene,263.0,carroll11,1
C(C)C(=CC)CC,3-ethyl-2-pentene,267.0,carroll11,1
C12C=CC(CC1)C2,2-norbornene,259.0,carroll11,1
CC(=C)CC(C)(C)C,"2,4,4-trimethyl-1-pentene",269.0,carroll11,1
CC1CC=CCC1,4-methylcyclohexene,272.0,carroll11,1
C=C1CCCCC1,methylenecyclohexane,271.0,carroll11,1
CC1C=CCCC1,3-methylcyclohexene,270.0,carroll11,1
CC(C)=CC(C)(C)C,"2,4,4-trimethyl-2-pentene",272.0,carroll11,1
CC1=CCCCC1,1-methylcyclohexene,272.0,carroll11,1
C(C)C(C=C)CCC,3-ethyl-1-hexene,274.0,carroll11,1
CC(CC=C)CCC,4-methyl-1-heptene,275.0,carroll11,1
CC(=C)CCCCC,2-methyl-1-heptene,283.0,carroll11,1
CC(C)=CCCCC,2-methyl-2-heptene,282.0,carroll11,1
C(C=C)C1CCCC1,allylcyclopentane,285.0,carroll11,1
C(=C)C1CCCCC1,vinylcyclohexane,294.0,carroll11,1
CC(CCCCC=C)C,7-methyl-1-octene,291.0,carroll11,1
C12C=C(CCC1C2(C)C)C,2-carene,311.0,carroll11,1
C=CC(C)=C,isoprene,225.0,carroll11,1
CC(=C)C(=C)C,"2,3-dimethyl-1,3-butadiene",251.0,carroll11,1
CC(=CC=C)C,"4-methyl-1,3-pentadiene",255.0,carroll11,1
C=CCCCC=C,"1,6-heptadiene",263.0,carroll11,1
C=CCCCCC=C,"1,7-octadiene",278.0,carroll11,1
CC(C)=CC=C(C)C,"2,5-dimethyl-2,4-hexadiene",297.0,carroll11,1
C=CCCCCCC=C,"1,8-nonadiene",299.0,carroll11,1
C1=CC=CCC1,"1,3-cyclohexadiene",257.0,carroll11,1
C1=CCC=CC1,"1,4-cyclohexadiene",262.0,carroll11,1
C(=C)C1CC=CCC1,4-vinyl-1-cyclohexene,289.0,carroll11,1
C1=CCCC=CCC1,"1,5-cyclooctadiene",308.0,carroll11,1
C12C=CC(C=C1)C2,"2,5-norbornadiene",262.0,carroll11,1
C(C)=C1C2C=CC(C1)C2,5-ethylidene-2-norbornene,302.0,carroll11,1
C1=CC=CC=CC=C1,"1,3,5,7-cyclooctatetraene",295.0,carroll11,1
C#CCCC,1-pentyne,239.0,carroll11,1
C#CCCCC,1-hexyne,253.0,carroll11,1
C#CCCCCC,1-heptyne,271.0,carroll11,1
C#CCCCCCC,1-octyne,289.0,carroll11,1
C#CCCCCCCC,1-nonyne,306.0,carroll11,1
C#CCCCCCCCC,1-decyne,321.0,carroll11,1
C#CCCCCCCCCC,1-undecyne,338.0,carroll11,1
C#CCCCCCCCCCC,1-dodecyne,352.0,carroll11,1
C#CCCCCCCCCCCC,1-tridecyne,366.0,carroll11,1
CC#CCC,2-pentyne,243.0,carroll11,1
CC#CCCC,2-hexyne,263.0,carroll11,1
CC#CCCCC,2-heptyne,281.0,carroll11,1
CC#CCCCCC,2-octyne,297.0,carroll11,1
CC#CCCCCCC,2-nonyne,312.0,carroll11,1
CC#CCCCCCCC,2-decyne,326.0,carroll11,1
CC#CCCCCCCCCC,2-dodecyne,351.0,carroll11,1
CCC#CCC,3-hexyne,259.0,carroll11,1
CCC#CCCC,3-heptyne,278.0,carroll11,1
CCC#CCCCCC,3-nonyne,311.0,carroll11,1
CCCC#CCCCC,4-nonyne,308.0,carroll11,1
CCCC#CCCC,4-octyne,291.0,carroll11,1
CCC#CCCCCCC,3-decyne,325.0,carroll11,1
CCCC#CCCCCC,4-decyne,325.0,carroll11,1
CCCC#CCCCCCC,4-undecyne,339.0,carroll11,1
CCCCC#CCCCCC,5-undecyne,339.0,carroll11,1
CC(C#C)(C)C,"3,3-dimethyl-1-butyne",239.0,carroll11,1
CC(CC#C)C,4-methyl-1-pentyne,249.0,carroll11,1
CC(C#CC)(C)C,"4,4-dimethyl-2-pentyne",263.0,carroll11,1
CC(CCC#C)C,5-methyl-1-hexyne,266.0,carroll11,1
C#CCCCC#C,"1,6-heptadiyne",282.0,carroll11,1
C#CCCCCC#C,"1,7-octadiyne",296.0,carroll11,1
C#CCCCCCC#C,"1,8-nonadiyne",315.0,carroll11,1
C1=CC=CC=C1,benzene,262.0,carroll11,1
CC1=CC=CC=C1,toluene,280.0,carroll11,1
C(C)C1=CC=CC=C1,ethylbenzene,294.0,carroll11,1
C(CC)C1=CC=CC=C1,propylbenzene,303.0,carroll11,1
C(CCC)C1=CC=CC=C1,butylbenzene,323.0,carroll11,1
C(CCCC)C1=CC=CC=C1,pentylbenzene,339.0,carroll11,1
C(CCCCC)C1=CC=CC=C1,hexylbenzene,356.0,carroll11,1
C(CCCCCC)C1=CC=CC=C1,heptylbenzene,368.0,carroll11,1
C(CCCCCCC)C1=CC=CC=C1,octylbenzene,380.0,carroll11,1
C(CCCCCCCC)C1=CC=CC=C1,nonylbenzene,390.0,carroll11,1
C(CCCCCCCCCC)C1=CC=CC=C1,undecylbenzene,417.0,carroll11,1
C1(=CC=C(C=C1)C)C,p-xylene,298.0,carroll11,1
C1(=CC(=CC=C1)C)C,m-xylene,298.0,carroll11,1
C=1(C(=CC=CC1)C)C,o-xylene,303.0,carroll11,1
C1(=CC=CC=C1)C(C)C,cumene,304.0,carroll11,1
C(C)C1=CC=C(C)C=C1,p-ethyltoluene,309.0,carroll11,1
C(C)C=1C=C(C)C=CC1,m-ethyltoluene,311.0,carroll11,1
C(C)C1=C(C)C=CC=C1,o-ethyltoluene,312.0,carroll11,1
CC1=CC(=CC(=C1)C)C,"1,3,5-trimethylbenzene",317.0,carroll11,1
CC1=C(C=C(C=C1)C)C,"1,2,4-trimethylbenzene",319.0,carroll11,1
C(C)(C)(C)C1=CC=CC=C1,tert-butylbenzene,317.0,carroll11,1
C(C(C)C)C1=CC=CC=C1,isobutylbenzene,323.0,carroll11,1
C(C)(C)C=1C=C(C)C=CC1,m-isopropyltoluene,320.0,carroll11,1
CC1=C(C(=CC=C1)C)C,"1,2,3-trimethylbenzene",324.0,carroll11,1
C(C)(C)C1=CC=C(C)C=C1,p-isopropyltoluene,320.0,carroll11,1
C(C)(C)C1=C(C)C=CC=C1,o-isopropyltoluene,323.0,carroll11,1
C(C)C1=CC(=CC=C1)CC,m-diethylbenzene,324.0,carroll11,1
C(CC)C=1C=C(C)C=CC1,m-propyltoluene,325.0,carroll11,1
C(C)C1=CC=C(C=C1)CC,p-diethylbenzene,328.0,carroll11,1
C(C)C1=C(C=CC=C1)CC,o-diethylbenzene,328.0,carroll11,1
C(C(C)(C)C)C1=CC=CC=C1,neopentylbenzene,323.0,carroll11,1
C(C)C1=C(C=CC(=C1)C)C,"2-ethyl-1,4-dimethylbenzene",329.0,carroll11,1
C(C)C1=C(C=C(C=C1)C)C,"1-ethyl-2,4-dimethylbenzene",330.0,carroll11,1
C(C)C1=CC(=C(C=C1)C)C,"4-ethyl-1,2-dimethylbenzene",331.0,carroll11,1
C(C)C1=CC(=CC=C1)C(C)C,1-ethyl-3-isopropylbenzene,336.0,carroll11,1
C(C)C1=C(C(=CC=C1)C)C,"1-ethyl-2,3-dimethylbenzene",338.0,carroll11,1
C1(=CC=CC=C1)CC(CC)C,1-phenyl-2-methylbutane,337.0,carroll11,1
C(CC(C)C)C1=CC=CC=C1,isopentylbenzene,335.0,carroll11,1
CC1=C(C(=CC(=C1)C)C)C,"1,2,3,5-tetramethylbenzene",336.0,carroll11,1
C(C)(C)C1=CC(=CC=C1)C(C)C,"1,3-diisopropylbenzene",349.0,carroll11,1
CC1=C(C(=C(C=C1)C)C)C,"1,2,3,4-tetramethylbenzene",341.0,carroll11,1
C1(=CC=CC=C1)C(C)(CC)C,2-phenyl-2-methylbutane,332.0,carroll11,1
CC1=C(C(=CC=C1)CCC)C,"1,2-dimethyl-3-propylbenzene",345.0,carroll11,1
C(C)(C)C1=CC=C(C=C1)C(C)C,"1,4-diisopropylbenzene",349.0,carroll11,1
C1CCCC2=CC=CC=C12,"1,2,3,4-tetrahydronaphthalene",344.0,carroll11,1
C1(CCCCC1)C1=CC=CC=C1,cyclohexylbenzene,371.0,carroll11,1
CC(CCCCCC)C1=CC=CC=C1,(1-methylheptyl)benzene,373.0,carroll11,1
C1(=CC=CC=C1)CC1=CC=CC=C1,diphenylmethane,400.0,carroll11,1
C(C)OC=O,ethylformate,254.0,carroll11,1
C(CC)OC=O,propylformate,270.0,carroll11,1
C(CCC)OC=O,butylformate,291.0,carroll11,1
C(CCCC)OC=O,pentylformate,299.0,carroll11,1
C(CCCCC)OC=O,hexylformate,317.0,carroll11,1
C(CCCCCC)OC=O,heptylformate,333.0,carroll11,1
C(CCCCCCC)OC=O,octylformate,342.0,carroll11,1
C(CCCCCCCC)OC=O,nonylformate,361.0,carroll11,1
C(CCCCCCCCC)OC=O,decylformate,373.0,carroll11,1
C(C)(C)OC=O,isopropylformate,259.0,carroll11,1
C(C)(C)(C)OC=O,tert-butylformate,264.0,carroll11,1
C(CC(C)C)OC=O,isopentylformate,295.0,carroll11,1
C(C(C)C)OC=O,isobutylformate,277.0,carroll11,1
C1(CCCCC1)C(=O)[O-],cyclohexylformate,324.0,carroll11,1
COC(C)=O,methylacetate,260.0,carroll11,1