smiles,compound,flashpoint,source,pure substance
CCCCC,pentane,224.15,pubchem,1
CCCC=C,pent-1-ene,222.15,pubchem,1
CCCCCl,1-chlorobutane,266.15,pubchem,1
C(CCl)CBr,1-bromo-3-chloropropane,330.15,pubchem,1
CCCCN,butan-1-amine,261.15,pubchem,1
CCCC#N,butanenitrile,290.15,pubchem,1
C(C#N)C#N,propanedinitrile,403.15,pubchem,1
CCCCS,butane-1-thiol,286.15,pubchem,1
C(CS)CS,"propane-1,3-dithiol",332.15,pubchem,1
CNCCO,2-(methylamino)ethanol,347.15,pubchem,1
COCCO,2-methoxyethanol,315.15,pubchem,1
COCOC,dimethoxymethane,255.15,pubchem,1
CCNCC,N-ethylethanamine,244.15,pubchem,1
CCOC=O,ethyl formate,253.15,pubchem,1
CCON=O,ethyl nitrite,238.15,pubchem,1
C1=CNC=C1,1H-pyrrole,312.15,pubchem,1
C1CCOC1,oxolane,259.15,pubchem,1
C1=CSC=C1,thiophene,272.15,pubchem,1
CC(C)(C)OOC(C)(C)C,2-tert-butylperoxy-2-methylpropane,291.15,pubchem,1
CC(C)CCC(=O)C,5-methylhexan-2-one,309.15,pubchem,1
CC(=O)CCC(=O)C,"hexane-2,5-dione",352.15,pubchem,1
CN(C)CCN(C)C,"N,N,N',N'-tetramethylethane-1,2-diamine",283.15,pubchem,1
CC(C)COC(=O)C,2-methylpropyl acetate,290.15,pubchem,1
CC(=O)OOC(=O)C,acetyl ethaneperoxoate,318.15,pubchem,1
CCCCCCCCCCCCCCCCCC(=O)NCCNC(=O)CCCCCCCCCCCCCCCCC,N-[2-(octadecanoylamino)ethyl]octadecanamide,553.15,pubchem,1
CCCCCCOC(=O)CCCCC(=O)OCCCCCC,dihexyl hexanedioate,436.15,pubchem,1
CCCCCC(=O)C,heptan-2-one,312.15,pubchem,1
CC(=O)OCCOC,2-methoxyethyl acetate,317.15,pubchem,1
CCCCCC,hexane,250.15,pubchem,1
C(CCCl)CCl,"1,4-dichlorobutane",313.15,pubchem,1
CCCCCN,pentan-1-amine,280.15,pubchem,1
CCCCC#N,pentanenitrile,314.15,pubchem,1
C(CC#N)C#N,butanedinitrile,405.15,pubchem,1
CCCCC=O,pentanal,285.15,pubchem,1
C(CCO)CO,"butane-1,4-diol",392.15,pubchem,1
C(C=CCO)O,"but-2-ene-1,4-diol",401.15,pubchem,1
C(C#CCO)O,"but-2-yne-1,4-diol",401.15,pubchem,1
CCCCCS,pentane-1-thiol,291.15,pubchem,1
CCCCNC,N-methylbutan-1-amine,286.15,pubchem,1
CCCC=NO,N-butylidenehydroxylamine,331.15,pubchem,1
COCCOC,"1,2-dimethoxyethane",273.15,pubchem,1
CCNCCO,2-(ethylamino)ethanol,344.15,pubchem,1
CCCOC=O,propyl formate,270.15,pubchem,1
C=COCCCl,1-chloro-2-ethenoxyethane,289.15,pubchem,1
CCOCCO,2-ethoxyethanol,314.15,pubchem,1
C1CCCCC1,cyclohexane,253.15,pubchem,1
C1CCC=CC1,cyclohexene,261.15,pubchem,1
C1CC=COC1,"3,4-dihydro-2H-pyran",255.15,pubchem,1
C1OCOCO1,"1,3,5-trioxane",318.15,pubchem,1
C1CCNCC1,piperidine,276.15,pubchem,1
C1COCCN1,morpholine,311.15,pubchem,1
CC(C)CNCC(C)C,2-methyl-N-(2-methylpropyl)propan-1-amine,302.15,pubchem,1
CC(CNCC(C)O)O,1-(2-hydroxypropylamino)propan-2-ol,399.15,pubchem,1
CC(COCC(C)O)O,1-(2-hydroxypropoxy)propan-2-ol,411.15,pubchem,1
CCCCCCC(=O)C,octan-2-one,325.15,pubchem,1
CCOCCOC(=O)C,2-ethoxyethyl acetate,330.15,pubchem,1
CC(=O)OCCOCCOCCOC(=O)C,2-[2-(2-acetyloxyethoxy)ethoxy]ethyl acetate,447.15,pubchem,1
CCCCCCN,hexan-1-amine,302.15,pubchem,1
CCCCCCO,hexan-1-ol,336.15,pubchem,1
C(CCO)CCO,"pentane-1,5-diol",402.15,pubchem,1
CCCCCCS,hexane-1-thiol,293.15,pubchem,1
CCCCOC=C,1-ethenoxybutane,264.15,pubchem,1
CCOCCCO,3-ethoxypropan-1-ol,327.15,pubchem,1
CCCCN=C=O,1-isocyanatobutane,292.15,pubchem,1
C(CNCCN)N,"N'-(2-aminoethyl)ethane-1,2-diamine",375.15,pubchem,1
C(CNCCO)N,2-(2-aminoethylamino)ethanol,375.15,pubchem,1
C(CO)NCCO,2-(2-hydroxyethylamino)ethanol,410.15,pubchem,1
CCCOCCC,1-propoxypropane,294.15,pubchem,1
C(CCl)OCCCl,1-chloro-2-(2-chloroethoxy)ethane,328.15,pubchem,1
C(COCCO)O,2-(2-hydroxyethoxy)ethanol,416.15,pubchem,1
C1CCCNCC1,azepane,310.15,pubchem,1
CC(=O)OCCOC(=O)C,2-acetyloxyethyl acetate,369.15,pubchem,1
CCCCCCCC(=O)Cl,octanoyl chloride,354.15,pubchem,1
CCCCCCC=C,oct-1-ene,294.15,pubchem,1
C(CCC#N)CC#N,hexanedinitrile,366.15,pubchem,1
CCCCCCCO,heptan-1-ol,350.15,pubchem,1
CCCCCCC=O,heptanal,308.15,pubchem,1
CCCCOCCO,2-butoxyethanol,334.15,pubchem,1
COCCOCCO,2-(2-methoxyethoxy)ethanol,366.15,pubchem,1
CCCCCCCCC,nonane,304.15,pubchem,1
CCCCCCCCCl,1-chlorooctane,343.15,pubchem,1
CCCCCCCCS,octane-1-thiol,319.15,pubchem,1
CCOCCOCCO,2-(2-ethoxyethoxy)ethanol,369.15,pubchem,1
C(CCl)OCOCCCl,1-chloro-2-(2-chloroethoxymethoxy)ethane,383.15,pubchem,1
CCCCNCCCC,N-butylbutan-1-amine,325.15,pubchem,1
C(CNCCC#N)C#N,3-(2-cyanoethylamino)propanenitrile,383.15,pubchem,1
COCCOCCOC,1-methoxy-2-(2-methoxyethoxy)ethane,340.15,pubchem,1
CCCCCCCCCCCCCCCC[N+](C)(C)C.[Cl-],hexadecyl(trimethyl)azanium;chloride,294.15,pubchem,1
CCCCCCCCCCCCCCCCCC[Si](Cl)(Cl)Cl,trichloro(octadecyl)silane,362.15,pubchem,1
CCCCCCCCC(=O)O,nonanoic acid,406.15,pubchem,1
CCCCCCCOC(=O)C,heptyl acetate,341.15,pubchem,1
CCCCOCCOC(=O)C,2-butoxyethyl acetate,344.15,pubchem,1
CCCCCCCCCC(=O)C,undecan-2-one,362.15,pubchem,1
CCOCCOCCOC(=O)C,2-(2-ethoxyethoxy)ethyl acetate,383.15,pubchem,1
CCCCCCOCCO,2-hexoxyethanol,364.15,pubchem,1
C(COCCCl)OCCCl,"1,2-bis(2-chloroethoxy)ethane",523.15,pubchem,1
C(COCCOCCO)O,2-[2-(2-hydroxyethoxy)ethoxy]ethanol,439.15,pubchem,1
CCCCCCCCCCO,decan-1-ol,355.15,pubchem,1
CCCCCCCCCC=O,decanal,358.15,pubchem,1
CCCCOCCOCCO,2-(2-butoxyethoxy)ethanol,351.15,pubchem,1
CCOCCOCCOCC,1-ethoxy-2-(2-ethoxyethoxy)ethane,327.15,pubchem,1
CCCCCCCCCCCC,dodecane,347.15,pubchem,1
CCCCCCCCCCC=C,dodec-1-ene,373.15,pubchem,1
CCCCCCCCCCCO,undecan-1-ol,366.15,pubchem,1
CCCCOCCOCCCC,1-(2-butoxyethoxy)butane,358.15,pubchem,1
COCCOCCOCCOC,1-methoxy-2-[2-(2-methoxyethoxy)ethoxy]ethane,384.15,pubchem,1
CCOCCOCCOCCO,2-[2-(2-ethoxyethoxy)ethoxy]ethanol,408.15,pubchem,1
CCCCCCCCCCCCCl,1-chlorododecane,386.15,pubchem,1
CCCCCCCCCCCCO,dodecan-1-ol,400.15,pubchem,1
CCCCCCCCCCCCS,dodecane-1-thiol,361.15,pubchem,1
CCCCOCCOCCSC#N,2-(2-butoxyethoxy)ethyl thiocyanate,325.15,pubchem,1
C(CNCCNCCNCCN)N,"N'-[2-[2-(2-aminoethylamino)ethylamino]ethyl]ethane-1,2-diamine",436.15,pubchem,1
CCCCCCOCCOCCO,2-(2-hexoxyethoxy)ethanol,414.15,pubchem,1
C(COCCOCCOCCO)O,2-[2-[2-(2-hydroxyethoxy)ethoxy]ethoxy]ethanol,455.15,pubchem,1
CCCCCCCCCCCCCCCCCC(=O)OC,methyl octadecanoate,426.15,pubchem,1
CCCCCCCCCCCCCO,tridecan-1-ol,394.15,pubchem,1
CCCCCCCCCCCCCCO,tetradecan-1-ol,414.15,pubchem,1
CCCCOCCOCCOCCCC,1-[2-(2-butoxyethoxy)ethoxy]butane,391.15,pubchem,1
CCCCCCCCCCCCCCCCCCO,octadecan-1-ol,473.15,pubchem,1
CCCCCCCCCCCCCCCCCCCC,icosane,373.15,pubchem,1
CCCCC(CC)CN1C(=O)C2C3CC(C2C1=O)C=C3,"4-(2-ethylhexyl)-4-azatricyclo[5.2.1.02,6]dec-8-ene-3,5-dione",450.15,pubchem,1
CC=C,prop-1-ene,165.14999999999995,pubchem,1
COC,methoxymethane,269.15,pubchem,1
CC(=C)C,2-methylprop-1-ene,197.15,pubchem,1
CC(C)(C=C)O,2-methylbut-3-en-2-ol,286.15,pubchem,1
CC(C)(C#C)O,2-methylbut-3-yn-2-ol,298.15,pubchem,1
CC[Si](Cl)(Cl)Cl,trichloro(ethyl)silane,295.15,pubchem,1
CC1(C2CCC1(C(C2)OC(=O)CSC#N)C)C,"(1,7,7-trimethyl-2-bicyclo[2.2.1]heptanyl) 2-thiocyanatoacetate",355.15,pubchem,1
C1=CC(=CC=C1C(C2=CC=C(C=C2)Cl)(C(Cl)(Cl)Cl)O)Cl,"2,2,2-trichloro-1,1-bis(4-chlorophenyl)ethanol",297.15,pubchem,1
C(C(CO)(CO)CO)O,"2,2-bis(hydroxymethyl)propane-1,3-diol",513.15,pubchem,1
C1=CC=C(C=C1)OP(=O)(OC2=CC=CC=C2)OC3=CC=CC=C3,triphenyl phosphate,493.15,pubchem,1
CC(=CCCC(C)(C=C)OC(=O)C)C,"3,7-dimethylocta-1,6-dien-3-yl acetate",367.15,pubchem,1
C(CCl)OP(=O)(OCCCl)OCCCl,tris(2-chloroethyl) phosphate,505.15,pubchem,1
CC1CC(CC(C1)(C)C)O,"3,3,5-trimethylcyclohexan-1-ol",347.15,pubchem,1
CC(C)OP(OC(C)C)OC(C)C,tripropan-2-yl phosphite,347.15,pubchem,1
COC(=O)C(Cl)Cl,"methyl 2,2-dichloroacetate",353.15,pubchem,1
C12=C(C(=C(C(=C1Cl)Cl)Cl)Cl)C(=O)OC2=O,"4,5,6,7-tetrachloro-2-benzofuran-1,3-dione",635.15,pubchem,1
CCC(C(C1=CC=C(C=C1)Cl)C2=CC=C(C=C2)Cl)[N+](=O)[O-],1-chloro-4-[1-(4-chlorophenyl)-2-nitrobutyl]benzene,423.15,pubchem,1
C1=CC=C2C(=C1)C(=O)C3=C(C2=O)C=C(C=C3)N,"2-aminoanthracene-9,10-dione",556.15,pubchem,1
CCCCC(CC)COC(=O)C1=CC=CC=C1C(=O)OCC(CC)CCCC,"bis(2-ethylhexyl) benzene-1,2-dicarboxylate",480.15,pubchem,1
COCCOC(=O)C1=CC=CC=C1C(=O)OCCOC,"bis(2-methoxyethyl) benzene-1,2-dicarboxylate",483.15,pubchem,1
CCCCOCCOC(=O)C1=CC=CC=C1C(=O)OCCOCCCC,"bis(2-butoxyethyl) benzene-1,2-dicarboxylate",680.15,pubchem,1
CCCCCCCCOC(=O)C1=CC=CC=C1C(=O)OCCCCCCCC,"dioctyl benzene-1,2-dicarboxylate",377.15,pubchem,1
CC1(C(=O)N(C(=O)N1Cl)Cl)C,"1,3-dichloro-5,5-dimethylimidazolidine-2,4-dione",447.15,pubchem,1
C1=CC=C(C=C1)COC(=O)C2=CC=CC=C2O,benzyl 2-hydroxybenzoate,453.15,pubchem,1
CC1=C(C=CC=C1Cl)Cl,"1,3-dichloro-2-methylbenzene",355.15,pubchem,1
C1(=C(C(=C(C(=C1Cl)Cl)Cl)Cl)Cl)Cl,"1,2,3,4,5,6-hexachlorobenzene",515.15,pubchem,1
CCCCCCCCCCCCCOC(=O)C1=CC=CC=C1C(=O)OCCCCCCCCCCCCC,"ditridecyl benzene-1,2-dicarboxylate",511.15,pubchem,1
CCCCCCCCCCOC(=O)C1=CC=CC=C1C(=O)OCCCCCCCC,"2-O-decyl 1-O-octyl benzene-1,2-dicarboxylate",508.15,pubchem,1
CC1=C(C=C(C=C1)N)[N+](=O)[O-],4-methyl-3-nitroaniline,430.15,pubchem,1
C1CCC2=CC=CC=C2C1,"1,2,3,4-tetrahydronaphthalene",353.15,pubchem,1
COC1=C(C=CC(=C1)C2=CC(=C(C=C2)N)OC)N,4-(4-amino-3-methoxyphenyl)-2-methoxyaniline,479.15,pubchem,1
CC1=C(C=CC(=C1)C2=CC(=C(C=C2)N)C)N,4-(4-amino-3-methylphenyl)-2-methylaniline,517.15,pubchem,1
C1=CC=C2C=C3C=CC=CC3=CC2=C1,anthracene,394.15,pubchem,1
C1=CC=C(C=C1)CC2=C(C=CC(=C2)Cl)O,2-benzyl-4-chlorophenol,461.15,pubchem,1
CC(C(=O)O)OC1=C(C=C(C=C1)Cl)Cl,"2-(2,4-dichlorophenoxy)propanoic acid",477.15,pubchem,1
C1=CC=C(C=C1)C(=O)OCCOCCOC(=O)C2=CC=CC=C2,2-(2-benzoyloxyethoxy)ethyl benzoate,505.15,pubchem,1
COC(=O)C1=CC=C(C=C1)C(=O)OC,"dimethyl benzene-1,4-dicarboxylate",426.15,pubchem,1
C1=CC=C2C(=C1)N=C(S2)SSC3=NC4=CC=CC=C4S3,"2-(1,3-benzothiazol-2-yldisulfanyl)-1,3-benzothiazole",543.15,pubchem,1
C1=CC(=C(C=C1Cl)Cl)O,"2,4-dichlorophenol",387.15,pubchem,1
C1CCC(=O)C1,cyclopentanone,303.15,pubchem,1
CC(C)(C)C1=C(C=CC(=C1)OC)O,2-tert-butyl-4-methoxyphenol,429.15,pubchem,1
CC1=C(C=C(C=C1)[N+](=O)[O-])[N+](=O)[O-],"1-methyl-2,4-dinitrobenzene",480.15,pubchem,1
CCOC1=C(C=CC(=C1)C=O)O,3-ethoxy-4-hydroxybenzaldehyde,418.15,pubchem,1
CCN(CC)CC,"N,N-diethylethanamine",266.15,pubchem,1
COP(OC)OC,trimethyl phosphite,301.15,pubchem,1
C1C2C=CC1C=C2,"bicyclo[2.2.1]hepta-2,5-diene",252.15,pubchem,1
C1=CC(=CC(=C1)Cl)[N+](=O)[O-],1-chloro-3-nitrobenzene,400.15,pubchem,1
C1=CC(=C(C=C1[N+](=O)[O-])Cl)N,2-chloro-4-nitroaniline,478.15,pubchem,1
COC(=O)C1=CC=CC=C1C(=O)OC,"dimethyl benzene-1,2-dicarboxylate",419.15,pubchem,1
C=CCOC(=O)C1=CC=CC=C1C(=O)OCC=C,"bis(prop-2-enyl) benzene-1,2-dicarboxylate",383.15,pubchem,1
CCCCCOC(=O)C1=CC=CC=C1C(=O)OCCCCC,"dipentyl benzene-1,2-dicarboxylate",454.15,pubchem,1
COC(=O)C1=CC=CC=C1N,methyl 2-aminobenzoate,377.15,pubchem,1
C1=CC=C2C(=C1)C=CC=C2N,naphthalen-1-amine,430.15,pubchem,1
CCC1=CC=CC=C1CC,"1,2-diethylbenzene",330.15,pubchem,1
C1=CC=C2C=C(C=CC2=C1)O,naphthalen-2-ol,426.15,pubchem,1
CCC(C)C1=CC=CC=C1,butan-2-ylbenzene,325.15,pubchem,1
CCCOC(=O)C1=CN=C(C=C1)C(=O)OCCC,"dipropyl pyridine-2,5-dicarboxylate",366.15,pubchem,1
CCCCC(CC)C(=O)O,2-ethylhexanoic acid,400.15,pubchem,1
CCCCOC(=O)C1=CC=CC=C1,butyl benzoate,380.15,pubchem,1
COC(=O)C(=C)C#N,methyl 2-cyanoprop-2-enoate,352.15,pubchem,1
CN(C)C(=S)[S-].CN(C)C(=S)[S-].[Zn+2],"zinc;N,N-dimethylcarbamodithioate",366.15,pubchem,1
CCC(C)CO,2-methylbutan-1-ol,323.15,pubchem,1
CCCCCCCCCC1=CC(=C(C=C1)O)CCCCCCCCC,"2,4-di(nonyl)phenol",400.15,pubchem,1
CCCCOC(=O)C(C)O,butyl 2-hydroxypropanoate,344.15,pubchem,1
CCN(CCO)CCO,2-[ethyl(2-hydroxyethyl)amino]ethanol,371.15,pubchem,1
C(CN(CC(=O)[O-])CC(=O)[O-])N(CCO)CC(=O)[O-].[Na+].[Na+].[Na+],trisodium;2-[2-[bis(carboxylatomethyl)amino]ethyl-(2-hydroxyethyl)amino]acetate,373.15,pubchem,1
C(CCl)OP(OCCCl)OCCCl,tris(2-chloroethyl) phosphite,411.15,pubchem,1
CC(=O)OCC1=CC=CC=C1,benzyl acetate,364.15,pubchem,1
C1=CC=C(C=C1)CC#N,2-phenylacetonitrile,375.15,pubchem,1
C1CN(CCN1)CCN,2-piperazin-1-ylethanamine,366.15,pubchem,1
CC(=O)NC1=CC=C(C=C1)C(=O)CCl,N-[4-(2-chloroacetyl)phenyl]acetamide,383.15,pubchem,1
COC1=CC=C(C=C1)CC=C,1-methoxy-4-prop-2-enylbenzene,354.15,pubchem,1
CC1=NC=C(C=C1)C=C,5-ethenyl-2-methylpyridine,347.15,pubchem,1
CCOC(=O)C=C,ethyl prop-2-enoate,282.15,pubchem,1
CCCCOC(=O)CCC(=O)OCCCC,dibutyl butanedioate,408.15,pubchem,1
CC(=CCCC(=CC=O)C)C,"3,7-dimethylocta-2,6-dienal",375.15,pubchem,1
CCCCOC(=O)C=C,butyl prop-2-enoate,322.15,pubchem,1
CCC[Si](Cl)(Cl)Cl,trichloro(propyl)silane,310.15,pubchem,1
CC(C)(C)CC(C)(C)S,"2,4,4-trimethylpentane-2-thiol",319.15,pubchem,1
CCCC(=O)Cl,butanoyl chloride,295.15,pubchem,1
CCOC(=O)C,ethyl acetate,269.15,pubchem,1
CC(=CC(=O)C)C,4-methylpent-3-en-2-one,296.15,pubchem,1
CCOC(=O)CC(=O)C,ethyl 3-oxobutanoate,330.15,pubchem,1
C1=CC=C(C=C1)N.Cl,aniline;hydrochloride,466.15,pubchem,1
CCCCCCOC(=O)C(=C)C,hexyl 2-methylprop-2-enoate,355.15,pubchem,1
CC(=O)NCCO,N-(2-hydroxyethyl)acetamide,450.15,pubchem,1
C(CCl)CCl,"1,3-dichloropropane",294.15,pubchem,1
C1CC=CC1,cyclopentene,239.15,pubchem,1
CCCCCC(=O)O,hexanoic acid,377.15,pubchem,1
C1CCOCC1,oxane,253.15,pubchem,1
CCCCCCC,heptane,269.15,pubchem,1
CCCNCCC,N-propylpropan-1-amine,290.15,pubchem,1
CCCCCCOC(=O)C,hexyl acetate,310.15,pubchem,1
CCCCOCCCC,1-butoxybutane,298.15,pubchem,1
CCCCCCCCCO,nonan-1-ol,347.15,pubchem,1
CCCCCCCCCCS,decane-1-thiol,371.15,pubchem,1
CCCCCCNCCCCCC,N-hexylhexan-1-amine,368.15,pubchem,1
CCCCOCCOCCOCCO,2-[2-(2-butoxyethoxy)ethoxy]ethanol,416.15,pubchem,1
CCCCCCCCCCCCCCCCN,hexadecan-1-amine,414.15,pubchem,1
CC(C)C(C(C)(C)CO)O,"2,2,4-trimethylpentane-1,3-diol",386.15,pubchem,1
CC1=CC(NC2=CC=CC=C12)(C)C,"2,2,4-trimethyl-1H-quinoline",374.15,pubchem,1
C[Si](C1=CC=CC=C1)(Cl)Cl,dichloro-methyl-phenylsilane,301.15,pubchem,1
CCCCSP(SCCCC)SCCCC,tris(butylsulfanyl)phosphane,419.15,pubchem,1
COC1=CC=C(C=C1)O,4-methoxyphenol,405.15,pubchem,1
COC1=CC=C(C=C1)OC,"1,4-dimethoxybenzene",361.15,pubchem,1
C1CN1,aziridine,262.15,pubchem,1
CCOC1=CC=C(C=C1)N,4-ethoxyaniline,389.15,pubchem,1
C(CN)CO,3-aminopropan-1-ol,352.15,pubchem,1
C1=CC=C2C(=C1)C3=CC=CC4=C3C2=CC=C4,fluoranthene,471.15,pubchem,1
C1=CC2=C3C(=C1)C=CC3=CC=C2,acenaphthylene,395.15,pubchem,1
C1=CC=C2C(=C1)C=CO2,1-benzofuran,329.15,pubchem,1
C1CCC2C(C1)O2,7-oxabicyclo[4.1.0]heptane,354.15,pubchem,1
C1=NC=NN1,"1H-1,2,4-triazole",443.15,pubchem,1
C1CCCCCC1,cycloheptane,279.15,pubchem,1
CCCCC(CC)COP(=O)(O)OCC(CC)CCCC,bis(2-ethylhexyl) hydrogen phosphate,469.15,pubchem,1
CC(CC1=CC=CC=C1)NC.Cl,N-methyl-1-phenylpropan-2-amine;hydrochloride,282.15,pubchem,1
CCCCC(CC)COP(OCC(CC)CCCC)OCC(CC)CCCC,tris(2-ethylhexyl) phosphite,444.15,pubchem,1
NN,hydrazine,325.15,pubchem,1
C1=CC(=C(C=C1C(F)(F)F)Cl)Cl,"1,2-dichloro-4-(trifluoromethyl)benzene",338.15,pubchem,1
COS(=O)(=O)C(F)(F)F,methyl trifluoromethanesulfonate,311.15,pubchem,1
C1=CC=C(C(=C1)N)F,2-fluoroaniline,333.15,pubchem,1
CC1=CC=C(C=C1)F,1-fluoro-4-methylbenzene,314.15,pubchem,1
CC1=CC(=CC=C1)F,1-fluoro-3-methylbenzene,282.15,pubchem,1
CCSCC,ethylsulfanylethane,263.15,pubchem,1
C1=CC(=C(C=C1F)F)N,"2,4-difluoroaniline",336.15,pubchem,1
C1=CC(=CC=C1N)F,4-fluoroaniline,347.15,pubchem,1
C(CF)O,2-fluoroethanol,304.15,pubchem,1
C1=CC=C(C(=C1)C(F)(F)F)[N+](=O)[O-],1-nitro-2-(trifluoromethyl)benzene,369.15,pubchem,1
C1=CC=C(C(=C1)C(=O)Cl)F,2-fluorobenzoyl chloride,355.15,pubchem,1
CC(=CCCC(=O)C)C,6-methylhept-5-en-2-one,330.15,pubchem,1
C(#N)N,cyanamide,414.15,pubchem,1
C1=CC(=CC=C1F)Br,1-bromo-4-fluorobenzene,333.15,pubchem,1
C1=CC=C(C=C1)F,fluorobenzene,258.15,pubchem,1
C1=CC(=CN=C1)N,pyridin-3-amine,463.15,pubchem,1
CCCCCON=O,pentyl nitrite,283.15,pubchem,1
CC(C(C)(C)C)O,"3,3-dimethylbutan-2-ol",351.15,pubchem,1
CC1(C2CCC1(C(C2)O)C)C,"(1S,2R,4R)-1,7,7-trimethylbicyclo[2.2.1]heptan-2-ol",339.15,pubchem,1
C#CC(=O)O,prop-2-ynoic acid,331.15,pubchem,1
CC1CCC2CC1C2(C)C,"2,6,6-trimethylbicyclo[3.1.1]heptane",313.15,pubchem,1
CCC=CCC1=C(CCC1=O)C,3-methyl-2-pent-2-enylcyclopent-2-en-1-one,380.15,pubchem,1
C1C=CC(=O)O1,"InChI=1S/C4H4O2/c5-4-2-1-3-6-4/h1-2H,3H2",374.15,pubchem,1
CC1=C(C=C(C=C1)C(C)C)O,2-methyl-5-propan-2-ylphenol,373.15,pubchem,1
C1=CC=C(C=C1)COC(=O)Cl,benzyl carbonochloridate,381.15,pubchem,1
C1CCC(=O)OCC1,oxepan-2-one,400.15,pubchem,1
CCCCC(=O)CCCC,nonan-5-one,333.15,pubchem,1
C1C(O1)CF,2-(fluoromethyl)oxirane,277.15,pubchem,1
CC#CC,but-2-yne,253.15,pubchem,1
C1COC1,oxetane,245.15,pubchem,1
CC(C)CC(=O)O,3-methylbutanoic acid,343.15,pubchem,1
CC(=CC(=O)C=C(C)C)C,"2,6-dimethylhepta-2,5-dien-4-one",358.15,pubchem,1
C1=CC=NC(=C1)N,pyridin-2-amine,365.15,pubchem,1
C(CO)CO,"propane-1,3-diol",447.15,pubchem,1
C1COCOC1,"1,3-dioxane",275.15,pubchem,1
C(CCl)SCCCl,1-chloro-2-(2-chloroethylsulfanyl)ethane,378.15,pubchem,1
CC(=O)Br,acetyl bromide,348.15,pubchem,1
CC(C)(C)Br,2-bromo-2-methylpropane,257.15,pubchem,1
CC1(C2CCC1(C(C2)O)C)C,"(1R,2S,4S)-1,7,7-trimethylbicyclo[2.2.1]heptan-2-ol",339.15,pubchem,1
CC(C)CCl,1-chloro-2-methylpropane,263.15,pubchem,1
CC(=CCl)C,1-chloro-2-methylprop-1-ene,272.15,pubchem,1
CC(=C)CO,2-methylprop-2-en-1-ol,306.15,pubchem,1
CCC(C)S,butane-2-thiol,250.15,pubchem,1
CC(C)C1=CC2=CCC3C(C2CC1)(CCCC3(C)C(=O)O)C,"(1R,4aR,4bR,10aR)-1,4a-dimethyl-7-propan-2-yl-2,3,4,4b,5,6,10,10a-octahydrophenanthrene-1-carboxylic acid",460.15,pubchem,1
CC1=C(C(=CC=C1)C)C,"1,2,3-trimethylbenzene",317.15,pubchem,1
CC1=CC(=C(C(=C1)C)C)C,"1,2,3,5-tetramethylbenzene",336.15,pubchem,1
C1=CC=C(C(=C1)[N+](=O)[O-])[N+](=O)[O-],"1,2-dinitrobenzene",423.15,pubchem,1
CC1=CC=CC=C1C#N,2-methylbenzonitrile,357.15,pubchem,1
CC1=CC=CC=C1C=O,2-methylbenzaldehyde,340.15,pubchem,1
C1CC2=CC=CC=C2C(=O)C1,"3,4-dihydro-2H-naphthalen-1-one",402.15,pubchem,1
C1=CC=C(C=C1)C(=O)CCl,2-chloro-1-phenylethanone,391.15,pubchem,1
C1=CC=C(C=C1)C(C#N)O,2-hydroxy-2-phenylacetonitrile,355.15,pubchem,1
CN1CN(C(=S)SC1)C,"3,5-dimethyl-1,3,5-thiadiazinane-2-thione",366.15,pubchem,1
CC1=CC=CO1,2-methylfuran,243.15,pubchem,1
CC(CC1=CC=CC=C1)NC,(2S)-N-methyl-1-phenylpropan-2-amine,282.15,pubchem,1
CCCCCCCC(=O)OCC(COC(=O)CCCCCCC)OC(=O)CCCCCCC,"2,3-di(octanoyloxy)propyl octanoate",450.15,pubchem,1
CCCCCOC(=O)CCC,pentyl butanoate,330.15,pubchem,1
C(CBr)O,2-bromoethanol,314.15,pubchem,1
CCCCl,1-chloropropane,255.15,pubchem,1
C(=CCl)Cl,"1,2-dichloroethene",277.15,pubchem,1
CCOC,methoxyethane,236.15,pubchem,1
CC(C)CC(C)(C)C,"2,2,4-trimethylpentane",261.15,pubchem,1
CC(=O)OC(C)(C)C,tert-butyl acetate,295.15,pubchem,1
C[Si]1(O[Si](O[Si](O[Si](O[Si](O[Si](O1)(C)C)(C)C)(C)C)(C)C)(C)C)C,"2,2,4,4,6,6,8,8,10,10,12,12-dodecamethyl-1,3,5,7,9,11-hexaoxa-2,4,6,8,10,12-hexasilacyclododecane",364.15,pubchem,1
C[Si]1(O[Si](O[Si](O[Si](O[Si](O1)(C)C)(C)C)(C)C)(C)C)C,"2,2,4,4,6,6,8,8,10,10-decamethyl-1,3,5,7,9,2,4,6,8,10-pentaoxapentasilecane",346.15,pubchem,1
CCOC(=O)Cl,ethyl carbonochloridate,289.15,pubchem,1
C1=CC(=CC(=C1)Cl)Cl,"1,3-dichlorobenzene",336.15,pubchem,1
C1CCC(CC1)Cl,chlorocyclohexane,305.15,pubchem,1
CC(C)CON=O,2-methylpropyl nitrite,250.15,pubchem,1
CC(=O)OCCO,2-hydroxyethyl acetate,375.15,pubchem,1
C(CCl)C#N,3-chloropropanenitrile,349.15,pubchem,1
CCCCCC(C)O,heptan-2-ol,344.15,pubchem,1
CCCCCCl,1-chloropentane,274.15,pubchem,1
CCCCCCCl,1-chlorohexane,308.15,pubchem,1
CCC=CCCO,hex-3-en-1-ol,403.15,pubchem,1
CCCCCCCCCCCCCCCC,hexadecane,408.15,pubchem,1
C(#N)C(Cl)(Cl)Cl,"2,2,2-trichloroacetonitrile",347.15,pubchem,1
C1CN1P(=O)(N2CC2)N3CC3,1-[bis(aziridin-1-yl)phosphoryl]aziridine,436.15,pubchem,1
CC(C(=O)OC)O,methyl 2-hydroxypropanoate,324.15,pubchem,1
C1=CC2=C(C=C1C(=O)O)C(=O)OC2=O,"1,3-dioxo-2-benzofuran-5-carboxylic acid",500.15,pubchem,1
C1=CC(=C(C=C1Cl)Cl)N,"2,4-dichloroaniline",388.15,pubchem,1
CCC(=O)OC,methyl propanoate,271.15,pubchem,1
CC(C)C1CCC(=C)C=C1,3-methylidene-6-propan-2-ylcyclohexene,393.15,pubchem,1
C1C(O1)CO,oxiran-2-ylmethanol,345.15,pubchem,1
CN=C=S,methylimino(sulfanylidene)methane,308.15,pubchem,1
C[Si]1(O[Si](O[Si](O[Si](O1)(C)C)(C)C)(C)C)C,"2,2,4,4,6,6,8,8-octamethyl-1,3,5,7,2,4,6,8-tetraoxatetrasilocane",328.15,pubchem,1
CC(=CCO)C,3-methylbut-2-en-1-ol,323.15,pubchem,1
CCCCCCCCCCCCCCCCCC(=O)[O-].CCCCCCCCCCCCCCCCCC(=O)[O-].[Zn+2],zinc;octadecanoate,550.15,pubchem,1
C=CCOCC=C,3-prop-2-enoxyprop-1-ene,266.15,pubchem,1
C=CO,ethenol,352.15,pubchem,1
CC1=CCC(CC1)(C(C)C)O,4-methyl-1-propan-2-ylcyclohex-3-en-1-ol,352.15,pubchem,1
CC1=CC(=CC=C1)OP(=O)(OC2=CC=CC(=C2)C)OC3=CC=CC(=C3)C,tris(3-methylphenyl) phosphate,483.15,pubchem,1
CC(=C)CCl,3-chloro-2-methylprop-1-ene,260.15,pubchem,1
CC(C)C(=O)C,3-methylbutan-2-one,279.15,pubchem,1
CC1=C(C(=CC=C1)C)O,"2,6-dimethylphenol",347.15,pubchem,1