smiles,compound,flashpoint,source,pure substance
N#CCCCl,"Propanenitrile, 3-chloro-",348.75,le15,1
CC(Cl)C#N,2-Chloropropionitrile,306.45,le15,1
CC(O)C(=O)O,"Propanoic acid, 2-hydroxy-",383.086,le15,1
O=C(CO)CO,"2-Propanone, 1,3-dihydroxy-",370.45,le15,1
COC(=O)OC,"Carbonic acid, dimethyl ester",291.15,le15,1
COCC(=O)O,"Acetic acid, 2-methoxy-",394.15,le15,1
C[C@H](O)C(=O)O,"Propanoic acid, 2-hydroxy-, (S)- (9CI)",383.05,le15,1
COC(=O)CO,methyl 2-hydroxyacetate,340.35,le15,1
COC(=O)OC,Dimethylcarbonate,291.0,le15,1
COC(=O)NN,"Carbazic acid, methyl ester (8CI)",359.25,le15,1
CC(C)(C)OO,"Hydroperoxide, 1,1-dimethylethyl",308.15,le15,1
CC(O)CCO,"1,3-Butanediol",394.25,le15,1
COCC(C)O,"2-Propanol, 1-methoxy-",344.95,le15,1
COCCOC,"Ethane, 1,2-dimethoxy-",273.15,le15,1
CCOCCO,"Ethanol, 2-ethoxy-",317.15,le15,1
CC(C)(O)CO,"2-methylpropane-1,2-diol",346.85,le15,1
CCC(O)CO,"1,2-Butanediol",366.45,le15,1
COC(C)CO,2-methoxypropan-1-ol,315.0499999999999,le15,1
COCCCO,"1-Propanol, 3-methoxy-",325.95,le15,1
CC(CO)CO,"2-methylpropane-1,3-diol",375.65,le15,1
COCC(C)O,1methoxy2propanol,311.0,le15,1
NCC(O)CN,"2-Propanol, 1,3-diamino-",370.05,le15,1
CNC(=N)S,"Pseudourea, 1-methyl-2-thio- (7CI)",312.25,le15,1
CCSCC,"Ethane, 1,1'-thiobis-",263.15,le15,1
CCCSC,1-methylsulfanylpropane,273.15,le15,1
CC(C)(C)S,"2-Propanethiol, 2-methyl-",249.15,le15,1
CCC(C)S,2butanethiol,250.0,le15,1
CC(C)(C)S,2methyl2propanethiol,247.0,le15,1
C=CC(=O)Cl,prop-2-enoyl chloride,289.25,le15,1
C=C(C)CCl,"1-Propene, 3-chloro-2-methyl-",260.35,le15,1
C/C=C(/C)Cl,(Z)-2-chlorobut-2-ene,254.15,le15,1
C/C=C\CCl,(Z)-1-chlorobut-2-ene,378.55,le15,1
C/C=C/CCl,(E)-1-chlorobut-2-ene,261.15,le15,1
C/C=C/CCl,(E)-1-chlorobut-2-ene,258.15,le15,1
ClCC1CC1,chloromethylcyclopropane,271.45,le15,1
C=C(C)CCl,3chloro2methyl1propene,261.0,le15,1
NC(CO)CO,"1,3-Propanediol, 2-amino-",388.25,le15,1
NNC(N)=S,Hydrazinecarbothioamide,353.15,le15,1
COC(=O)CF,"Acetic acid, fluoro-, methyl ester",290.75,le15,1
OCC(O)CO,Glycerol,457.0,le15,1
O=C(O)CS,"Acetic acid, mercapto-",372.95,le15,1
Cc1ccccc1,"Benzene, methyl-",283.15,le15,1
C1=CC2C=CC1C2,"Bicyclo(2.2.1)hepta-2,5-diene",262.04999999999995,le15,1
C1=CC=CCC=C1,"1,3,5-Cycloheptatriene",299.85,le15,1
CC(=O)CCl,"2-Propanone, 1-chloro-",300.95,le15,1
ClCC1CO1,"Propane, 1-chloro-2,3-epoxy-",307.0499999999999,le15,1
O=CCCCl,3-chloropropanal,299.5499999999999,le15,1
CCC(=O)Cl,PropanoylChloride,285.0,le15,1
CC(C)(C)Cl,2-chloro-2-methylpropane,291.45,le15,1
[2H]C([2H])([2H])C(Cl)(C([2H])([2H])[2H])C([2H])([2H])[2H],"2-chloro-1,1,1,3,3,3-hexadeuterio-2-(trideuteriomethyl)propane",291.45,le15,1
CC(C)CCl,1chloro2methylpropane,294.0,le15,1
CCCCCl,1chlorobutane,267.0,le15,1
CC(C)(C)Cl,2chloro2methylpropane,291.0,le15,1
N#Cc1ccco1,furan-2-carbonitrile,308.15,le15,1
Nc1ccccc1,Benzenamine,349.15,le15,1
Cc1ccncc1,"Pyridine, 4-methyl-",313.15,le15,1
Cc1cccnc1,"Pyridine, 3-methyl-",309.261,le15,1
Cc1ccccn1,"Pyridine, 2-methyl-",299.261,le15,1
Clc1ccccn1,2chloropyridine,339.0,le15,1
Cc1cccnc1,3picoline,313.0,le15,1
Cc1ccncc1,4methylpyridine,310.0,le15,1
Cc1ccncc1,4picoline,313.0,le15,1
NC(=O)CCl,"Acetamide, 2-chloro-",381.75,le15,1
CP(C)(=O)O,dimethylphosphinic acid,410.85,le15,1
C=Cc1ccco1,2-ethenylfuran,278.65,le15,1
Cc1cnccn1,"Pyrazine, 2-methyl-",323.15,le15,1
Nc1cccnc1,"Pyridine, 3-amino-",397.15,le15,1
Nc1ccncc1,"Pyridine, 4-amino-",429.15,le15,1
Cc1cccnn1,3-methylpyridazine,360.95,le15,1
Cc1cncnc1,5-methylpyrimidine,316.40599999999995,le15,1
Cc1ccncn1,4-methylpyrimidine,313.15,le15,1
CC(C)(C#N)C#N,"2,2-dimethylpropanedinitrile",350.95,le15,1
Cc1ncccn1,2-methylpyrimidine,293.45,le15,1
CS(C)(=O)=O,"Methane, sulfonylbis-",416.15,le15,1
CC1=CCCC=C1,"2-methylcyclohexa-1,3-diene",276.25,le15,1
C=CC#CCCC,1-Hepten-3-yne,281.35,le15,1
C1=CCCCC=C1,"cyclohepta-1,3-diene",284.25,le15,1
C1=CC2CCC1C2,2norbornene,258.0,le15,1
SCCS,"ethane-1,2-dithiol",317.5499999999999,le15,1
CSSC,Methyl disulfide (8CI),297.5499999999999,le15,1
CSSC,DimethylDisulfide,297.0,le15,1
O=C(O)CCl,"Acetic acid, chloro-",399.15,le15,1
COC(=O)Cl,"Carbonochloridic acid, methyl ester",280.95,le15,1
CC(O)CCl,"2-Propanol, 1-chloro-",324.85,le15,1
COCCCl,1-chloro-2-methoxyethane,288.15,le15,1
CCOCCl,chloromethoxyethane,292.15,le15,1
OCCCCl,3chloro1propanol,346.0,le15,1
C[Si](C)Cl,chloro(dimethyl)silicon,245.15,le15,1
ClC#CCl,"Ethyne, dichloro- (9CI)",280.45,le15,1
O=Cc1ccc[nH]1,1H-pyrrole-2-carbaldehyde,379.85,le15,1
O=c1cccc[nH]1,1H-pyridin-2-one,454.25,le15,1
N#CCNCC#N,"Acetonitrile, 2,2'-iminobis-",431.05,le15,1
CCn1cccc1,1-ethylpyrrole,298.65,le15,1
Cc1c[nH]c(C)c1,"2,4-dimethyl-1H-pyrrole",329.75,le15,1
CCc1ccc[nH]1,2-ethyl-1H-pyrrole,335.35,le15,1
Cc1ccc(C)[nH]1,"Pyrrole, 2,5-dimethyl- (8CI)",327.15,le15,1
O=[N+]([O-])CCl,Chloronitromethane,297.85,le15,1
O=C(O)C(F)F,"Acetic acid, 2,2-difluoro-",351.15,le15,1
O=Cc1ccco1,2-Furancarboxaldehyde,331.45,le15,1
O=c1ccocc1,pyran-4-one,374.25,le15,1
O=c1cccco1,pyran-2-one,362.35,le15,1
O=Cc1ccoc1,furan-3-carbaldehyde,321.45,le15,1
O=Cc1ccco1,Furfural,333.0,le15,1
Fc1ccccc1,"Benzene, fluoro-",258.15,le15,1
CS(=O)(=O)O,Methanesulphonic acid,462.15,le15,1
C/C=C/C=C/C=O,"2,4-Hexadienal, (2E,4E)-",341.15,le15,1
Cc1ccc(C)o1,"Furan, 2,5-dimethyl-",271.45,le15,1
CC1=CCCC1=O,2-methylcyclopent-2-en-1-one,326.25,le15,1
C#CCCC(C)=O,hex-5-yn-2-one,315.85,le15,1
CC1=CC(=O)CC1,3-methylcyclopent-2-en-1-one,326.25,le15,1
CCc1ccco1,"Furan, 2-ethyl-",274.15,le15,1
Cc1coc(C)c1,"2,4-dimethylfuran",273.95,le15,1
O=C1C=CCCC1,2-Cyclohexen-1-one,328.85,le15,1
O=C1CC=CCC1,cyclohex-3-en-1-one,319.95,le15,1
Cc1cc(C)[nH]n1,"3,5-dimethyl-1H-pyrazole",363.65,le15,1
Cc1cnc(C)[nH]1,"2,5-dimethyl-1H-imidazole",415.45,le15,1
CN(C)C=CC#N,"Acrylonitrile, 3-(dimethylamino)- (7CI,8CI)",405.05,le15,1
CCn1ccnc1,1-ethylimidazole,352.0499999999999,le15,1
Cc1nccn1C,"1,2-dimethylimidazole",365.15,le15,1
CC1C=CCCC1,3-methylcyclohexene,270.15,le15,1
CC#CCCCC,hept-2-yne,281.15,le15,1
CC1=CCCCC1,1-methylcyclohexene,269.25,le15,1
C#CCCCCC,hept-1-yne,271.15,le15,1
C=C(C)C=C(C)C,"2,4-dimethylpenta-1,3-diene",283.15,le15,1
C=C1CCCCC1,methylidenecyclohexane,266.45,le15,1
CC=C1CCCC1,ethylidenecyclopentane,275.85,le15,1
C=C=CCCCC,"hepta-1,2-diene",275.35,le15,1
CCC#CCCC,hept-3-yne,278.45,le15,1
C#CCCCCC,1heptyne,271.0,le15,1
CC1=CCCCC1,1methylcyclohexene,270.0,le15,1
C=C1CCCCC1,Methylenecyclohexane,267.0,le15,1
CSCCl,"Methane, chloro(methylthio)- (9CI)",290.35,le15,1
SCCCl,2-chloroethanethiol,304.0499999999999,le15,1
C=C(Cl)Cl,"1,1-Dichloroethene (9CI)",248.15,le15,1
Cl/C=C/Cl,"Ethene, 1,2-dichloro-, (E)- (9CI)",279.25,le15,1
ClC=CCl,"Ethylene, 1,2-dichloro-",279.25,le15,1
O=C1C=CC(=O)N1,"1H-Pyrrole-2,5-dione",409.75,le15,1
Fc1cccnc1,"Pyridine, 3-fluoro- (8CI)(9CI)",286.483,le15,1
Fc1ccccn1,"Pyridine, 2-fluoro-",301.483,le15,1
Fc1ccncc1,4-fluoropyridine,295.95,le15,1
Cc1cc(C)on1,"3,5-dimethyl-1,2-oxazole",304.25,le15,1
NCc1ccco1,furan-2-ylmethanamine,319.85,le15,1
Cc1coc(C)n1,"2,4-dimethyl-1,3-oxazole",307.65,le15,1
Cc1cnc(C)o1,"2,5-dimethyl-1,3-oxazole",303.15,le15,1
C=CCNCC=C,"2-Propen-1-amine, N-2-propenyl-",288.75,le15,1
CC(C)CCC#N,"Pentanenitrile, 4-methyl-",318.75,le15,1
CP(=O)(O)F,"Phosphonofluoridic acid, methyl-",318.75,le15,1
O=C1C=CC(=O)O1,"furan-2,5-dione",376.45,le15,1
OCc1ccco1,Furfuryl alcohol,338.15,le15,1
CS(=O)(=O)F,Methanesulphonyl fluoride,301.65,le15,1
CC1=CCC(=O)O1,"2(3H)-Furanone, 5-methyl-",341.15,le15,1
C#CC(=O)OCC,ethyl prop-2-ynoate,296.15,le15,1
C=COC(=O)C=C,"Acrylic acid, vinyl ester (6CI,7CI,8CI)",286.65,le15,1
OCc1ccoc1,Furan-3-methanol,311.45,le15,1
COc1ccco1,2-methoxyfuran,283.15,le15,1
OCc1ccco1,Furfurylalcohol,338.0,le15,1
Cc1nonc1C,"3,4-dimethyl-1,2,5-oxadiazole",308.65,le15,1
COC(C)=NC#N,"Ethanimidic acid, N-cyano-, methyl ester",292.0499999999999,le15,1
O=C1CCCCC1,Cyclohexanone,317.15,le15,1
CCC#CC(C)O,3-Hexyn-2-ol,326.45,le15,1
CC=CC=CCO,"2,4-Hexadien-1-ol",345.35,le15,1
CC(=O)C=C(C)C,"3-Penten-2-one, 4-methyl-",303.75,le15,1
C1CCC2OC2C1,7-Oxabicyclo(4.1.0)heptane,300.35,le15,1
C=CCOCC=C,"1-Propene, 3,3'-oxybis-",266.15,le15,1
C#CC(O)C(C)C,"1-Pentyn-3-ol, 4-methyl-",315.0499999999999,le15,1
CCCC#CCO,Hex-2-yn-1-ol,340.95,le15,1
OC1CC=CCC1,3-Cyclohexen-1-ol,326.5499999999999,le15,1
O=CC1CCCC1,cyclopentanecarbaldehyde,309.15,le15,1
C=CCC(O)C=C,"Hexa-1,5-dien-3-ol",302.5499999999999,le15,1
CCC#CCCO,3-Hexyn-1-ol,336.45,le15,1
CC1CCCC1=O,2-methylcyclopentan-1-one,305.85,le15,1
C/C=C/C(=O)CC,(E)-hex-4-en-3-one,307.5499999999999,le15,1
CCC/C=C/C=O,"2-Hexenal, (2E)-",308.15,le15,1
CC/C=C\CC=O,"3-Hexenal, (3Z)-",333.15,le15,1
CC1=CCOCC1,"4-methyl-3,6-dihydro-2H-pyran",287.45,le15,1
C#CC(C)(O)CC,"1-Pentyn-3-ol, 3-methyl-",302.15,le15,1
C=CCCC(C)=O,5-Hexen-2-one,297.0499999999999,le15,1
C#CCCCCO,5-Hexyn-1-ol,343.15,le15,1
C=C(C=O)CCC,"Pentanal, 2-methylene- (9CI)",302.25,le15,1
CC(=O)C1CCC1,1-cyclobutylethanone,305.45,le15,1
C1CCC2OC2C1,CyclohexeneOxide,297.0,le15,1
Cc1cc(C)c(Oc2c(C)cc(C)cc2C)c(C)c1,Mesityloxide,305.0,le15,1
CN(C)CCC#N,"Propanenitrile, 3-(dimethylamino)-",335.15,le15,1
CCC(C)(N)C#N,"Butanenitrile, 2-amino-2-methyl-",343.85,le15,1
CCN(C#N)CC,Diethylcyanamide,342.0,le15,1
Cc1cccs1,2methylthiophene,280.0,le15,1
C1CCCCCC1,cycloheptane,279.25,le15,1
CC=C(CC)CC,3-ethylpent-2-ene,309.15,le15,1
CCC1CCCC1,ethylcyclopentane,288.75,le15,1
C=CCCCCC,1heptene,265.0,le15,1
C=C(C)CCCC,2methyl1hexene,267.0,le15,1
C1CCCCCC1,Cycloheptane,279.0,le15,1
CCC1CCCC1,Ethylcyclopentane,288.0,le15,1
NCC(F)(F)F,"2,2,2-trifluoroethanamine",257.15,le15,1
COC(=O)CC#N,methyl 2-cyanoacetate,315.85,le15,1
O=C1CCC(=O)N1,"2,5-Pyrrolidinedione",433.15,le15,1
CCOC(=O)C#N,ethyl cyanoformate,297.5499999999999,le15,1
CC1CCC(=O)N1,5-methylpyrrolidin-2-one,400.65,le15,1
CCCCN=C=O,"Isocyanic acid, butyl ester",290.95,le15,1
O=C1CCCCN1,piperidin-2-one,406.25,le15,1
CC(C)CN=C=O,1-isocyanato-2-methylpropane,290.25,le15,1
CCOCCC#N,"Propionitrile, 3-ethoxy- (8CI)",337.0499999999999,le15,1
C=CN(C)C(C)=O,"Acetamide, N-ethenyl-N-methyl-",336.0499999999999,le15,1
CC(C)=CC(N)=O,"Crotonamide, 3-methyl-",364.35,le15,1
CN1CCCC1=O,"2-Pyrrolidinone, 1-methyl-",364.15,le15,1
C=CC(=O)N(C)C,"2-Propenamide, N,N-dimethyl-",344.85,le15,1
CN1CCCC1=O,1methyl2pyrrolidinone,359.0,le15,1
CCC1=NCCO1,2ethyloxazoline,302.0,le15,1
C=CCN=C=S,"Isothiocyanic acid, allyl ester",309.45,le15,1
Cc1nccs1,"2-methyl-1,3-thiazole",302.0499999999999,le15,1
Cc1cscn1,"4-methyl-1,3-thiazole",305.15,le15,1
CC1CCCCN1,2-methylpiperidine,289.15,le15,1
C1CCCNCC1,"1H-Azepine, hexahydro-",291.15,le15,1
CC1CCNCC1,4-methylpiperidine,280.35,le15,1
CN1CCCCC1,"Piperidine, 1-methyl-",276.45,le15,1
CCN1CCCC1,1-ethylpyrrolidine,274.75,le15,1
C=C(C)CNCC,"Allylamine, N-ethyl-2-methyl- (6CI,8CI)",280.35,le15,1
CC1(N)CCCC1,"Cyclopentylamine, 1-methyl- (6CI)",282.35,le15,1
NC1CCCCC1,Cyclohexylamine,300.0,le15,1
OCC(F)(F)F,"Ethanol, 2,2,2-trifluoro-",302.5499999999999,le15,1
C=C(C)C(=O)OC,"2-Propenoic acid, 2-methyl-, methyl ester",283.15,le15,1
C=C(C)OC(C)=O,"1-Propen-2-ol, acetate",286.0499999999999,le15,1
CC1CCC(=O)O1,"2(3H)-Furanone, dihydro-5-methyl-",348.13,le15,1
O=CCCCC=O,Glutaraldehyde,339.15,le15,1
CC(=O)CC(C)=O,"2,4-Pentanedione",316.25,le15,1
C=CC(=O)OCC,"2-Propenoic acid, ethyl ester",288.706,le15,1
CC(C)=CC(=O)O,"2-Butenoic acid, 3-methyl-",369.15,le15,1
C/C=C(/C)C(=O)O,(Z)-2-methylbut-2-enoic acid,369.05,le15,1
C=CCCC(=O)O,4-Pentenoic acid,362.15,le15,1
C=CCOC(C)=O,"Acetic acid, 2-propenyl ester",279.85,le15,1
CCC(=O)C(C)=O,"2,3-Pentanedione",292.85,le15,1
C/C=C/C(=O)OC,"2-Butenoic acid, methyl ester, (2E)-",277.15,le15,1
CC1CCOC1=O,alpha-Methyl-gamma-butyrolactone,348.15,le15,1
O=C(O)C1CCC1,cyclobutanecarboxylic acid,356.15,le15,1
C=CC1OCCO1,"2-Vinyl-1,3-dioxolane",294.15,le15,1
CC1CC1C(=O)O,2-methylcyclopropane-1-carboxylic acid,360.95,le15,1
O=C1CCCCO1,oxan-2-one,354.15,le15,1
COC(=O)C1CC1,methyl cyclopropanecarboxylate,290.15,le15,1
O=C1CCOCC1,oxan-4-one,336.75,le15,1
C=CCCC(=O)[O-],Allylacetate,279.0,le15,1
CC1CCC(=O)O1,gammaValerolactone,354.0,le15,1
COC(=O)C1CC1,MethylCyclopropanecarboxylate,290.0,le15,1
C=C(C)C(=O)OC,MethylMethacrylate,283.0,le15,1
C=CCNC(N)=O,"Urea, N-2-propen-1-yl-",328.45,le15,1
O=NN1CCCC1,"Pyrrolidine, 1-nitroso-",356.45,le15,1
C=CCN(C)N=O,"2-Propen-1-amine, N-methyl-N-nitroso- (9CI)",338.95,le15,1
CC(=O)C(C)(C)C,"2-Butanone, 3,3-dimethyl-",297.0499999999999,le15,1
CC(=O)CC(C)C,"2-Pentanone, 4-methyl-",286.45,le15,1
OC1CCCCC1,Cyclohexanol,340.92800000000005,le15,1
CCCC(C)C=O,"Valeraldehyde, 2-methyl- (8CI)",289.85,le15,1
CC/C=C/CCO,(E)-hex-3-en-1-ol,317.5499999999999,le15,1
CCC(C)C(C)=O,3-methylpentan-2-one,285.15,le15,1
CCC(=O)C(C)C,2-methylpentan-3-one,283.95,le15,1
CCCC(=O)CC,3-Hexanone,296.15,le15,1
CCCCC(C)=O,2-Hexanone,296.15,le15,1
C1CCCOCC1,oxepane,287.35,le15,1
C=CCCCCO,Hex-5-en-1-ol,320.35,le15,1
C=CC(C)(O)CC,"1-Penten-3-ol, 3-methyl-",299.15,le15,1
C/C=C/CCCO,"4-Hexen-1-ol, (4E)-",334.25,le15,1
CCC/C=C\CO,(Z)-hex-2-en-1-ol,334.85,le15,1
CC/C=C\CCO,"3-Hexen-1-ol, (3Z)-",317.15,le15,1
CC/C=C/CCO,"3-Hexen-1-ol, (3E)-",317.5499999999999,le15,1
CC(C)CCC=O,"Valeraldehyde, 4-methyl-",290.95,le15,1
CC1(C)CCCO1,"Furan, tetrahydrodimethyl-",277.65,le15,1
CCCCC1CO1,"Oxirane, butyl- (9CI)",294.95,le15,1
CCC=C(C)CO,"2-Penten-1-ol, 2-methyl-",333.95,le15,1
CC(C)(C)CC=O,"3,3-Dimethylbutyraldehyde",283.75,le15,1
OCC1CCCC1,cyclopentylmethanol,335.35,le15,1
C=CC(O)CCC,1-Hexen-3-ol,308.15,le15,1
CCC(C)CC=O,3-methylpentanal,290.95,le15,1
CC1CCC(O)C1,3-methylcyclopentan-1-ol,328.15,le15,1
C[C@H]1CCC[C@H]1O,"(1R,2S)-2-methylcyclopentan-1-ol",320.35,le15,1
CC=CC(C)(C)O,2-methylpent-3-en-2-ol,297.35,le15,1
CCCCCC=O,Hexaldehyde,305.15,le15,1
CCC(C=O)CC,"Butyraldehyde, 2-ethyl-",294.25,le15,1
CCC/C=C/CO,"2-Hexen-1-ol, (2E)-",327.15,le15,1
CCC1OC1(C)C,"Oxirane, 3-ethyl-2,2-dimethyl-",277.45,le15,1
CC1(O)CCCC1,1-methylcyclopentan-1-ol,313.75,le15,1
CCC(C=O)CC,2ethylbutanal,294.0,le15,1
CCC(=O)C(C)C,2methyl3pentanone,286.0,le15,1
CCCC(=O)CC,3hexanone,287.0,le15,1
CCC(C)C(C)=O,3methyl2pentanone,285.0,le15,1
C=CCCCCO,5hexen1ol,320.0,le15,1
C=COCCCC,Butylvinylether,264.0,le15,1
CCCCCC=O,Hexanal,305.0,le15,1
CC(=O)CC(C)C,MethylIsobutylKetone,287.0,le15,1
CC(=O)C(C)(C)C,Pinacolone,278.0,le15,1
CN1CCNCC1,"Piperazine, 1-methyl-",315.35,le15,1
C1CNCCNC1,"1H-1,4-Diazepine, hexahydro-",337.5499999999999,le15,1
NN1CCCCC1,piperidin-1-amine,309.25,le15,1
CCN1CN1CC,"1,2-Diethyldiaziridine",275.75,le15,1
CC1CNCCN1,"Piperazine, 2-methyl-",318.25,le15,1
CC(C)CC(C)C,"2,4-dimethylpentane",260.95,le15,1
CCCCCCC,Heptane,272.04999999999995,le15,1
CCCCC(C)C,2methylhexane,270.0,le15,1
CCCC(C)CC,3methylhexane,270.0,le15,1
CC(=O)C(C)=NO,"2,3-Butanedione, monooxime",458.65,le15,1
CC(=O)NC(C)=O,N-acetylacetamide,374.95,le15,1
C=CC(=O)NCO,"2-Propenamide, N-(hydroxymethyl)-",419.35,le15,1
Nc1nncs1,"1,3,4-Thiadiazole, 2-amino-",371.45,le15,1
CC(C)CC(N)=O,3-methylbutanamide,367.25,le15,1
CCN(C=O)CC,"Formamide, N,N-diethyl-",333.15,le15,1
CCC/C(C)=N\O,(NZ)-N-pentan-2-ylidenehydroxylamine,351.15,le15,1
CCCCC(N)=O,pentanamide,367.45,le15,1
CCC(=O)N(C)C,"N,N-dimethylpropanamide",338.95,le15,1
CC(C)(C)NC=O,N-tert-butylformamide,368.85,le15,1
CCCN=C=S,"Propane, 1-isothiocyanato-",258.15,le15,1
CC1=NCCS1,"2-methyl-4,5-dihydro-1,3-thiazole",310.35,le15,1
CC(C)CC(C)N,4-methylpentan-2-amine,285.15,le15,1
CCCCCCN,1-Hexanamine,300.15,le15,1
CCCCN(C)C,"N,N-dimethylbutan-1-amine",278.15,le15,1
CC(C)CCCN,Isohexylamine,298.85,le15,1
CCCNC(C)C,N-propan-2-ylpropan-1-amine,274.25,le15,1
CC(C)NC(C)C,"2-Propanamine, N-(1-methylethyl)-",266.15,le15,1
CCCNCCC,"1-Propanamine, N-propyl-",276.15,le15,1
CC(C)(C)CCN,"3,3-dimethylbutan-1-amine",274.25,le15,1
CCCCNCC,"1-Butanamine, N-ethyl-",291.15,le15,1
CC(C)(C)CCN,"3,3-Dimethylbutylamine",278.75,le15,1
CC(=O)CC(=O)O,3-oxobutanoic acid,384.95,le15,1
COC(=O)C(C)=O,methyl 2-oxopropanoate,312.15,le15,1
CC(=O)OC(C)=O,Aceticanhydride,322.0,le15,1
CC(C)(C)C(=O)O,"Propanoic acid, 2,2-dimethyl-",341.45,le15,1
CCOC(=O)CC,"Propanoic acid, ethyl ester",285.35,le15,1
CC(=O)OC(C)C,"Acetic acid, 1-methylethyl ester",289.85,le15,1
CCCOC(C)=O,"Acetic acid, propyl ester",285.95,le15,1
C=CCOCCO,"Ethanol, 2-(2-propenyloxy)-",328.15,le15,1
CC(=O)C(C)(C)O,3-hydroxy-3-methylbutan-2-one,315.35,le15,1
CCC(C)C(=O)O,"Butyric acid, 2-methyl- (6CI,8CI)",346.5499999999999,le15,1
CC(C)CC(=O)O,"Butanoic acid, 3-methyl-",346.5499999999999,le15,1
CC(C)COC=O,"Formic acid, 2-methylpropyl ester",283.15,le15,1
COC(=O)C(C)C,"Propanoic acid, 2-methyl-, methyl ester",277.54999999999995,le15,1
CC(C)(C=O)CO,"Hydracrylaldehyde, 2,2-dimethyl- (6CI,7CI,8CI)",333.45,le15,1
CC(=O)CCCO,"2-Pentanone, 5-hydroxy- (8CI)(9CI)",366.15,le15,1
C=COCCOC,"Ethene, (2-methoxyethoxy)- (9CI)",282.45,le15,1
CC1(C)OCCO1,"2,2-dimethyl-1,3-dioxolane",274.85,le15,1
COC(C)CC=O,"Butanal, 3-methoxy- (9CI)",299.35,le15,1
C=CC(OC)OC,"3,3-dimethoxyprop-1-ene",270.35,le15,1
OCC1CCCO1,"Furfuryl alcohol, tetrahydro- (8CI)",347.15,le15,1
CCC(C)OC=O,"Formic acid, sec-butyl ester (8CI)",276.65,le15,1
CC1CCOCO1,"4-methyl-1,3-dioxane",295.35,le15,1
CCOCC1CO1,2-(ethoxymethyl)oxirane,296.65,le15,1
CCC(C)C(=O)O,2methylbutyricacid,350.0,le15,1
CC(C)CC(=O)O,3methylbutanoicacid,347.0,le15,1
COC(=O)C(C)C,MethylIsobutyrate,276.0,le15,1
CC(C)(C)C(=O)O,PivalicAcid,337.0,le15,1
CC(C)(C)OC=O,tertButylFormate,264.0,le15,1
CCN(CC)N=O,"Ethanamine, N-ethyl-N-nitroso-",332.15,le15,1
CNC(=O)N(C)C,"1,1,3-trimethylurea",367.55,le15,1
CCCC(=O)NN,Butyrohydrazide,378.05,le15,1
NN1CCOCC1,morpholin-4-amine,331.15,le15,1
FC1CCCCC1,fluorocyclohexane,282.0499999999999,le15,1
FC1CCCCC1,Fluorocyclohexane,278.0,le15,1
S=C1NCCN1,2-Imidazolidinethione,316.65,le15,1
CCCCCCO,Hexyl alcohol,333.15,le15,1
CCCOCCC,"Propane, 1,1'-oxybis-",253.15,le15,1
CC(O)C(C)(C)C,"2-Butanol, 3,3-dimethyl-",302.0499999999999,le15,1
CCCC(C)(C)O,2-methylpentan-2-ol,294.25,le15,1
CCCC(O)CC,hexan-3-ol,314.817,le15,1
CC(C)(C)CCO,"1-Butanol, 3,3-dimethyl-",320.95,le15,1
CC(C)CCCO,"1-Pentanol, 4-methyl- (9CI)",324.85,le15,1
CCCCC(C)O,hexan-2-ol,314.15,le15,1
CCCCOCC,"Ether, butyl ethyl",272.15,le15,1
CCOC(C)(C)C,"Propane, 2-ethoxy-2-methyl-",254.15,le15,1
CCC(C)(C)CO,"1-Butanol, 2,2-dimethyl-",310.5499999999999,le15,1
CC(C)CCCO,"Pentanol, 4-methyl-",324.85,le15,1
CC(C)C(C)(C)O,"2,3-dimethylbutan-2-ol",302.5499999999999,le15,1
CCCCOCC,1ethoxybutane,268.0,le15,1
CCOC(C)(C)C,2ethoxy2methylpropane,254.0,le15,1
CCC(CC)CO,2ethyl1butanol,330.0,le15,1
CCCC(C)CO,2methyl1pentanol,323.0,le15,1
CCC(O)C(C)C,2methyl3pentanol,319.0,le15,1
CCC(C)CCO,3methyl1pentanol,331.0,le15,1
CCC(C)C(C)O,3methyl2pentanol,313.0,le15,1
CC(C)CCCO,4methyl1pentanol,324.0,le15,1
CC(C)CC(C)O,4methyl2pentanol,314.0,le15,1
CC(C)OC(C)C,DiisopropylEther,245.0,le15,1
CCC(C)(C)OC,methyltertpentylether,262.0,le15,1
CNCCN(C)C,"N,N',N'-trimethylethane-1,2-diamine",282.5499999999999,le15,1
C1CCSCC1,thiane,294.25,le15,1
CC1CCCS1,2-methylthiolane,301.25,le15,1
CC1CCSC1,3-methylthiolane,301.25,le15,1
SC1CCCC1,Cyclopentanethiol,298.0,le15,1
ClC1C=CCC1,"Cyclopentene, 3-chloro-",281.85,le15,1
C#CC(C)(C)Cl,3-chloro-3-methylbut-1-yne,277.54999999999995,le15,1
C#CCCCCl,5chloro1pentyne,288.0,le15,1
CN(N=O)C(N)=O,"Urea, 1-methyl-1-nitroso- (8CI)",326.25,le15,1
CCOC(=O)NC,"Carbamic acid, N-methyl-, ethyl ester",330.95,le15,1
CC(=O)NCCO,"Acetamide, N-(2-hydroxyethyl)-",449.85,le15,1
CCCCON=O,"Nitrous acid, butyl ester",261.15,le15,1
CC(C)(C)[N+](=O)[O-],"Propane, 2-methyl-2-nitro-",292.15,le15,1
CC(C)C[N+](=O)[O-],2-methyl-1-nitropropane,311.35,le15,1
CN(C)CC(=O)O,"Glycine, N,N-dimethyl-",332.95,le15,1
CC(C)OC(N)=O,propan-2-yl carbamate,363.25,le15,1
CC(C)CON=O,"Nitrous acid, 2-methylpropyl ester",252.15,le15,1
CC(C)(C)ON=O,tertButylNitrite,250.0,le15,1
CC(O)CN(C)C,"2-Propanol, 1-(dimethylamino)-",308.15,le15,1
CC(C)NCCO,2-(propan-2-ylamino)ethanol,343.45,le15,1
NCCCCCO,5-Aminopentan-1-ol,338.75,le15,1
CCCC(N)CO,"1-Pentanol, 2-amino-",368.15,le15,1
CCOCCCN,"1-Propanamine, 3-ethoxy-",305.95,le15,1
CC(CO)N(C)C,2-(dimethylamino)propan-1-ol,305.25,le15,1
CCCNCCO,"Ethanol, 2-(propylamino)-",351.45,le15,1