compound,flashpoint,pure substance,smiles,source
2-(2-prop-2-enoyloxyethoxy)ethyl prop-2-enoate,351.15,1,C=CC(=O)OCCOCCOC(=O)C=C,pubchem
3-methoxybutyl acetate,350.15,1,CC(CCOC(=O)C)OC,pubchem
N-butyl-N-ethylnitrous amide,366.15,1,CCCCN(CC)N=O,pubchem
2-methylpentanedinitrile,399.15,1,CC(CCC#N)C#N,pubchem
propan-2-yl 2-methylprop-2-enoate,294.15,1,CC(C)OC(=O)C(=C)C,pubchem
1-butoxypropan-2-ol,336.15,1,CCCCOCC(C)O,pubchem
"6-methyl-N-phenyl-2,3-dihydro-1,4-oxathiine-5-carboxamide",476.15,1,CC1=C(SCCO1)C(=O)NC2=CC=CC=C2,pubchem
"6-methyl-4,4-dioxo-N-phenyl-2,3-dihydro-1,4-oxathiine-5-carboxamide",492.15,1,CC1=C(S(=O)(=O)CCO1)C(=O)NC2=CC=CC=C2,pubchem
2-hydroxyethyl carbamate,461.15,1,C(COC(=O)N)O,pubchem
tripropan-2-yl borate,301.15,1,B(OC(C)C)(OC(C)C)OC(C)C,pubchem
"3,5,5-trimethylhexanal",389.15,1,CC(CC=O)CC(C)(C)C,pubchem
N-ethylcyclohexanamine,302.15,1,CCNC1CCCCC1,pubchem
"bis(oxiran-2-ylmethyl) cyclohexane-1,2-dicarboxylate",463.15,1,C1CCC(C(C1)C(=O)OCC2CO2)C(=O)OCC3CO3,pubchem
"dimethoxy-sulfanylidene-(3,5,6-trichloropyridin-2-yl)oxy-λ5-phosphane",455.15,1,COP(=S)(OC)OC1=NC(=C(C=C1Cl)Cl)Cl,pubchem
"1,2-dihydropyridazine-3,6-dione",573.15,1,C1=CC(=O)NNC1=O,pubchem
"bis(2-ethylhexyl) benzene-1,4-dicarboxylate",511.15,1,CCCCC(CC)COC(=O)C1=CC=C(C=C1)C(=O)OCC(CC)CCCC,pubchem
undecylbenzene,414.15,1,CCCCCCCCCCCC1=CC=CC=C1,pubchem
"[2,2,4-trimethyl-3-(2-methylpropanoyloxy)pentyl] 2-methylpropanoate",394.15,1,CC(C)C(C(C)(C)COC(=O)C(C)C)OC(=O)C(C)C,pubchem
N-butyl-N-methylnitrous amide,305.15,1,CCCCN(C)N=O,pubchem
2-[(2-methylpropan-2-yl)oxymethyl]oxirane,316.15,1,CC(C)(C)OCC1CO1,pubchem
"InChI=1S/2Na.H2O4S2/c;;1-5(2)6(3)4/h;;(H,1,2)(H,3,4)/q2*+1;/p-2",373.15,1,[O-]S(=O)S(=O)[O-].[Na+].[Na+],pubchem
2-tert-butyl-4-methoxyphenol;3-tert-butyl-4-methoxyphenol,386.15,1,CC(C)(C)C1=C(C=CC(=C1)O)OC.CC(C)(C)C1=C(C=CC(=C1)OC)O,pubchem
"1,1'-biphenyl;phenoxybenzene",397.15,1,C1=CC=C(C=C1)C2=CC=CC=C2.C1=CC=C(C=C1)OC2=CC=CC=C2,pubchem
"6-methylheptyl 2-(2,4-dichlorophenoxy)acetate",321.15,1,CC(C)CCCCCOC(=O)COC1=C(C=C(C=C1)Cl)Cl,pubchem
diethoxy-(2-ethylsulfanylethoxy)-sulfanylidene-λ5-phosphane;1-diethoxyphosphorylsulfanyl-2-ethylsulfanylethane,318.15,1,CCOP(=O)(OCC)SCCSCC.CCOP(=S)(OCC)OCCSCC,pubchem
"(E)-1,3-dichloroprop-1-ene",308.15,1,C(C=CCl)Cl,pubchem
1-[bis(2-hydroxypropyl)amino]propan-2-ol,433.15,1,CC(CN(CC(C)O)CC(C)O)O,pubchem
"6-chloro-4-N-cyclopropyl-2-N-propan-2-yl-1,3,5-triazine-2,4-diamine",436.15,1,CC(C)NC1=NC(=NC(=N1)NC2CC2)Cl,pubchem
[3-(methoxycarbonylamino)phenyl] N-(3-methylphenyl)carbamate,347.15,1,CC1=CC(=CC=C1)NC(=O)OC2=CC=CC(=C2)NC(=O)OC,pubchem
2-hydroxyethyl octadecanoate,533.15,1,CCCCCCCCCCCCCCCCCC(=O)OCCO,pubchem
chlorosulfanyl thiohypochlorite,391.15,1,S(SCl)Cl,pubchem
butan-2-amine,264.15,1,CCC(C)N,pubchem
N-butylcyclohexanamine,366.15,1,CCCCNC1CCCCC1,pubchem
"1,2-dichloroethyl acetate",426.15,1,CC(=O)OC(CCl)Cl,pubchem
"2,3-dimethylpentan-1-ol",334.15,1,CCC(C)C(C)CO,pubchem
2-[2-(2-methoxypropoxy)propoxy]propan-1-ol,384.15,1,CC(CO)OCC(C)OCC(C)OC,pubchem
(1-acetyloxy-2-methylprop-2-enyl) acetate,488.15,1,CC(=C)C(OC(=O)C)OC(=O)C,pubchem
chloro thiohypochlorite,391.15,1,S(Cl)Cl,pubchem
N-ethyl-N-methylnitrous amide,349.15,1,CCN(C)N=O,pubchem
2-dodecylbenzenesulfonic acid,422.15,1,CCCCCCCCCCCCC1=CC=CC=C1S(=O)(=O)O,pubchem
2-(2-methoxypropoxy)propan-1-ol,347.15,1,CC(CO)OCC(C)OC,pubchem
chloro(diethyl)alumane;dichloro(ethyl)alumane,253.15,1,CC[Al](CC)Cl.CC[Al](Cl)Cl,pubchem
"carbon monoxide;manganese;2-methylcyclopenta-1,3-diene",369.15,1,CC1=C[CH-]C=C1.[C-]#[O+].[C-]#[O+].[C-]#[O+].[Mn],pubchem
tert-butylsulfanylmethylsulfanyl-diethoxy-sulfanylidene-λ5-phosphane,361.15,1,CCOP(=S)(OCC)SCSC(C)(C)C,pubchem
N-ethylbutan-1-amine,291.15,1,CCCCNCC,pubchem
"tris(1,3-dichloropropan-2-yl) phosphate",525.15,1,C(C(CCl)OP(=O)(OC(CCl)CCl)OC(CCl)CCl)Cl,pubchem
S-propyl chloromethanethioate,335.15,1,CCCSC(=O)Cl,pubchem
"2,3-dimethylheptane;2,4-dimethylheptane;2,3,5-trimethylhexane",297.15,1,CCCCC(C)C(C)C.CCCC(C)CC(C)C.CC(C)CC(C)C(C)C,pubchem
"2,3,4-trichlorophenol",335.15,1,C1=CC(=C(C(=C1O)Cl)Cl)Cl,pubchem
"2-cyclohexylsulfanylisoindole-1,3-dione",450.15,1,C1CCC(CC1)SN2C(=O)C3=CC=CC=C3C2=O,pubchem
1-bromopropan-2-ol,327.15,1,CC(CBr)O,pubchem
bis(2-ethylhexyl) decanedioate,483.15,1,CCCCC(CC)COC(=O)CCCCCCCCC(=O)OCC(CC)CCCC,pubchem
phenyl acetate,353.15,1,CC(=O)OC1=CC=CC=C1,pubchem
3-phenylpropan-1-ol,485.15,1,C1=CC=C(C=C1)CCCO,pubchem
2-phenoxyethanol,394.15,1,C1=CC=C(C=C1)OCCO,pubchem
dodecylbenzene,408.15,1,CCCCCCCCCCCCC1=CC=CC=C1,pubchem
2-ethylhexanal,325.15,1,CCCCC(CC)C=O,pubchem
4-ethylphenol,377.15,1,CCC1=CC=C(C=C1)O,pubchem
4-methoxybenzaldehyde,389.15,1,COC1=CC=C(C=C1)C=O,pubchem
2-methylpentanal,293.15,1,CCCC(C)C=O,pubchem
heptan-4-one,322.15,1,CCCC(=O)CCC,pubchem
ethenyl butanoate,293.15,1,CCCC(=O)OC=C,pubchem
"7-methyl-3-methylideneocta-1,6-diene",312.15,1,CC(=CCCC(=C)C=C)C,pubchem
"pentane-2,4-dione",307.15,1,CC(=O)CC(=O)C,pubchem
propanoyl propanoate,336.15,1,CCC(=O)OC(=O)CC,pubchem
"2,4,6-trimethyl-1,3,5-trioxane",309.15,1,CC1OC(OC(O1)C)C,pubchem
N-prop-2-enylprop-2-en-1-amine,280.15,1,C=CCNCC=C,pubchem
1-(2-butoxyethoxy)propan-2-ol,394.15,1,CCCCOCCOCC(C)O,pubchem
2-(2-butoxyethoxy)ethyl acetate,389.15,1,CCCCOCCOCCOC(=O)C,pubchem
nonanal,356.15,1,CCCCCCCCC=O,pubchem
"2,2-dimethylpropane-1,3-diol",380.15,1,CC(C)(CO)CO,pubchem
"thiolane 1,1-dioxide",439.15,1,C1CCS(=O)(=O)C1,pubchem
2-methylprop-2-enenitrile,286.15,1,CC(=C)C#N,pubchem
"2-chlorobuta-1,3-diene",253.15,1,C=CC(=C)Cl,pubchem
1-chloropropan-2-ol,325.15,1,CC(CCl)O,pubchem
"2,6-ditert-butyl-4-methylphenol",400.15,1,CC1=CC(=C(C(=C1)C(C)(C)C)O)C(C)(C)C,pubchem
"N-(butoxymethyl)-2-chloro-N-(2,6-diethylphenyl)acetamide",387.15,1,CCCCOCN(C1=C(C=CC=C1CC)CC)C(=O)CCl,pubchem
"4-diethoxyphosphinothioyloxy-N,N-diethyl-6-methylpyrimidin-2-amine",386.15,1,CCN(CC)C1=NC(=CC(=N1)OP(=S)(OCC)OCC)C,pubchem
2-ethyl-6-methylaniline,375.15,1,CCC1=CC=CC(=C1N)C,pubchem
2-[2-(2-hydroxypropoxy)propoxy]propan-1-ol,414.15,1,CC(CO)OCC(C)OCC(C)O,pubchem
"2,5-dimethyl-1,4-dioxane",297.15,1,CC1COC(CO1)C,pubchem
2-(2-hydroxypropoxy)propan-1-ol,472.15,1,CC(CO)OCC(C)O,pubchem
8-methylnonan-1-ol,377.15,1,CC(C)CCCCCCCO,pubchem
N-butyl-N-propylnitrous amide,367.15,1,CCCCN(CCC)N=O,pubchem
2-[1-(1-methoxypropan-2-yloxy)propan-2-yloxy]propan-1-ol,394.15,1,CC(CO)OC(C)COC(C)COC,pubchem
3-hydroxypropyl prop-2-enoate,370.15,1,C=CC(=O)OCCCO,pubchem
"bis(8-methylnonyl) benzene-1,2-dicarboxylate",505.15,1,CC(C)CCCCCCCOC(=O)C1=CC=CC=C1C(=O)OCCCCCCCC(C)C,pubchem
"oxiran-2-ylmethyl 2,2-dimethyloctanoate",402.15,1,CCCCCCC(C)(C)C(=O)OCC1CO1,pubchem
"bis(6-methylheptyl) benzene-1,2-dicarboxylate",505.15,1,CC(C)CCCCCOC(=O)C1=CC=CC=C1C(=O)OCCCCCC(C)C,pubchem
1-hydroxypropan-2-yl 2-methylprop-2-enoate,394.15,1,CC(CO)OC(=O)C(=C)C,pubchem
azane;1-methyl-4-nitrobenzene;2-nitroaniline;3-nitroaniline,427.15,1,CC1=CC=C(C=C1)[N+](=O)[O-].C1=CC=C(C(=C1)N)[N+](=O)[O-].C1=CC(=CC(=C1)[N+](=O)[O-])N.N,pubchem
8-methylnonyl 2-methylprop-2-enoate,394.15,1,CC(C)CCCCCCCOC(=O)C(=C)C,pubchem
[2-(ethylsulfanylmethyl)phenyl] N-methylcarbamate,396.15,1,CCSCC1=CC=CC=C1OC(=O)NC,pubchem
"N-(2-chloroethyl)-2,6-dinitro-N-propyl-4-(trifluoromethyl)aniline",303.15,1,CCCN(CCCl)C1=C(C=C(C=C1[N+](=O)[O-])C(F)(F)F)[N+](=O)[O-],pubchem
"1,3-dichloro-5-(3,5-dichlorophenyl)benzene",414.15,1,C1=C(C=C(C=C1Cl)Cl)C2=CC(=CC(=C2)Cl)Cl,pubchem
3-[3-(dimethylamino)propyl]-1-[(2-fluorophenyl)methyl-methylamino]-3-phenylindol-2-one,466.15,1,CN(C)CCCC1(C2=CC=CC=C2N(C1=O)N(C)CC3=CC=CC=C3F)C4=CC=CC=C4,pubchem
"N-butan-2-yl-4-tert-butyl-2,6-dinitroaniline",309.15,1,CCC(C)NC1=C(C=C(C=C1[N+](=O)[O-])C(C)(C)C)[N+](=O)[O-],pubchem
"1,1-dimethyl-3-(4-propan-2-ylphenyl)urea",373.15,1,CC(C)C1=CC=C(C=C1)NC(=O)N(C)C,pubchem
"1-[2-(2,4-dichlorophenyl)-2-prop-2-enoxyethyl]imidazole",465.15,1,C=CCOC(CN1C=CN=C1)C2=C(C=C(C=C2)Cl)Cl,pubchem
"1,2,3-trichloro-4-(2,3,4-trichlorophenyl)benzene",414.15,1,C1=CC(=C(C(=C1C2=C(C(=C(C=C2)Cl)Cl)Cl)Cl)Cl)Cl,pubchem
"1,3-dichloro-5-(3-chlorophenyl)benzene",414.15,1,C1=CC(=CC(=C1)Cl)C2=CC(=CC(=C2)Cl)Cl,pubchem
"3,4-dimethyl-2,6-dinitro-N-pentan-3-ylaniline",306.15,1,CCC(CC)NC1=C(C=C(C(=C1[N+](=O)[O-])C)C)[N+](=O)[O-],pubchem
"1,2,3-triethylbenzene",356.15,1,CCC1=C(C(=CC=C1)CC)CC,pubchem
"1-(4-chlorophenoxy)-3,3-dimethyl-1-(1,2,4-triazol-1-yl)butan-2-one",345.15,1,CC(C)(C)C(=O)C(N1C=NC=N1)OC2=CC=C(C=C2)Cl,pubchem
N-[2-[ethoxy(methyl)phosphoryl]sulfanylethyl]-N-propan-2-ylpropan-2-amine,432.15,1,CCOP(=O)(C)SCCN(C(C)C)C(C)C,pubchem
"methyl 2-[4-(2,4-dichlorophenoxy)phenoxy]propanoate",311.15,1,CC(C(=O)OC)OC1=CC=C(C=C1)OC2=C(C=C(C=C2)Cl)Cl,pubchem
2-nitrooxyethyl nitrate,488.15,1,C(CO[N+](=O)[O-])O[N+](=O)[O-],pubchem
2-methoxypropyl acetate,298.15,1,CC(COC(=O)C)OC,pubchem
ethyl N-[2-(4-phenoxyphenoxy)ethyl]carbamate,497.15,1,CCOC(=O)NCCOC1=CC=C(C=C1)OC2=CC=CC=C2,pubchem
"2-[(2-chlorophenyl)methyl]-4,4-dimethyl-1,2-oxazolidin-3-one",257.15,1,CC1(CON(C1=O)CC2=CC=CC=C2Cl)C,pubchem
(3S)-N-methyl-3-naphthalen-1-yloxy-3-thiophen-2-ylpropan-1-amine,282.15,1,CNCCC(C1=CC=CS1)OC2=CC=CC3=CC=CC=C32,pubchem
"5-[2-[4-(1,2-benzothiazol-3-yl)piperazin-1-yl]ethyl]-6-chloro-1,3-dihydroindol-2-one",271.15,1,C1CN(CCN1CCC2=C(C=C3C(=C2)CC(=O)N3)Cl)C4=NSC5=CC=CC=C54,pubchem
"3,4-dihydro-2H-pyran-2-carbaldehyde",321.15,1,C1CC(OC=C1)C=O,pubchem
"N',N'-diethylpropane-1,3-diamine",332.15,1,CCN(CC)CCCN,pubchem
3-methylbut-2-enal,310.15,1,CC(=CC=O)C,pubchem
"2,4,6,8-tetramethyl-1,3,5,7-tetraoxocane",309.15,1,CC1OC(OC(OC(O1)C)C)C,pubchem
"butane-1,3-diamine",325.15,1,CC(CCN)N,pubchem
butyl carbonochloridate,298.15,1,CCCCOC(=O)Cl,pubchem
dichloro-ethyl-sulfanylidene-λ5-phosphane,368.15,1,CCP(=S)(Cl)Cl,pubchem
2-methoxy-2-methylbutane,266.15,1,CCC(C)(C)OC,pubchem
pentyl nitrate,322.15,1,CCCCCO[N+](=O)[O-],pubchem
"2-ethylhexyl 2-(2,4-dichlorophenoxy)acetate",444.15,1,CCCCC(CC)COC(=O)COC1=C(C=C(C=C1)Cl)Cl,pubchem
prop-2-enyl nonanoate,302.15,1,CCCCCCCCC(=O)OCC=C,pubchem
2-ethylbutyl acetate,327.15,1,CCC(CC)COC(=O)C,pubchem
nickel(2+);dihydroxide,673.15,1,[OH-].[OH-].[Ni+2],pubchem
3-propoxypropan-1-ol,326.15,1,CCCOCCCO,pubchem
"4,4-dimethyl-1,3-oxazolidine",322.15,1,CC1(COCN1)C,pubchem
2-methylpropyl carbonochloridate,300.15,1,CC(C)COC(=O)Cl,pubchem
propan-2-yl 2-phenylacetate,368.15,1,CC(C)OC(=O)CC1=CC=CC=C1,pubchem
undecane-1-thiol,382.15,1,CCCCCCCCCCCS,pubchem
ethyl 3-hydroxybutanoate,337.15,1,CCOC(=O)CC(C)O,pubchem
"2-methylpropanoic acid;2,2,4-trimethylpentane-1,3-diol",393.15,1,CC(C)C(C(C)(C)CO)O.CC(C)C(=O)O,pubchem
"7,7-dimethyloctanoic acid",367.15,1,CC(C)(C)CCCCCC(=O)O,pubchem
"1,2-dichloro-3-(2,4-dichlorophenyl)benzene",414.15,1,C1=CC(=C(C(=C1)Cl)Cl)C2=C(C=C(C=C2)Cl)Cl,pubchem
"[3-[3-(3,5-ditert-butyl-4-hydroxyphenyl)propanoyloxy]-2,2-bis[3-(3,5-ditert-butyl-4-hydroxyphenyl)propanoyloxymethyl]propyl] 3-(3,5-ditert-butyl-4-hydroxyphenyl)propanoate",570.15,1,CC(C)(C)C1=CC(=CC(=C1O)C(C)(C)C)CCC(=O)OCC(COC(=O)CCC2=CC(=C(C(=C2)C(C)(C)C)O)C(C)(C)C)(COC(=O)CCC3=CC(=C(C(=C3)C(C)(C)C)O)C(C)(C)C)COC(=O)CCC4=CC(=C(C(=C4)C(C)(C)C)O)C(C)(C)C,pubchem
"1,2-bis(ethenyl)benzene",335.15,1,C=CC1=CC=CC=C1C=C,pubchem
bis(6-methylheptyl) hexanedioate,483.15,1,CC(C)CCCCCOC(=O)CCCCC(=O)OCCCCCC(C)C,pubchem
"2-(3,4,5-trihydroxyphenyl)chromenylium-3,5,7-triol;chloride",466.15,1,C1=C(C=C(C(=C1O)O)O)C2=C(C=C3C(=CC(=CC3=[O+]2)O)O)O.[Cl-],pubchem
[4-(aminomethyl)phenyl]methanamine,300.15,1,C1=CC(=CC=C1CN)CN,pubchem
2-methylheptane-2-thiol,319.15,1,CCCCCC(C)(C)S,pubchem
2-chloroprop-2-enenitrile,280.15,1,C=C(C#N)Cl,pubchem
2-[2-[2-[2-[2-[2-[2-[2-[2-(4-nonylphenoxy)ethoxy]ethoxy]ethoxy]ethoxy]ethoxy]ethoxy]ethoxy]ethoxy]ethanol,470.15,1,CCCCCCCCCC1=CC=C(C=C1)OCCOCCOCCOCCOCCOCCOCCOCCOCCO,pubchem
2-[2-[2-(2-butoxyethoxy)ethoxy]ethoxy]ethanol,439.15,1,CCCCOCCOCCOCCOCCO,pubchem
ethyl dihydrogen phosphate,389.15,1,CCOP(=O)(O)O,pubchem
"1,1,2,2,3,3,4,4,5,5,6,6,7,7,8,8,8-heptadecafluorooctane-1-sulfonic acid",284.15,1,C(C(C(C(C(F)(F)S(=O)(=O)O)(F)F)(F)F)(F)F)(C(C(C(F)(F)F)(F)F)(F)F)(F)F,pubchem
"2-methylpropane-1,3-diol",400.15,1,CC(CO)CO,pubchem
octadecyl hexadecanoate,511.15,1,CCCCCCCCCCCCCCCCCCOC(=O)CCCCCCCCCCCCCCC,pubchem
dioctyl hydrogen phosphate,469.15,1,CCCCCCCCOP(=O)(O)OCCCCCCCC,pubchem
"N'-methylpropane-1,3-diamine",309.15,1,CNCCCN,pubchem
ethyl 2-cyanoprop-2-enoate,355.15,1,CCOC(=O)C(=C)C#N,pubchem
"(1Z,5Z)-cycloocta-1,5-diene",368.15,1,C1CC=CCCC=C1,pubchem
methanesulfonate,462.15,1,CS(=O)(=O)[O-],pubchem
tris(2-nonylphenyl) phosphite,480.15,1,CCCCCCCCCC1=CC=CC=C1OP(OC2=CC=CC=C2CCCCCCCCC)OC3=CC=CC=C3CCCCCCCCC,pubchem
"3a,4,5,6,7,7a-hexahydro-2-benzofuran-1,3-dione",422.15,1,C1CCC2C(C1)C(=O)OC2=O,pubchem
"5-methyl-3a,4,5,6,7,7a-hexahydro-2-benzofuran-1,3-dione",623.15,1,CC1CCC2C(C1)C(=O)OC2=O,pubchem
"3,3,4,4,5,5,6,6,6-nonafluorohex-1-ene",256.15,1,C=CC(C(C(C(F)(F)F)(F)F)(F)F)(F)F,pubchem
"2,6-dimethylaniline;hydrochloride",364.15,1,CC1=C(C(=CC=C1)C)N.Cl,pubchem
2-[2-[2-(2-methoxyethoxy)ethoxy]ethoxy]ethanol,434.15,1,COCCOCCOCCOCCO,pubchem
2-hydroxypropanoate,386.15,1,CC(C(=O)[O-])O,pubchem
ethyl 3-phenylprop-2-ynoate,386.15,1,CCOC(=O)C#CC1=CC=CC=C1,pubchem
"1-(4-methoxy-6-methyl-1,3,5-triazin-2-yl)-3-[2-(3,3,3-trifluoropropyl)phenyl]sulfonylurea",373.15,1,CC1=NC(=NC(=N1)OC)NC(=O)NS(=O)(=O)C2=CC=CC=C2CCC(F)(F)F,pubchem
2-[butan-2-ylsulfanyl(ethoxy)phosphoryl]sulfanylbutane,402.15,1,CCC(C)SP(=O)(OCC)SC(C)CC,pubchem
2-[1-(4-phenoxyphenoxy)propan-2-yloxy]pyridine,392.15,1,CC(COC1=CC=C(C=C1)OC2=CC=CC=C2)OC3=CC=CC=N3,pubchem
"N-(2,6-difluorophenyl)-5-methyl-[1,2,4]triazolo[1,5-a]pyrimidine-2-sulfonamide",366.15,1,CC1=NC2=NC(=NN2C=C1)S(=O)(=O)NC3=C(C=CC=C3F)F,pubchem
(2R)-2-[(2R)-oxiran-2-yl]oxirane,319.15,1,C1C(O1)C2CO2,pubchem
"ethyl 4-[cyclopropyl(hydroxy)methylidene]-3,5-dioxocyclohexane-1-carboxylate",406.15,1,CCOC(=O)C1CC(=O)C(=C(C2CC2)O)C(=O)C1,pubchem
1-[(2-methylpropan-2-yl)oxy]propan-2-ol,317.15,1,CC(COC(C)(C)C)O,pubchem
1-ethoxydodecane,516.15,1,CCCCCCCCCCCCOCC,pubchem
2-(3-methylbut-2-enyl)cyclopentan-1-one,296.15,1,CC(=CCC1CCCC1=O)C,pubchem
propanoate,325.15,1,CCC(=O)[O-],pubchem
butanoate,345.15,1,CCCC(=O)[O-],pubchem
prop-2-enyl 2-(3-methylbutoxy)acetate,341.15,1,CC(C)CCOCC(=O)OCC=C,pubchem
"2,6-dimethylmorpholine",317.15,1,CC1CNCC(O1)C,pubchem
(4-methylcyclohexyl)methanol,385.15,1,CC1CCC(CC1)CO,pubchem
3-[bis(2-carboxyethyl)phosphanyl]propanoic acid,475.15,1,C(CP(CCC(=O)O)CCC(=O)O)C(=O)O,pubchem
"3-acetyl-6-methylpyran-2,4-dione",342.15,1,CC1=CC(=O)C(C(=O)O1)C(=O)C,pubchem
"(2,5-dioxo-3-prop-2-ynylimidazolidin-1-yl)methyl 2,2-dimethyl-3-(2-methylprop-1-enyl)cyclopropane-1-carboxylate",383.15,1,CC(=CC1C(C1(C)C)C(=O)OCN2C(=O)CN(C2=O)CC#C)C,pubchem
(2-tert-butylphenyl) diphenyl phosphate,497.15,1,CC(C)(C)C1=CC=CC=C1OP(=O)(OC2=CC=CC=C2)OC3=CC=CC=C3,pubchem
6-methylheptyl prop-2-enoate,364.15,1,CC(C)CCCCCOC(=O)C=C,pubchem
"1,1,2-trimethylbenzo[e]indole",455.15,1,CC1=NC2=C(C1(C)C)C3=CC=CC=C3C=C2,pubchem
2-dodecylphenol,436.15,1,CCCCCCCCCCCCC1=CC=CC=C1O,pubchem
1-ethoxypropan-2-yl acetate,326.15,1,CCOCC(C)OC(=O)C,pubchem
butyl (2R)-2-[4-(4-cyano-2-fluorophenoxy)phenoxy]propanoate,395.15,1,CCCCOC(=O)C(C)OC1=CC=C(C=C1)OC2=C(C=C(C=C2)C#N)F,pubchem
"1,1-dichloro-2-propan-2-yloxypropane",358.15,1,CC(C)OC(C)C(Cl)Cl,pubchem
"7a-methyl-4,7-dihydro-3aH-2-benzofuran-1,3-dione",623.15,1,CC12CC=CCC1C(=O)OC2=O,pubchem
hexanedioate,658.15,1,C(CCC(=O)[O-])CC(=O)[O-],pubchem
"(1S,2R,6S,7R)-4-[[(1R,2R)-2-[[4-(1,2-benzothiazol-3-yl)piperazin-1-yl]methyl]cyclohexyl]methyl]-4-azatricyclo[5.2.1.02,6]decane-3,5-dione",282.15,1,C1CCC(C(C1)CN2CCN(CC2)C3=NSC4=CC=CC=C43)CN5C(=O)C6C7CCC(C7)C6C5=O,pubchem
"N-(2,4-dimethylphenyl)-3-oxobutanamide",444.15,1,CC1=CC(=C(C=C1)NC(=O)CC(=O)C)C,pubchem
1-methyl-4-(2-methyloxiran-2-yl)-7-oxabicyclo[4.1.0]heptane,391.15,1,CC12CCC(CC1O2)C3(CO3)C,pubchem
[(E)-prop-1-enyl]benzene,325.15,1,CC=CC1=CC=CC=C1,pubchem
N-chloroaniline,381.15,1,C1=CC=C(C=C1)NCl,pubchem
"(1Z,3Z)-cycloocta-1,3-diene",308.15,1,C1CCC=CC=CC1,pubchem
dichlorochromium;octadecanoic acid;hydrate,275.15,1,CCCCCCCCCCCCCCCCCC(=O)O.O.Cl[Cr]Cl.Cl[Cr]Cl,pubchem
(E)-but-2-enedioic acid,546.15,1,C(=CC(=O)O)C(=O)O,pubchem
(Z)-octadec-9-enoic acid,462.15,1,CCCCCCCCC=CCCCCCCCC(=O)O,pubchem
(E)-but-2-enal,286.15,1,CC=CC=O,pubchem
4-[(E)-4-(4-hydroxyphenyl)hex-3-en-3-yl]phenol,377.15,1,CCC(=C(CC)C1=CC=C(C=C1)O)C2=CC=C(C=C2)O,pubchem
ethoxyethane;trifluoroborane,337.15,1,B(F)(F)F.CCOCC,pubchem
"6-methylheptyl 2-(2,4,5-trichlorophenoxy)acetate",342.15,1,CC(C)CCCCCOC(=O)COC1=CC(=C(C=C1Cl)Cl)Cl,pubchem
(2-methylphenyl) diphenyl phosphate,505.15,1,CC1=CC=CC=C1OP(=O)(OC2=CC=CC=C2)OC3=CC=CC=C3,pubchem
"1,1-dichloropentane",314.15,1,CCCCC(Cl)Cl,pubchem
2-bromo-2-chloroacetic acid,383.15,1,C(C(=O)O)(Cl)Br,pubchem
"6-methylheptyl 2-(2,4,5-trichlorophenoxy)propanoate",480.15,1,CC(C)CCCCCOC(=O)C(C)OC1=CC(=C(C=C1Cl)Cl)Cl,pubchem
1-methoxy-4-[(E)-prop-1-enyl]benzene,364.15,1,CC=CC1=CC=C(C=C1)OC,pubchem
diethyl (E)-but-2-enedioate,377.15,1,CCOC(=O)C=CC(=O)OCC,pubchem
"3H-1,3-benzothiazole-2-thione",473.15,1,C1=CC=C2C(=C1)NC(=S)S2,pubchem
2-methoxy-4-[(E)-prop-1-enyl]phenol,386.15,1,CC=CC1=CC(=C(C=C1)O)OC,pubchem
(E)-N-[(4-hydroxy-3-methoxyphenyl)methyl]-8-methylnon-6-enamide,386.15,1,CC(C)C=CCCCCC(=O)NCC1=CC(=C(C=C1)O)OC,pubchem
"(2E,4E)-hexa-2,4-dienoate",400.15,1,CC=CC=CC(=O)[O-],pubchem
methyl (2S)-5-(diaminomethylideneamino)-2-[(4-methylphenyl)sulfonylamino]pentanoate,262.15,1,CC1=CC=C(C=C1)S(=O)(=O)NC(CCCN=C(N)N)C(=O)OC,pubchem
imidazolidine-2-thione,525.15,1,C1CNC(=S)N1,pubchem
3-[bis(2-carboxyethyl)phosphanyl]propanoic acid;hydrochloride,475.15,1,C(CP(CCC(=O)O)CCC(=O)O)C(=O)O.Cl,pubchem
"7a-methyl-4,5,6,7-tetrahydro-3aH-2-benzofuran-1,3-dione",623.15,1,CC12CCCCC1C(=O)OC2=O,pubchem
manganese(2+);N-[2-(sulfidocarbothioylamino)ethyl]carbamodithioate,411.15,1,C(CNC(=S)[S-])NC(=S)[S-].[Mn+2],pubchem
"1,2-diisocyanatonaphthalene",465.15,1,C1=CC=C2C(=C1)C=CC(=C2N=C=O)N=C=O,pubchem
chromium(3+);octadecanoate;tetrachloride;hydroxide,275.15,1,CCCCCCCCCCCCCCCCCC(=O)[O-].[OH-].[Cl-].[Cl-].[Cl-].[Cl-].[Cr+3].[Cr+3],pubchem
1-(3-methoxypropoxy)propyl acetate,359.15,1,CCC(OCCCOC)OC(=O)C,pubchem
sodium;chloro-(4-methylphenyl)sulfonylazanide,465.15,1,CC1=CC=C(C=C1)S(=O)(=O)[N-]Cl.[Na+],pubchem
2-hydroperoxy-2-(2-hydroperoxybutan-2-ylperoxy)butane,355.15,1,CCC(C)(OO)OOC(C)(CC)OO,pubchem
dichlorochromium;1-hydroxyoctadecylideneoxidanium;hydrate,275.15,1,CCCCCCCCCCCCCCCCCC(=[OH+])O.O.Cl[Cr]Cl.Cl[Cr]Cl,pubchem
methyl carbonate,291.15,1,COC(=O)[O-],pubchem
"2-amino-4,6-dinitrophenol",483.15,1,C1=C(C=C(C(=C1[N+](=O)[O-])O)N)[N+](=O)[O-],pubchem
2-sulfanylacetate,403.15,1,C(C(=O)[O-])S,pubchem
"(2R,3S,4S,5R,6R)-2-(hydroxymethyl)-6-[(E)-3-phenylprop-2-enoxy]oxane-3,4,5-triol",460.15,1,C1=CC=C(C=C1)C=CCOC2C(C(C(C(O2)CO)O)O)O,pubchem
"(4R,4aR,7S,7aR,12bS)-9-methoxy-3-methyl-2,4,4a,7,7a,13-hexahydro-1H-4,12-methanobenzofuro[3,2-e]isoquinolin-7-ol",348.15,1,CN1CCC23C4C1CC5=C2C(=C(C=C5)OC)OC3C(C=C4)O,pubchem
"1,4,5,6,7,7-hexachloro-2,2-bis(chloromethyl)-3-methylidenebicyclo[2.2.1]heptane",302.15,1,C=C1C(C2(C(C(C1(C2(Cl)Cl)Cl)Cl)Cl)Cl)(CCl)CCl,pubchem
zinc;N-[2-(sulfidocarbothioylamino)ethyl]carbamodithioate,363.15,1,C(CNC(=S)[S-])NC(=S)[S-].[Zn+2],pubchem
"(4R,4aR,7aR,12bS)-9-methoxy-3-methyl-1,2,4,4a,5,6,7a,13-octahydro-4,12-methanobenzofuro[3,2-e]isoquinolin-7-one",282.15,1,CN1CCC23C4C1CC5=C2C(=C(C=C5)OC)OC3C(=O)CC4,pubchem
[(E)-2-bromoethenyl]benzene,352.15,1,C1=CC=C(C=C1)C=CBr,pubchem
(E)-pent-3-enenitrile,311.15,1,CC=CCC#N,pubchem
"(3E)-3-(dimethylcarbamoylimino)-1,1-dimethylurea",313.15,1,CN(C)C(=O)N=NC(=O)N(C)C,pubchem
butyl (Z)-octadec-9-enoate,453.15,1,CCCCCCCCC=CCCCCCCCC(=O)OCCCC,pubchem
methyl (E)-3-dimethoxyphosphoryloxybut-2-enoate,352.15,1,CC(=CC(=O)OC)OP(=O)(OC)OC,pubchem
thallium,489.15,1,[Tl],pubchem
"3-[(E)-dodec-2-enyl]oxolane-2,5-dione",451.15,1,CCCCCCCCCC=CCC1CC(=O)OC1=O,pubchem
(E)-pent-2-enenitrile,296.15,1,CCC=CC#N,pubchem
bis(2-ethylhexyl) (Z)-but-2-enedioate,458.15,1,CCCCC(CC)COC(=O)C=CC(=O)OCC(CC)CCCC,pubchem
"(4E)-hexa-1,4-diene",252.15,1,CC=CCC=C,pubchem