compound,flashpoint,pure substance,smiles,source
"Benzene, 1,2-dimethyl-3-nitro-",380.95,1.0,Cc1cccc([N+](=O)[O-])c1C,le15
"Benzene, 1,4-dimethyl-2-nitro-",373.15,1.0,Cc1ccc(C)c([N+](=O)[O-])c1,le15
"m-Xylene, 4-nitro- (8CI)",394.15,1.0,Cc1ccc([N+](=O)[O-])c(C)c1,le15
"o-Xylene, 4-nitro- (8CI)",394.65,1.0,Cc1ccc([N+](=O)[O-])cc1C,le15
"Benzene, 1-ethyl-4-nitro-",380.85,1.0,CCc1ccc([N+](=O)[O-])cc1,le15
"Acetamide, N-(4-hydroxyphenyl)-",461.55,1.0,CC(=O)Nc1ccc(O)cc1,le15
"Acetamide, N-(3-hydroxyphenyl)-",458.35,1.0,CC(=O)Nc1cccc(O)c1,le15
"Acetamide, 2-phenoxy-",474.05,1.0,NC(=O)COc1ccccc1,le15
"Acetic acid, (p-aminophenyl)-",435.05,1.0,Nc1ccc(CC(=O)O)cc1,le15
ethyl pyridine-4-carboxylate,362.15,1.0,CCOC(=O)c1ccncc1,le15
"Acetamide, N-hydroxy-N-phenyl-",389.95,1.0,CC(=O)N(O)c1ccccc1,le15
"Benzamide, 2-methoxy- (9CI)",428.85,1.0,COc1ccccc1C(N)=O,le15
3-Amino-p-toluic acid,446.45,1.0,Cc1ccc(C(=O)O)c(N)c1,le15
ethyl pyridine-2-carboxylate,380.35,1.0,CCOC(=O)c1ccccn1,le15
4-methoxybenzamide,434.65,1.0,COc1ccc(C(N)=O)cc1,le15
2-nitroethylbenzene,391.95,1.0,O=[N+]([O-])CCc1ccccc1,le15
"m-Xylene, 5-nitro- (8CI)",384.55,1.0,Cc1cc(C)cc([N+](=O)[O-])c1,le15
"Benzoic acid, 2-amino-, methyl ester",386.05,1.0,COC(=O)c1ccccc1N,le15
ethyl pyridine-3-carboxylate,366.15,1.0,CCOC(=O)c1cccnc1,le15
"Benzene, 1-ethoxy-4-nitroso-",388.25,1.0,CCOc1ccc(N=O)cc1,le15
"1,2-Benzisothiazol-3(2H)-one",350.65,1.0,O=c1[nH]sc2ccccc12,le15
"3H-1,3-benzothiazol-2-one",444.65,1.0,O=c1[nH]c2ccccc2s1,le15
"Ethanol, 2-(methylphenylamino)-",399.85,1.0,CN(CCO)c1ccccc1,le15
"Phenol, 3-(ethylamino)-4-methyl-",412.85,1.0,CCNc1cc(O)ccc1C,le15
"2-methoxy-N,N-dimethylaniline",332.35,1.0,COc1ccccc1N(C)C,le15
"Pyridine, 5-ethyl-2-hydroxyethyl-",383.85,1.0,CCc1ccc(CCO)nc1,le15
"Tricyclo(3.3.1.1(sup 3,7))decan-1-amine",369.15,1.0,NC12CC3CC(CC(C3)C1)C2,le15
"1,1,1-trichloro-2-fluoroethane",279.35,1.0,FCC(Cl)(Cl)Cl,le15
"1,1,2-trichloro-2-fluoroethane",283.35,1.0,FC(Cl)C(Cl)Cl,le15
"Acetonitrile, (p-chlorophenyl)-",406.15,1.0,N#CCc1ccc(Cl)cc1,le15
2-(chloromethyl)benzonitrile,379.35,1.0,N#Cc1ccccc1CCl,le15
4-(Chloromethyl)benzonitrile,393.35,1.0,N#Cc1ccc(CCl)cc1,le15
2-(2-chlorophenyl)acetonitrile,380.85,1.0,N#CCc1ccccc1Cl,le15
"Benzonitrile, 2-chloro-6-methyl-",383.25,1.0,Cc1cccc(Cl)c1C#N,le15
"Propanamide, 2-bromo- (9CI)",377.15,1.0,CC(Br)C(N)=O,le15
"7H-1,2,3-Triazolo(4,5-d)pyrimidin-7-one, 5-amino-1,4-dihydro- (9CI)",402.25,1.0,Nc1nc(=O)c2[nH]nnc2[nH]1,le15
"Benzoxazole, 2-amino-5-fluoro-",398.05,1.0,Nc1nc2cc(F)ccc2o1,le15
1-[ethoxy(methyl)phosphoryl]oxyethane,348.75,1.0,CCOP(C)(=O)OCC,le15
"Phosphonic acid, ethyl-, ethyl methyl ester",353.15,1.0,CCOP(=O)(CC)OC,le15
"Benzoic acid, 2-hydroxy-3-methyl-",418.55,1.0,Cc1cccc(C(=O)O)c1O,le15
4-methoxybenzoic acid,388.61,1.0,COc1ccc(C(=O)O)cc1,le15
"Benzoic acid, 2-hydroxy-, methyl ester",359.95,1.0,COC(=O)c1ccccc1O,le15
"Benzaldehyde, 4-hydroxy-3-methoxy-",390.75,1.0,COc1cc(C=O)ccc1O,le15
"Acetic acid, phenoxy-",388.25,1.0,O=C(O)COc1ccccc1,le15
"m-Anisaldehyde, 2-hydroxy- (8CI)",367.15,1.0,COc1cccc(C=O)c1O,le15
2-(2-hydroxyphenyl)acetic acid,435.75,1.0,O=C(O)Cc1ccccc1O,le15
"p-Anisaldehyde, 3-hydroxy- (8CI)",393.05,1.0,COc1ccc(C=O)cc1O,le15
2-hydroxy-5-methoxybenzaldehyde,381.25,1.0,COc1ccc(O)c(C=O)c1,le15
methyl 3-hydroxybenzoate,399.85,1.0,COC(=O)c1cccc(O)c1,le15
"Ethanone, 1-(2,4-dihydroxyphenyl)-",434.25,1.0,CC(=O)c1ccc(O)cc1O,le15
Xylitol,535.05,1.0,OC[C@H](O)[C@@H](O)[C@H](O)CO,le15
"Benzenamine, 4-methyl-2-nitro-",410.15,1.0,Cc1ccc(N)c([N+](=O)[O-])c1,le15
"Benzenamine, 2-methyl-4-nitro-",430.35,1.0,Cc1cc([N+](=O)[O-])ccc1N,le15
"Benzenamine, 4-methyl-3-nitro-",412.05,1.0,Cc1ccc(N)cc1[N+](=O)[O-],le15
"Benzenamine, 2-methyl-6-nitro- (9CI)",409.25,1.0,Cc1cccc([N+](=O)[O-])c1N,le15
5-Methyl-o-nitroaniline,415.95,1.0,Cc1ccc([N+](=O)[O-])c(N)c1,le15
"Benzenamine, 2-methyl-3-nitro- (9CI)",411.25,1.0,Cc1c(N)cccc1[N+](=O)[O-],le15
"Benzoic acid, 4-hydrazinyl-",455.05,1.0,NNc1ccc(C(=O)O)cc1,le15
"Benzenamine, 2-methyl-5-nitro-",426.15,1.0,Cc1ccc([N+](=O)[O-])cc1N,le15
"Aniline, N-methyl-p-nitro- (8CI)",402.65,1.0,CNc1ccc([N+](=O)[O-])cc1,le15
"6H-Purine-6-thione, 1,7-dihydro- (9CI)",528.55,1.0,S=c1[nH]cnc2nc[nH]c12,le15
"Hydroperoxide, alpha,alpha-dimethylbenzyl-",329.25,1.0,CC(C)(OO)c1ccccc1,le15
"Ethanol, 2-(phenylmethoxy)-",383.15,1.0,OCCOCc1ccccc1,le15
"1,4-Benzenediol, 2,3,5-trimethyl-",464.15,1.0,Cc1cc(O)c(C)c(C)c1O,le15
4-ethyl-2-methoxyphenol,380.85,1.0,CCc1ccc(O)c(OC)c1,le15
"Indan, 1,2:5,6-diepoxyhexahydro-",391.45,1.0,C1C2CC3OC3C2CC2OC12,le15
"1,3-dimethoxy-5-methylbenzene",374.85,1.0,COc1cc(C)cc(OC)c1,le15
"1,2-dimethoxy-3-methylbenzene",340.75,1.0,COc1cccc(C)c1OC,le15
"2,6-Dimethoxytoluene",369.85,1.0,COc1cccc(OC)c1C,le15
1-(2-methoxyphenyl)ethanol,383.95,1.0,COc1ccccc1C(C)O,le15
"1,2-dimethoxy-4-methylbenzene",358.15,1.0,COc1ccc(C)cc1OC,le15
"4-propan-2-ylbenzene-1,2-diol",402.35,1.0,CC(C)c1ccc(O)c(O)c1,le15
"1-Propanol, 2-phenoxy-",377.55,1.0,CC(CO)Oc1ccccc1,le15
2-propoxyphenol,370.35,1.0,CCCOc1ccccc1O,le15
"4(1H)-Pyrimidinone, 6-methyl-2-(1-methylethyl)-",366.35,1.0,Cc1cc(=O)nc(C(C)C)[nH]1,le15
"Toluene-2,5-diamine, 4-methoxy-",433.45,1.0,COc1cc(N)c(C)cc1N,le15
"1,3-Benzenediamine, 4-ethoxy- (9CI)",439.55,1.0,CCOc1ccc(N)cc1N,le15
"4-ethoxybenzene-1,2-diamine",436.95,1.0,CCOc1ccc(N)c(N)c1,le15
"Urea, 1-phenyl-2-thio-",388.25,1.0,NC(=S)Nc1ccccc1,le15
"Methanesulfonic acid, butyl ester",375.15,1.0,CCCCOS(C)(=O)=O,le15
tetramethyl silicate,302.0499999999999,1.0,CO[Si](OC)(OC)OC,le15
"Bicyclo(2.2.1)heptan-2-one, 1,7,7-trimethyl-",337.5499999999999,1.0,CC12CCC(CC1=O)C2(C)C,le15
"2-Cyclohexen-1-one, 3-methyl-6-(1-methylethyl)-",364.05,1.0,CC1=CC(=O)C(C(C)C)CC1,le15
"2-Cyclohexen-1-ol, 2-methyl-5-(1-methylethenyl)-",364.35,1.0,C=C(C)C1CC=C(C)C(O)C1,le15
"Bicyclo(2.2.1)heptan-2-one, 1,7,7-trimethyl-, (1S,4S)-",337.5499999999999,1.0,CC1(C)[C@H]2CC[C@]1(C)C(=O)C2,le15
"(1S,3R,5S)-2-methylidene-5-propan-2-ylbicyclo[3.1.0]hexan-3-ol",356.85,1.0,C=C1[C@H]2C[C@@]2(C(C)C)C[C@H]1O,le15
"6,6-Dimethyl-2-(hydroxymethyl)bicyclo[3.1.1]hept-2-ene",362.55,1.0,CC1(C)C2CC=C(CO)C1C2,le15
"Bicyclo(3.1.0)hexan-3-one, 4-methyl-1-(1-methylethyl)-, (1S,4R,5R)-",337.5499999999999,1.0,CC(C)[C@]12CC(=O)[C@H](C)[C@H]1C2,le15
"Bicyclo(2.2.1)heptan-2-one, 1,3,3-trimethyl-",325.95,1.0,CC12CCC(C1)C(C)(C)C2=O,le15
"2H-Pyran, 3,6-dihydro-4-methyl-2-(2-methylpropenyl)- (7CI)",343.95,1.0,CC(C)=CC1CC(C)=CCO1,le15
"4,7,7-trimethyl-6-oxabicyclo[3.2.1]oct-3-ene",336.35,1.0,CC1=CCC2CC1OC2(C)C,le15
"Cyclopentanone, 2-(3-methyl-2-buten-1-yl)-",353.65,1.0,CC(C)=CCC1CCCC1=O,le15
"Bicyclo(2.2.1)heptan-2-one, 1,3,3-trimethyl-, (1S,4R)-",325.95,1.0,CC1(C)C(=O)[C@@]2(C)CC[C@@H]1C2,le15
2-cyclopentylcyclopentan-1-one,363.45,1.0,O=C1CCCC1C1CCCC1,le15
"Cyclohexanone, 2-methyl-5-(1-methylethenyl)-",354.25,1.0,C=C(C)C1CCC(C)C(=O)C1,le15
"4,7,7-trimethylbicyclo[2.2.1]heptan-2-one",342.45,1.0,CC12CCC(C(=O)C1)C2(C)C,le15
4-propan-2-ylcyclohexene-1-carbaldehyde,356.75,1.0,CC(C)C1CC=C(C=O)CC1,le15
"2,6-Octadienal, 3,7-dimethyl-, (2E)-",374.85,1.0,CC(C)=CCC/C(C)=C/C=O,le15
"1-Cyclohexene-1-methanol, 4-(1-methylethenyl)-",372.75,1.0,C=C(C)C1CC=C(CO)CC1,le15
"Spiro(bicyclo(3.1.1)heptane-2,2'-oxirane), 6,6-dimethyl-",339.15,1.0,CC1(C)C2CCC3(CO3)C1C2,le15
"(1R,4S,5S)-4,6,6-trimethylbicyclo[3.1.1]heptan-3-one",345.95,1.0,C[C@@H]1C(=O)C[C@H]2C[C@@H]1C2(C)C,le15
Camphor,339.0,1.0,CC12CCC(CC1=O)C2(C)C,le15
1-ethylsulfanyl-4-methylbenzene,359.15,1.0,CCSc1ccc(C)cc1,le15
propan-2-ylsulfanylbenzene,356.35,1.0,CC(C)Sc1ccccc1,le15
Spiro(5.5)undecane,344.95,1.0,C1CCC2(CC1)CCCCC2,le15
undec-5-yne,338.75,1.0,CCCCC#CCCCCC,le15
undec-4-yne,338.75,1.0,CCCC#CCCCCCC,le15
1undecyne,338.0,1.0,C#CCCCCCCCCC,le15
"Benzonitrile, 2-amino-5-chloro-",402.85,1.0,N#Cc1cc(Cl)ccc1N,le15
"Benzene, 1-chloro-4-(1-methylethenyl)-",347.039,1.0,C=C(C)c1ccc(Cl)cc1,le15
[(E)-3-chloroprop-2-enyl]benzene,562.05,1.0,Cl/C=C/Cc1ccccc1,le15
"2-chloro-1,1-diethoxyethane",302.5499999999999,1.0,CCOC(CCl)OCC,le15
"2-Butenedioyl dichloride, (2E)-",346.15,1.0,O=C(Cl)/C=C/C(=O)Cl,le15
methyl 2-bromoacetate,335.95,1.0,COC(=O)CBr,le15
"Propanoic acid, 3-bromo-",371.85,1.0,O=C(O)CCBr,le15
2-bromopropanoic acid,349.45,1.0,CC(Br)C(=O)O,le15
1-bromo-2-ethoxyethane,294.15,1.0,CCOCCBr,le15
"2,5-dichlorothiophene",332.5499999999999,1.0,Clc1ccc(Cl)s1,le15
"trans-1,2-Dichlorocyclohexane",339.25,1.0,Cl[C@@H]1CCCC[C@H]1Cl,le15
"1,1-dichlorocyclohexane",339.15,1.0,ClC1(Cl)CCCCC1,le15
"(1R,2S)-1,2-dichlorocyclohexane",339.25,1.0,Cl[C@H]1CCCC[C@H]1Cl,le15
"Benzoic acid, 5-amino-2-hydroxy-",471.25,1.0,Nc1ccc(O)c(C(=O)O)c1,le15
"Benzene, 1-methoxy-4-nitro-",407.75,1.0,COc1ccc([N+](=O)[O-])cc1,le15
"Phenol, 4-methyl-2-nitro-",381.15,1.0,Cc1ccc(O)c([N+](=O)[O-])c1,le15
"Anthranilic acid, 3-hydroxy- (8CI)",442.75,1.0,Nc1c(O)cccc1C(=O)O,le15
"Benzenemethanol, 2-nitro- (9CI)",404.25,1.0,O=[N+]([O-])c1ccccc1CO,le15
"Benzenemethanol, 3-nitro-",419.35,1.0,O=[N+]([O-])c1cccc(CO)c1,le15
"Benzenemethanol, 4-nitro-",421.25,1.0,O=[N+]([O-])c1ccc(CO)cc1,le15
"Phenol, 5-methyl-2-nitro-",382.15,1.0,Cc1ccc([N+](=O)[O-])c(O)c1,le15
3-Nitro-p-cresol,398.35,1.0,Cc1ccc(O)cc1[N+](=O)[O-],le15
"Phenol, 3-methyl-4-nitro-",383.15,1.0,Cc1cc(O)ccc1[N+](=O)[O-],le15
"Phenol, 3-methyl-2-nitro- (9CI)",380.15,1.0,Cc1cccc(O)c1[N+](=O)[O-],le15
"Phenol, 2-methyl-5-nitro-",407.35,1.0,Cc1ccc([N+](=O)[O-])cc1O,le15
3-Nitro-o-cresol,394.95,1.0,Cc1c(O)cccc1[N+](=O)[O-],le15
"Benzene, 1-methoxy-2-nitro-",415.15,1.0,COc1ccccc1[N+](=O)[O-],le15
"1,2-Benzenediamine, 4-nitro-",481.65,1.0,Nc1ccc([N+](=O)[O-])cc1N,le15
"Hydrazine, (4-nitrophenyl)-",434.95,1.0,NNc1ccc([N+](=O)[O-])cc1,le15
"1,4-Benzenediamine, 2-nitro-",460.05,1.0,Nc1ccc(N)c([N+](=O)[O-])c1,le15
"1,2-Benzenediamine, 3-nitro- (9CI)",450.55,1.0,Nc1cccc([N+](=O)[O-])c1N,le15
"1,3-Benzenediamine, 4-nitro-",487.15,1.0,Nc1ccc([N+](=O)[O-])c(N)c1,le15
"Acetamide, 2-fluoro-N-phenyl- (9CI)",418.25,1.0,O=C(CF)Nc1ccccc1,le15
naphthalene-1-carbonitrile,413.85,1.0,N#Cc1cccc2ccccc12,le15
1-fluoro-3-isothiocyanatobenzene,358.15,1.0,Fc1cccc(N=C=S)c1,le15
1-fluoro-4-isothiocyanatobenzene,362.55,1.0,Fc1ccc(N=C=S)cc1,le15
"2,5-dimethoxyaniline",403.252,1.0,COc1ccc(OC)c(N)c1,le15
"Benzyl alcohol, alpha-(aminomethyl)-m-hydroxy-",445.15,1.0,NCC(O)c1cccc(O)c1,le15
"2,4-Dimethoxyaniline hydrochloride",397.95,1.0,COc1ccc(N)c(OC)c1.Cl,le15
"Benzenemethanol, alpha-(aminomethyl)-4-hydroxy-",445.15,1.0,NCC(O)c1ccc(O)cc1,le15
9-methyl-9-azabicyclo[3.3.1]nonan-3-one,369.05,1.0,CN1C2CCCC1CC(=O)C2,le15
decanenitrile,365.15,1.0,CCCCCCCCCC#N,le15
"Isocyanic acid, m-chlorophenyl ester",355.15,1.0,O=C=Nc1cccc(Cl)c1,le15
1-chloro-2-isocyanatobenzene,361.15,1.0,O=C=Nc1ccccc1Cl,le15
"2-chloro-1,3-benzoxazole",358.15,1.0,Clc1nc2ccccc2o1,le15
iodoethene,279.35,1.0,C=CI,le15
"1,1,1-trifluoropentane-2,4-dione",299.25,1.0,CC(=O)CC(=O)C(F)(F)F,le15
"Benzoic acid, 2,4-dihydroxy-",491.95,1.0,O=C(O)c1ccc(O)cc1O,le15
"Benzoic acid, 3,4-dihydroxy- (9CI)",489.45,1.0,O=C(O)c1ccc(O)c(O)c1,le15
"4,6-Dihydro-4-hydroxy-2H-furo(3,2-c)pyran-2-one",499.95,1.0,O=C1C=C2C(=CCOC2O)O1,le15
"Benzoic acid, 2,5-dihydroxy-",487.15,1.0,O=C(O)c1cc(O)ccc1O,le15
"Benzaldehyde, 2,3,4-trihydroxy-",423.75,1.0,O=Cc1ccc(O)c(O)c1O,le15
"Benzaldehyde, 2,4,6-trihydroxy-",434.15,1.0,O=Cc1c(O)cc(O)cc1O,le15
"Phenol, 2-amino-4-nitro-",449.55,1.0,Nc1cc([N+](=O)[O-])ccc1O,le15
"Phenol, 4-amino-2-nitro-",429.25,1.0,Nc1ccc(O)c([N+](=O)[O-])c1,le15
2-Amino-3-nitrophenol,417.95,1.0,Nc1c(O)cccc1[N+](=O)[O-],le15
2-Nitro-6-aminophenol,396.45,1.0,Nc1cccc([N+](=O)[O-])c1O,le15
"Phosphorodiamidic fluoride, tetramethyl-",321.85,1.0,CN(C)P(=O)(F)N(C)C,le15
"Aniline, p-fluoro-N-methyl-N-nitroso-",391.25,1.0,CN(N=O)c1ccc(F)cc1,le15
"Phenol, 2,6-dimethoxy-",373.05,1.0,COc1cccc(OC)c1O,le15
"Benzenemethanol, 4-hydroxy-3-methoxy-",416.35,1.0,COc1cc(CO)ccc1O,le15
"Phenol, 3,5-dimethoxy- (8CI)(9CI)",351.15,1.0,COc1cc(O)cc(OC)c1,le15
furan-2-ylmethyl propanoate,354.85,1.0,CCC(=O)OCc1ccco1,le15
"2-Butenoic acid, anhydride",383.75,1.0,CC=CC(=O)OC(=O)C=CC,le15
"Propanedinitrile, (phenylmethylene)- (9CI)",411.15,1.0,N#CC(C#N)=Cc1ccccc1,le15
"Cinchoninonitrile(6CI,7CI,8CI)",368.35,1.0,N#Cc1ccnc2ccccc12,le15
"2-Propenamide, N,N'-methylenebis-",488.15,1.0,C=CC(=O)NCNC(=O)C=C,le15
"Phosphonothioic acid, ethyl-, O-ethyl ester",354.04999999999984,1.0,CCOP([O-])(=S)CC,le15
"1,3,5-Triazin-2-amine, 4-methoxy-N,6-dimethyl-",411.35,1.0,CNc1nc(C)nc(OC)n1,le15
DiethylSulfate,377.0,1.0,CCOS(=O)(=O)OCC,le15
"Acenaphthylene, 1,2-dihydro-",408.15,1.0,c1cc2c3c(cccc3c1)CC2,le15
Biphenyl,386.0,1.0,c1ccc(-c2ccccc2)cc1,le15
"2-Octynoic acid, methyl ester",362.05,1.0,CCCCCC#CC(=O)OC,le15
"2-Propenoic acid, cyclohexyl ester",344.45,1.0,C=CC(=O)OC1CCCCC1,le15
"2H-1-Benzopyran-2-one, octahydro-",382.15,1.0,O=C1CCC2CCCCC2O1,le15
"1,2,3,3a,4,5,6,6a-octahydropentalene-1-carboxylic acid",396.85,1.0,O=C(O)C1CCC2CCCC21,le15
2-(butoxymethyl)furan,347.75,1.0,CCCCOCc1ccco1,le15
2-Nonynoic acid,405.95,1.0,CCCCCCC#CC(=O)O,le15
Methyl2octynoate,361.0,1.0,CCCCCC#CC(=O)OC,le15
"Phenol, 3-methyl-4-(methylthio)-",401.85,1.0,CSc1ccc(O)cc1C,le15
"Cyclohexanone, 4-(1,1-dimethylethyl)-",369.25,1.0,CC(C)(C)C1CCC(=O)CC1,le15
"6-Octenal, 3,7-dimethyl-",348.75,1.0,CC(C)=CCCC(C)CC=O,le15
"2,6-Octadien-1-ol, 3,7-dimethyl-, (2Z)-",372.65,1.0,CC(C)=CCC/C(C)=C\CO,le15
"Bicyclo(2.2.1)heptan-2-ol, 1,7,7-trimethyl-, (1R,2R,4R)-rel-",347.15,1.0,CC1(C)[C@@H]2CC[C@@]1(C)[C@H](O)C2,le15
"Bicyclo(2.2.1)heptan-2-ol, 1,7,7-trimethyl-, (1S,2R,4S)-",338.15,1.0,CC1(C)[C@H]2CC[C@]1(C)[C@H](O)C2,le15
"Bicyclo(2.2.1)heptan-2-ol, 1,7,7-trimethyl-, (1R,2S,4R)-rel-",338.75,1.0,CC1(C)[C@@H]2CC[C@@]1(C)[C@@H](O)C2,le15
2-methyl-5-propan-2-ylbicyclo[3.1.0]hexan-3-ol,356.85,1.0,CC1C(O)CC2(C(C)C)CC12,le15
"3-Cyclohexen-1-ol, 4-methyl-1-(1-methylethyl)-",355.15,1.0,CC1=CCC(O)(C(C)C)CC1,le15
6-methyl-3-propan-2-ylcyclohex-2-en-1-ol,362.95,1.0,CC(C)C1=CC(O)C(C)CC1,le15
"Cyclohexanol, 2-methyl-5-(1-methylethenyl)-",364.85,1.0,C=C(C)C1CCC(C)C(O)C1,le15
"Cyclohexanecarboxaldehyde, 3,3,5-trimethyl-",336.95,1.0,CC1CC(C=O)CC(C)(C)C1,le15
"Ethanol, 2,2'-dithiobis-",422.45,1.0,OCCSSCCO,le15
2-Decyn-1-ol,331.5499999999999,1.0,CCCCCCCC#CCO,le15
2-cyclopentylcyclopentan-1-ol,375.05,1.0,OC1CCCC1C1CCCC1,le15
"(2S,5R)-5-methyl-2-propan-2-ylcyclohexan-1-one",345.95,1.0,CC(C)[C@@H]1CC[C@@H](C)CC1=O,le15
"Cyclohexanone, 5-methyl-2-(1-methylethyl)-, (2R,5S)-rel-",342.15,1.0,CC(C)[C@H]1CC[C@H](C)CC1=O,le15
"2,6-Octadien-1-ol, 3,7-dimethyl-, (2E)-",349.81699999999995,1.0,CC(C)=CCC/C(C)=C/CO,le15
p-Menth-8-en-1-ol(8CI),360.65,1.0,C=C(C)C1CCC(C)(O)CC1,le15
"7-Oxabicyclo(2.2.1)heptane, 1-methyl-4-(1-methylethyl)-",320.95,1.0,CC(C)C12CCC(C)(CC1)O2,le15
"2-Oxabicyclo(2.2.2)octane, 1,3,3-trimethyl-",322.15,1.0,CC12CCC(CC1)C(C)(C)O2,le15
"7-Octen-2-ol, 2-methyl-6-methylene-",357.95,1.0,C=CC(=C)CCCC(C)(C)O,le15
"(3R)-3,7-dimethyloct-6-enal",348.75,1.0,CC(C)=CCC[C@@H](C)CC=O,le15
"(2,6,6-trimethylcyclohex-2-en-1-yl)methanol",354.85,1.0,CC1=CCCC(C)(C)C1CO,le15
2-(4-methylcyclohex-3-en-1-yl)propan-2-ol,362.55,1.0,CC1=CCC(C(C)(C)O)CC1,le15
Citronellal,348.0,1.0,CC(C)=CCCC(C)CC=O,le15
(Z)-undec-2-ene,334.35,1.0,C/C=C\CCCCCCCC,le15
pentylcyclohexane,339.25,1.0,CCCCCC1CCCCC1,le15
"Ethane, 1-chloro-1,1,2,2,2-pentafluoro-",343.15,1.0,FC(F)(F)C(F)(F)Cl,le15
Benzeneacetyl chloride,363.15,1.0,O=C(Cl)Cc1ccccc1,le15
"Ethanone, 2-chloro-1-phenyl-",377.95,1.0,O=C(CCl)c1ccccc1,le15
"Benzoyl chloride, 4-methyl-",355.15,1.0,Cc1ccc(C(=O)Cl)cc1,le15
"Benzoyl chloride, 2-methyl-",349.15,1.0,Cc1ccccc1C(=O)Cl,le15
"Benzoyl chloride, 3-methyl-",349.15,1.0,Cc1cccc(C(=O)Cl)c1,le15
"Ethanone, 1-(2-chlorophenyl)-",361.15,1.0,CC(=O)c1ccccc1Cl,le15
3-chloropropylbenzene,360.35,1.0,ClCCCc1ccccc1,le15
"1-(chloromethyl)-2,4-dimethylbenzene",369.15,1.0,Cc1ccc(CCl)c(C)c1,le15
1-chloro-4-propan-2-ylbenzene,587.15,1.0,CC(C)c1ccc(Cl)cc1,le15
"2-chloro-1,3,5-trimethylbenzene",349.95,1.0,Cc1cc(C)c(Cl)c(C)c1,le15
1-chloro-2-propan-2-ylbenzene,344.15,1.0,CC(C)c1ccccc1Cl,le15
butanedioyl dichloride,349.85,1.0,O=C(Cl)CCC(=O)Cl,le15
1-bromo-4-fluorobutane,306.45,1.0,FCCCCBr,le15
"Oxetane, 3,3-bis(chloromethyl)-",388.95,1.0,ClCC1(CCl)COC1,le15
"1,2-dichlorohexane",329.75,1.0,CCCCC(Cl)CCl,le15
"1,6-dichlorohexane",347.04999999999984,1.0,ClCCCCCCCl,le15
"4-Pyridinecarboxylic acid, 1,2-dihydro-6-hydroxy-2-oxo-",454.05,1.0,O=C(O)c1cc(O)[nH]c(=O)c1,le15
"1,3-Benzenediol, 2-nitro-",384.55,1.0,O=[N+]([O-])c1c(O)cccc1O,le15
4-Nitropyrocatechol,441.95,1.0,O=[N+]([O-])c1ccc(O)c(O)c1,le15
4-fluoro-1-methyl-2-nitrobenzene,372.05,1.0,Cc1ccc(F)cc1[N+](=O)[O-],le15
L-Histidine,555.15,1.0,N[C@@H](Cc1c[nH]cn1)C(=O)O,le15
"Pyridine, 4-phenyl-",384.25,1.0,c1ccc(-c2ccncc2)cc1,le15
"Pyridine, 2-phenyl-",386.45,1.0,c1ccc(-c2ccccn2)cc1,le15
"Pyridine, 3-phenyl-",392.44699999999995,1.0,c1ccc(-c2cccnc2)cc1,le15
"3-Pyridinecarboxylic acid, 1,2,5,6-tetrahydro-1-methyl-, methyl ester",354.25,1.0,COC(=O)C1=CCCN(C)C1,le15
"1H-Pyrrolizine-7-methanol, 2,3,5,7a-tetrahydro-1-hydroxy-, (1R-trans)-",434.55,1.0,OCC1=CCN2CC[C@@H](O)[C@@H]12,le15
"4-Pentenamide, 2,2-diethyl-",389.35,1.0,C=CCC(CC)(CC)C(N)=O,le15
"4-Piperidinone, 2,2,6,6-tetramethyl-",346.35,1.0,CC1(C)CC(=O)CC(C)(C)N1,le15
"Cyclohexanamine, N-butyl-",345.25,1.0,CCCCNC1CCCCC1,le15
1-pentylpiperidine,351.45,1.0,CCCCCN1CCCCC1,le15
"1,2,2,6,6-pentamethylpiperidine",323.15,1.0,CN1C(C)(C)CCCC1(C)C,le15
"Benzamide, o-chloro- (8CI)",393.25,1.0,NC(=O)c1ccccc1Cl,le15
"Benzamide, p-chloro- (6CI,7CI,8CI)",402.45,1.0,NC(=O)c1ccc(Cl)cc1,le15
"Formamide, N-(4-chlorophenyl)- (9CI)",417.35,1.0,O=CNc1ccc(Cl)cc1,le15
4-Chlorobenzeneethanamine,379.15,1.0,NCCc1ccc(Cl)cc1,le15
"2-chloro-N,N-dimethylaniline",347.54999999999984,1.0,CN(C)c1ccccc1Cl,le15
"Ethanamine, 2-chloro-N-(2-chloroethyl)-N-methyl-",293.65,1.0,CN(CCCl)CCCl,le15
"S-TRIAZINE-2,4,6-TRICARBONITRILE",414.55,1.0,N#Cc1nc(C#N)nc(C#N)n1,le15
"Benzenamine, 4-fluoro-3-nitro-",364.15,1.0,Nc1ccc(F)c([N+](=O)[O-])c1,le15
"Phosphorothioic acid, O,O,O-trimethyl ester",306.35,1.0,COP(=S)(OC)OC,le15
"Phosphorothioic acid, O,O,S-trimethyl ester",329.15,1.0,COP(=O)(OC)SC,le15
ethyl 2-oxocyclopentane-1-carboxylate,350.15,1.0,CCOC(=O)C1CCCC1=O,le15
3-pyridin-3-ylpyridine,388.75,1.0,c1cncc(-c2cccnc2)c1,le15
"Benzene, (methylsulfonyl)- (9CI)",444.55,1.0,CS(=O)(=O)c1ccccc1,le15
ethyl thiophene-2-carboxylate,359.25,1.0,CCOC(=O)c1cccs1,le15
"1,8-dimethylnaphthalene",388.45,1.0,Cc1cccc2cccc(C)c12,le15
"1,4-dimethylnaphthalene",382.35,1.0,Cc1ccc(C)c2ccccc12,le15
"1,5-dimethylnaphthalene",384.55,1.0,Cc1cccc2c(C)cccc12,le15
"1,2-dimethylnaphthalene",387.15,1.0,Cc1ccc2ccccc2c1C,le15
"1,7-dimethylnaphthalene",381.85,1.0,Cc1ccc2cccc(C)c2c1,le15
"Naphthalene, 1,3-dimethyl-",382.55,1.0,Cc1cc(C)c2ccccc2c1,le15
"Naphthalene, 2,3-dimethyl- (8CI)(9CI)",387.15,1.0,Cc1cc2ccccc2cc1C,le15
"2,7-dimethylnaphthalene",383.65,1.0,Cc1ccc2ccc(C)cc2c1,le15
2-ethylnaphthalene,377.55,1.0,CCc1ccc2ccccc2c1,le15
1-ethylnaphthalene,384.85,1.0,CCc1cccc2ccccc12,le15
"Naphthalene, 1,6-dimethyl- (8CI)(9CI)",383.65,1.0,Cc1ccc2c(C)cccc2c1,le15
"2,6-dimethylnaphthalene",383.65,1.0,Cc1ccc2cc(C)ccc2c1,le15
"2(3H)-Furanone, dihydro-5-pentyl-",371.95,1.0,CCCCCC1CCC(=O)O1,le15
"Hexanoic acid, 2-propenyl ester",347.15,1.0,C=CCOC(=O)CCCCC,le15
3-cyclohexylpropanoic acid,404.65,1.0,O=C(O)CCC1CCCCC1,le15
"2-Propenoic acid, 2-methyl-, 2,2-dimethylpropyl ester",327.0499999999999,1.0,C=C(C)C(=O)OCC(C)(C)C,le15
"2-Propenoic acid, hexyl ester",331.45,1.0,C=CC(=O)OCCCCCC,le15
"Methacrylic acid, pentyl ester (8CI)",333.45,1.0,C=C(C)C(=O)OCCCCC,le15
"Cyclohexanecarboxylic acid, ethyl ester",341.65,1.0,CCOC(=O)C1CCCCC1,le15
2-Nonenoic acid,441.45,1.0,CCCCCCC=CC(=O)O,le15
"2-Propenoic acid, 2-ethylbutyl ester",328.85,1.0,C=CC(=O)OCC(CC)CC,le15
cyclohexyl propanoate,340.95,1.0,CCC(=O)OC1CCCCC1,le15
"Urea, (1-methylcyclohexyl)-",373.65,1.0,CC1(NC(N)=O)CCCCC1,le15
"Urea, (1-ethylcyclopentyl)-",372.35,1.0,CCC1(NC(N)=O)CCCC1,le15
"2-Propenamide, N-(3-(dimethylamino)propyl)-",400.95,1.0,C=CC(=O)NCCCN(C)C,le15
"Cyclohexanol, 4-(1,1-dimethylethyl)-",378.15,1.0,CC(C)(C)C1CCC(O)CC1,le15