compound,flashpoint,pure substance,smiles,source
"2,3butanedione",299.85,1.0,CC(=O)C(C)=O,le15
"2,3dichloro1propanol",366.45,1.0,OCC(Cl)CCl,le15
"2,3dihydro1Hindene",321.15,1.0,c1ccc2c(c1)CCC2,le15
"2,3dihydro5methylfuran",261.0,1.0,CC1=CCCO1,le15
"2,3dihydrofuran",249.0,1.0,C1=COCC1,le15
"2,3dimethyl1butene",255.0,1.0,C=C(C)C(C)C,le15
"2,3dimethyl2butene",257.0,1.0,CC(C)=C(C)C,le15
"2,3dimethylaniline",370.15,1.0,Cc1cccc(N)c1C,le15
"2,3dimethylbutane",244.15,1.0,CC(C)C(C)C,le15
"2,3dimethylheptane",363.0,1.0,CCCCC(C)C(C)C,le15
"2,3dimethylhexane",270.0,1.0,CCCC(C)C(C)C,le15
"2,3dimethyloxirane",258.15,1.0,CC1OC1C,le15
"2,3dimethylpentane",267.0,1.0,CCC(C)C(C)C,le15
"2,3dimethylphenol",368.0,1.0,Cc1cccc(O)c1C,le15
"2,3pentadiene-",236.15,1.0,CC=C=CC,le15
"2,4dichlorophenol",387.05,1.0,Oc1ccc(Cl)cc1Cl,le15
"2,4dimethyl3ethylpentane",288.15,1.0,CCC(C(C)C)C(C)C,le15
"2,4dimethyl3pentanone",288.15,1.0,CC(C)C(=O)C(C)C,le15
"2,4dimethylpentane",260.95,1.0,CC(C)CC(C)C,le15
"2,4dimethylphenol",367.0,1.0,Cc1ccc(O)c(C)c1,le15
"2,4dimethylpyridine",310.35,1.0,Cc1ccnc(C)c1,le15
"2,4hexadiene-",266.15,1.0,CC=CC=CC,le15
"2,4pentadienylTrimethylSilane",291.15,1.0,C=CC=CC[Si](C)(C)C,le15
"2,4pentanedione",307.15,1.0,CC(=O)CC(C)=O,le15
"2,5dihydrofuran-",257.15,1.0,C1=CCOC1,le15
"2,5dimethoxychlorobenzene",390.35,1.0,COc1ccc(OC)c(Cl)c1,le15
"2,5dimethylphenol",368.0,1.0,Cc1ccc(C)c(O)c1,le15
"2,5hexanediol",383.15,1.0,CC(O)CCC(C)O,le15
"2,5hexanedione",352.15,1.0,CC(=O)CCC(C)=O,le15
"2,5norbornadiene",262.0,1.0,C1=CC2C=CC1C2,le15
"2,6dimethyl4heptanol",339.15,1.0,CC(C)CC(O)CC(C)C,le15
"2,6dimethyl4heptanone",322.15,1.0,CC(C)CC(=O)CC(C)C,le15
"2,6dimethylphenol",346.0,1.0,Cc1cccc(C)c1O,le15
2amino2methyl1propanol,340.35,1.0,CC(C)(N)CO,le15
2bromoethyltrichlorosilane,313.15,1.0,Cl[Si](Cl)(Cl)CCBr,le15
2bromovinylTrimethylSilane,288.15,1.0,C[Si](C)(C)C=CBr,le15
2butanol,297.15,1.0,CCC(C)O,le15
2butanone,264.15,1.0,CCC(C)=O,le15
2butoxyethylacetate,344.15,1.0,CCCCOCCOC(C)=O,le15
2butyl1octanol,383.15,1.0,CCCCCCC(CO)CCCC,le15
2butyne-,224.15,1.0,CC#CC,le15
2chloro1propanol,324.85,1.0,CC(Cl)CO,le15
2chloro1propene-,239.15,1.0,C=C(C)Cl,le15
2chlorobenzenamine,364.15,1.0,Nc1ccccc1Cl,le15
2chlorobutane,258.15,1.0,CCC(C)Cl,le15
2chloroethanol,333.15,1.0,OCCCl,le15
2chloroethylacetate,339.25,1.0,CC(=O)OCCCl,le15
2chloroethyltrichlorosilane,301.15,1.0,ClCC[Si](Cl)(Cl)Cl,le15
2chloromethyl3trimethylsilyl1propene,316.15,1.0,C=C(CCl)C[Si](C)(C)C,le15
2chloropropionicAcid,380.35,1.0,CC(Cl)C(=O)O,le15
2chlorotoluene,316.0,1.0,Cc1ccccc1Cl,le15
2cyanoethylMethylDichloroSilane,333.15,1.0,C[Si](Cl)(Cl)CCC#N,le15
2cyanoethylTriethoxySilane,359.15,1.0,CCO[Si](CCC#N)(OCC)OCC,le15
2cyclohexen1one,307.15,1.0,O=C1C=CCCC1,le15
2decene,320.15,1.0,CC=CCCCCCCC,le15
2dodecene,351.15,1.0,CC=CCCCCCCCCC,le15
2ethoxyethanol,316.45,1.0,CCOCCO,le15
2ethoxyethylacetate,320.35,1.0,CCOCCOC(C)=O,le15
2ethyl1butanol,330.15,1.0,CCC(CC)CO,le15
2ethyl1hexanol,346.15,1.0,CCCCC(CC)CO,le15
2ethyl1pentene-,263.15,1.0,C=C(CC)CCC,le15
2ethyl2hexenal,341.15,1.0,CCCC=C(C=O)CC,le15
2ethylbenzenamine,364.15,1.0,CCc1ccccc1N,le15
2ethylhexanal,317.15,1.0,CCCCC(C=O)CC,le15
2ethylhexylacetate,344.15,1.0,CCCCC(CC)COC(C)=O,le15
2ethylhexylacrylate,359.0,1.0,C=CC(=O)OCC(CC)CCCC,le15
2fluoro2methylpropane,260.95,1.0,CC(C)(C)F,le15
2furancarboxaldehyde,333.15,1.0,O=Cc1ccco1,le15
2heptanone,320.15,1.0,CCCCCC(C)=O,le15
2hexanol,330.95,1.0,CCCCC(C)O,le15
2hexanone,308.15,1.0,CCCCC(C)=O,le15
2hydroxy3butenenitrile,366.15,1.0,C=CC(O)C#N,le15
2iodobutane,301.15,1.0,CCC(C)I,le15
2iodotoluene,363.15,1.0,Cc1ccccc1I,le15
2isopropylbiphenyl,413.75,1.0,CC(C)c1ccccc1-c1ccccc1,le15
2methoxy1propanol,309.15,1.0,COC(C)CO,le15
2methoxyethanol,312.15,1.0,COCCO,le15
2methoxyethylacetate,322.15,1.0,COCCOC(C)=O,le15
2methyl1butene3yne-,221.15,1.0,C#CC(=C)C,le15
2methyl1hexanol,333.15,1.0,CCCCC(C)CO,le15
2methyl1Hindene,344.15,1.0,CC1=Cc2ccccc2C1,le15
2methyl1propanethiol-,264.15,1.0,CC(C)CS,le15
2methyl2pentenal,304.15,1.0,CCC=C(C)C=O,le15
2methyl2propen1ol,306.45,1.0,C=C(C)CO,le15
2methyl2propenoicAcid,340.15,1.0,C=C(C)C(=O)O,le15
2methylallylchloride,261.15,1.0,C=C(C)CCl,le15
2methylaminoEthanol,347.04999999999984,1.0,CNCCO,le15
2methylaziridine-,263.15,1.0,CC1CN1,le15
2methylbenzaldehyde,340.15,1.0,Cc1ccccc1C=O,le15
2methylbenzenamine,358.15,1.0,Cc1ccccc1N,le15
2methylbenzofuran,340.15,1.0,Cc1cc2ccccc2o1,le15
2methylbutylAmine-,257.15,1.0,CCC(C)CN,le15
2methylpropylBenzene,325.15,1.0,CC(C)Cc1ccccc1,le15
2methylpyridine,299.15,1.0,Cc1ccccn1,le15
2methyltetrahydrofuran,262.04999999999995,1.0,CC1CCCO1,le15
2methylvalericacid,364.25,1.0,CCCC(C)C(=O)O,le15
2naphthol,426.15,1.0,Oc1ccc2ccccc2c1,le15
2nitrobiphenyl,452.15,1.0,O=[N+]([O-])c1ccccc1-c1ccccc1,le15
2nitropropane,297.15,1.0,CC(C)[N+](=O)[O-],le15
2nonanol,355.15,1.0,CCCCCCCC(C)O,le15
2nonanone,333.15,1.0,CCCCCCCC(C)=O,le15
2octanol,360.95,1.0,CCCCCCC(C)O,le15
2octanone,335.15,1.0,CCCCCCC(C)=O,le15
2oxolan2yloxolane,362.15,1.0,C1COC(C2CCCO2)C1,le15
2pentaneamine,266.45,1.0,CCCC(C)N,le15
2pentanone,280.35,1.0,CCCC(C)=O,le15
2pentene-,226.15,1.0,CC=CCC,le15
2phenoxyethanol,394.25,1.0,OCCOc1ccccc1,le15
2phenylethanol,375.15,1.0,OCCc1ccccc1,le15
2phenylphenol,397.05,1.0,Oc1ccccc1-c1ccccc1,le15
2propanol,285.15,1.0,CC(C)O,le15
2propenal,254.25,1.0,C=CC=O,le15
2propenenitrile,273.15,1.0,C=CC#N,le15
2propenylAcetate,295.15,1.0,CC=CCC(=O)[O-],le15
"3,3dimethyl1butene",245.0,1.0,C=CC(C)(C)C,le15
"3,3dimethyl2butanone",285.15,1.0,CC(=O)C(C)(C)C,le15
"3,3dimethylbutanoicacid",361.0,1.0,CC(C)(C)CC(=O)O,le15
"3,4dichloro1butene",301.15,1.0,C=CC(Cl)CCl,le15
"3,4dihydro2Hpyran",255.15,1.0,C1=COCCC1,le15
3amino1propanol,352.15,1.0,NCCCO,le15
3bromo1trimethylsilyl1propyne,335.15,1.0,C[Si](C)(C)C#CCBr,le15
3bromopropyltrichlorosilane,361.15,1.0,Cl[Si](Cl)(Cl)CCCBr,le15
3bromopropylTrimethoxySilane,355.15,1.0,CO[Si](CCCBr)(OC)OC,le15
3buten1ol,310.95,1.0,C=CCCO,le15
3butenenitrile,294.15,1.0,C=CCC#N,le15
3chloro1propene-,241.15,1.0,C=CCCl,le15
3chloro2methylpropylMethylDichloroSilane,363.15,1.0,CC(CCl)C[Si](C)(Cl)Cl,le15
3chloropropylDimethylChloroSilane,313.15,1.0,C[Si](C)(Cl)CCCCl,le15
3chloropropylMethylDichloroSilane,359.15,1.0,C[Si](Cl)(Cl)CCCCl,le15
3chloropropylMethylDimethoxySilane,318.15,1.0,CO[Si](C)(CCCCl)OC,le15
3chloropropylTriethoxySilane,335.15,1.0,CCO[Si](CCCCl)(OCC)OCC,le15
3chloropropylTrimethoxySilane,351.15,1.0,CO[Si](CCCCl)(OC)OC,le15
3ethoxypropionaldehyde,311.15,1.0,CCOCCC=O,le15
3ethoxypropionicacid,380.35,1.0,CCOCCC(=O)O,le15
3ethyl1heptanol,363.15,1.0,CCCCC(CC)CCO,le15
3ethyl1hexene,274.15,1.0,C=CC(CC)CCC,le15
3ethyl1pentene-,256.15,1.0,C=CC(CC)CC,le15
3ethyl4methylhexane,297.15,1.0,CCC(C)C(CC)CC,le15
3ethylheptanal,328.15,1.0,CCCCC(CC)CC=O,le15
3ethylheptane,295.15,1.0,CCCCC(CC)CC,le15
3heptanone,310.15,1.0,CCCCC(=O)CC,le15
3hexyne-,256.15,1.0,CCC#CCC,le15
3iodotoluene,355.35,1.0,Cc1cccc(I)c1,le15
3isopropoxypropionitrile,341.45,1.0,CC(C)OCCC#N,le15
3methacryloxyPropylTrimethoxySilane,365.15,1.0,C=C(C)C(=O)OCCC[Si](OC)(OC)OC,le15
3methoxypropylamine,305.35,1.0,COCCCN,le15
3methyl1butyne-,221.15,1.0,C#CC(C)C,le15
3methyl1hexene-,267.15,1.0,C=CC(C)CCC,le15
3methyl3buten2one,294.15,1.0,C=C(C)C(C)=O,le15
3methyl3pentanol,297.15,1.0,CCC(C)(O)CC,le15
3methylbenzaldehyde,351.15,1.0,Cc1cccc(C=O)c1,le15
3methylbenzenamine,359.15,1.0,Cc1cccc(N)c1,le15
3methylbutanal-,268.15,1.0,CC(C)CC=O,le15
3methylbutylAcetate,298.15,1.0,CC(=O)OCCC(C)C,le15
3methylthiophene,284.15,1.0,Cc1ccsc1,le15
3methylthioPropionaldehyde,334.25,1.0,CCCC=S,le15
3nonanone,339.15,1.0,CCCCCCC(=O)CC,le15
3pyridinecarbonitrile,357.15,1.0,N#Cc1cccnc1,le15
3trimethylsilylCyclopentene,299.15,1.0,C[Si](C)(C)C1C=CCC1,le15
4bromobiphenyl,417.05,1.0,Brc1ccc(-c2ccccc2)cc1,le15
4butylalcohol,284.15,1.0,CCCCO,le15
4chlorophenylisocyanate,383.15,1.0,O=C=Nc1ccc(Cl)cc1,le15
4ethylphenol,377.05,1.0,CCc1ccc(O)cc1,le15
4heptanone,322.15,1.0,CCCC(=O)CCC,le15
4hydroxy4methyl2pentanone,331.15,1.0,CC(=O)CC(C)(C)O,le15
4methyl1heptene,275.15,1.0,C=CCC(C)CCC,le15
4methyl1hexene-,258.15,1.0,C=CCC(C)CC,le15
4methyl1octanol,358.15,1.0,CCCCC(C)CCCO,le15
4methyl2pentanone,291.15,1.0,CC(=O)CC(C)C,le15
4methyl2pentene-,238.15,1.0,CC=CC(C)C,le15
4methyl3penten2one,304.15,1.0,CC(=O)C=C(C)C,le15
4methylbenzaldehyde,353.15,1.0,Cc1ccc(C=O)cc1,le15
4methylbenzenamine,360.15,1.0,Cc1ccc(N)cc1,le15
4methylcyclohexanol,343.15,1.0,CC1CCC(O)CC1,le15
4methylene2oxetanone,307.15,1.0,C=C1CC(=O)O1,le15
4methylmorpholine,297.0499999999999,1.0,CN1CCOCC1,le15
4nonanone,335.15,1.0,CCCCCC(=O)CCC,le15
4octanone,318.15,1.0,CCCCC(=O)CCC,le15
4tertButyl2methylphenol,390.95,1.0,Cc1cc(C(C)(C)C)ccc1O,le15
4vinyl1cyclohexene,289.25,1.0,C=CC1CC=CCC1,le15
5hexen2one,296.15,1.0,C=CCCC(C)=O,le15
5methyl2hexanone,309.15,1.0,CC(=O)CCC(C)C,le15
6methyl1octanol,360.15,1.0,CCC(C)CCCCCO,le15
6methyl3heptanone,318.15,1.0,CCC(=O)CCC(C)C,le15
7methyl1octene,291.15,1.0,C=CCCCCC(C)C,le15
8methyl1nonene,316.15,1.0,C=CCCCCCC(C)C,le15
Acetaldehyde,246.15,1.0,CC=O,le15
Acetanilide,446.15,1.0,CC(=O)Nc1ccccc1,le15
Aceticacid,312.15,1.0,CC(=O)O,le15
Acetone,253.15,1.0,CC(C)=O,le15
Acetophenone,350.15,1.0,CC(=O)c1ccccc1,le15
AcetoxymethylTrimethylSilane,293.15,1.0,CC(=O)OC[Si](C)(C)C,le15
AcetoxyTrimethylSilane,277.15,1.0,CC(=O)O[Si](C)(C)C,le15
Acetylchloride,277.15,1.0,CC(=O)Cl,le15
Acrylicacid,327.15,1.0,C=CC(=O)O,le15
AdipicAcid,469.15,1.0,O=C(O)CCCCC(=O)O,le15
Allylalcohol,294.15,1.0,C=CCO,le15
Allylamine,244.15,1.0,C=CCN,le15
Allylchloride,241.15,1.0,C=CCCl,le15
AllylChloromethylDimethylSilane,300.15,1.0,C=CC[Si](C)(C)CCl,le15
AllylDimethylChloroSilane,278.15,1.0,C=CC[Si](C)(C)Cl,le15
AllylDimethylSilane-,253.15,1.0,C=CC[SiH](C)C,le15
AllylIsothiocyanate,319.25,1.0,C=CCN=C=S,le15
AllylMethylDichloroSilane,300.15,1.0,C=CCC[SiH](Cl)Cl,le15
AllyloxytrimethylSilane,273.15,1.0,C=CCO[Si](C)(C)C,le15
AllylPhenylDichloroSilane,349.15,1.0,C=CC[Si](Cl)(Cl)c1ccccc1,le15
AllylTrichloroSilane,304.15,1.0,C=CC[Si](Cl)(Cl)Cl,le15
AllylTriethoxySilane,320.15,1.0,C=CC[Si](OCC)(OCC)OCC,le15
AllylTrimethoxySilane,319.15,1.0,C=CC[Si](OC)(OC)OC,le15
AllylTrimethylSilane,280.15,1.0,C=CC[Si](C)(C)C,le15
alphaMethylstyrene,327.0499999999999,1.0,C=C(C)c1ccccc1,le15
AminoethylAminopropylTrimethoxySilane,369.15,1.0,CO[Si](CCCNCCN)(OC)OC,le15
Aniline,343.15,1.0,Nc1ccccc1,le15
Anthracene,394.15,1.0,c1ccc2cc3ccccc3cc2c1,le15
Anthraquinone,458.15,1.0,O=C1c2ccccc2C(=O)c2ccccc21,le15
Aziridine,262.04999999999995,1.0,C1CN1,le15
Benzaldehyde,336.15,1.0,O=Cc1ccccc1,le15
Benzene,262.15,1.0,c1ccccc1,le15
BenzoicAcid,394.15,1.0,O=C(O)c1ccccc1,le15
Benzonitrile,344.85,1.0,N#Cc1ccccc1,le15
Benzoylchloride,345.15,1.0,O=C(Cl)c1ccccc1,le15
Benzylacetate,363.75,1.0,O=C([O-])CCc1ccccc1,le15
Benzylbenzoate,421.15,1.0,O=C(OCc1ccccc1)c1ccccc1,le15
Benzylchloride,340.15,1.0,ClCc1ccccc1,le15
BenzylDimethylChloroSilane,346.15,1.0,C[Si](C)(Cl)Cc1ccccc1,le15
BenzylDimethylSilane,338.15,1.0,C[SiH](C)Cc1ccccc1,le15
BenzylTrichloroSilane,360.15,1.0,Cl[Si](Cl)(Cl)Cc1ccccc1,le15
BenzylTrimethylSilane,335.15,1.0,C[Si](C)(C)Cc1ccccc1,le15
Bicyclohexyl,365.0,1.0,C1CCC(C2CCCCC2)CC1,le15
BischloromethylDimethylSilane,319.15,1.0,C[Si](C)(CCl)CCl,le15
bisChloromethylMethylChloroSilane,315.15,1.0,C[Si](Cl)(CCl)CCl,le15
BisDiethylaminoDimethylSilane,308.15,1.0,CCN(CC)[Si](C)(C)N(CC)CC,le15
BisDimethylaminoDimethylSilane-,266.15,1.0,CN(C)[Si](C)(C)N(C)C,le15
BisDimethylaminoMethylSilane-,270.15,1.0,CN(C)C([SiH3])N(C)C,le15
BistrimethylsilylCarbodiimide,315.15,1.0,C[Si](C)(C)N=C=N[Si](C)(C)C,le15
BisTrimethylsilylMethane,285.15,1.0,C[Si](C)(C)C[Si](C)(C)C,le15
Bromobenzene,324.15,1.0,Brc1ccccc1,le15
Bromomethyldimethylchlorosilane,314.15,1.0,C[Si](C)(Cl)CBr,le15
BromomethylTrimethylSilane,289.15,1.0,C[Si](C)(C)CBr,le15
Bromopentafluorobenzene,360.15,1.0,Fc1c(F)c(F)c(Br)c(F)c1F,le15
Butylacetate,297.15,1.0,CCCCOC(C)=O,le15
Butylacrylate,312.0,1.0,C=CC(=O)OCCCC,le15
Butylamine,272.15,1.0,CCCCN,le15
Butylchloride,263.75,1.0,CCCCCl,le15
ButylDimethylAmine-,270.15,1.0,CCCCN(C)C,le15
Butylethylether,277.54999999999995,1.0,CCCCOCC,le15
Butylformate,291.15,1.0,CCCCOC=O,le15
ButylIsocyanate,299.85,1.0,CCCCN=C=O,le15
ButylIsothiocyanate,338.75,1.0,CCCCN=C=S,le15
ButylIsovalerate,326.15,1.0,CCCCOC(=O)CC(C)C,le15
butylnitrate,309.25,1.0,CCCCO[N+](=O)[O-],le15
Butylpropionate,305.15,1.0,CCCCOC(=O)CC,le15
Butyraldehyde,266.45,1.0,CCCC=O,le15
Butyricacid,350.15,1.0,CCCC(=O)O,le15
Butyronitrile,289.85,1.0,CCCC#N,le15
Chlorobenzene,302.15,1.0,Clc1ccccc1,le15
Chlorocyclohexane,305.15,1.0,ClC1CCCCC1,le15
ChloromethylBenzene,333.15,1.0,ClCc1ccccc1,le15
ChloromethylDimethylchlorosilane,294.15,1.0,C[Si](C)(Cl)CCl,le15
ChloromethylDimethylEthoxySilane,299.15,1.0,CCO[Si](C)(C)CCl,le15
ChloromethylDimethylPhenylSilane,326.15,1.0,C[Si](C)(CCl)c1ccccc1,le15
Chloromethylmethyldichlorosilane,293.15,1.0,C[Si](Cl)(Cl)CCl,le15
ChloromethylMethylDiethoxySilane,311.15,1.0,CCO[Si](C)(CCl)OCC,le15
ChloromethylTriethoxySilane,320.15,1.0,CCO[Si](CCl)(OCC)OCC,le15
ChloromethylTrimethoxySilane,299.15,1.0,CO[Si](CCl)(OC)OC,le15
ChloromethylTrimethylSilane-,271.15,1.0,C[Si](C)(C)CCl,le15
cisDecalin,331.15,1.0,C1CC[C@H]2CCCC[C@H]2C1,le15
Crotonaldehyde,286.15,1.0,C/C=C/C=O,le15
Cumene,309.15,1.0,CC(C)c1ccccc1,le15
Cyclohexane,253.15,1.0,C1CCCCC1,le15
Cyclohexanol,341.15,1.0,OC1CCCCC1,le15
Cyclohexyl ,488.05,1.0,[CH]1CCCCC1,le15
CyclohexylAcetate,331.15,1.0,O=C([O-])CC1CCCCC1,le15
CyclohexylBenzene,372.15,1.0,c1ccc(C2CCCCC2)cc1,le15
CyclohexylDimethylSilane,336.15,1.0,C[SiH](C)C1CCCCC1,le15
CyclohexylIsocyanate,322.0499999999999,1.0,O=C=NC1CCCCC1,le15
CyclohexylMethylDichloroSilane,339.15,1.0,Cl[SiH](Cl)CC1CCCCC1,le15
CyclohexylMethylDimethoxySilane,339.15,1.0,CO[SiH](CC1CCCCC1)OC,le15
CyclohexylTrichloroSilane,364.15,1.0,Cl[Si](Cl)(Cl)C1CCCCC1,le15
CyclopentadienylTrimethylSilane,302.15,1.0,C[Si](C)(C)C1C=CC=C1,le15
Cyclopentane,236.15,1.0,C1CCCC1,le15
Cyclopentanol,324.15,1.0,OC1CCCC1,le15
Cyclopentanone,299.15,1.0,O=C1CCCC1,le15
CyclopentenyloxyTrimethylSilane,311.15,1.0,C[Si](C)(C)OC1=CCCC1,le15
CyclopentylDichloroSilane,316.15,1.0,Cl[SiH](Cl)C1CCCC1,le15
CyclopentylTrichloroSilane,350.15,1.0,Cl[Si](Cl)(Cl)C1CCCC1,le15
Cyclopropanecarbonitrile,305.95,1.0,N#CC1CC1,le15
DecamethylCyclopentasiloxane,350.15,1.0,C[Si]1(C)O[Si](C)(C)O[Si](C)(C)O[Si](C)(C)O[Si](C)(C)O1,le15
DecamethylTetraSiloxane,335.15,1.0,C[Si](C)(C)O[Si](C)(C)O[Si](C)(C)O[Si](C)(C)C,le15
Decane,321.15,1.0,CCCCCCCCCC,le15
Decylamine,372.15,1.0,CCCCCCCCCCN,le15
Diallylphthalate,438.75,1.0,C=CCOC(=O)c1ccccc1C(=O)OCC=C,le15
DiallylSulfide,319.25,1.0,C=CCSCC=C,le15
Dibenzylether,408.15,1.0,c1ccc(COCc2ccccc2)cc1,le15
Dibutoxymethane,333.15,1.0,CCCCOCOCCCC,le15
Dibutylamine,313.15,1.0,CCCCNCCCC,le15
Dibutyldisulfide,366.45,1.0,CCCCSSCCCC,le15
Dibutylether,298.15,1.0,CCCCOCCCC,le15
Dibutylsebacate,440.0,1.0,CCCCOC(=O)CCCCCCCCC(=O)OCCCC,le15
Dibutylsulfide,349.85,1.0,CCCCSCCCC,le15
Dibutylsulfone,416.15,1.0,CCCCS(=O)(=O)CCCC,le15
DichloroAcetaldehyde,333.15,1.0,O=CC(Cl)Cl,le15
Dichloroacetylchloride,339.25,1.0,O=C(Cl)C(Cl)Cl,le15
DichloromethylBenzene,353.15,1.0,ClC(Cl)c1ccccc1,le15
DichloromethylMethylDichloroSilane,301.15,1.0,C[Si](Cl)(Cl)C(Cl)Cl,le15
DichloroSilane-,236.15,1.0,Cl[SiH2]Cl,le15
Diethylamine,250.15,1.0,CCNCC,le15
DiethylaminoTrimethylSilane,283.15,1.0,CCN(CC)[Si](C)(C)C,le15
DiethylDichloroSilane,300.15,1.0,CC[Si](Cl)(Cl)CC,le15
DiethylDiethoxySilane,316.15,1.0,CCO[Si](CC)(CC)OCC,le15
DiethyleneGlycol,397.15,1.0,OCCOCCO,le15
Diethylenetriamine,371.15,1.0,NCCNCCN,le15
Diethylether,228.15,1.0,CCOCC,le15
DiethylMethylChloroSilane,288.15,1.0,CC[Si](C)(Cl)CC,le15
DiethylPhosphate,364.15,1.0,CCOP(=O)([O-])OCC,le15
DiethylSilane-,253.15,1.0,CC[SiH2]CC,le15
Diethylsulfide,263.75,1.0,CCSCC,le15
Dihexylether,350.15,1.0,CCCCCCOCCCCCC,le15
Diisobutylamine,302.15,1.0,CC(C)CNCC(C)C,le15
Diisopropylamine,272.15,1.0,CC(C)NC(C)C,le15
DiisopropylaminoTrimethylSilane,301.15,1.0,CC(C)N(C(C)C)[Si](C)(C)C,le15
Dimethoxymethane,255.0,1.0,COCOC,le15
DimethylChloroSilane-,248.15,1.0,C[SiH](C)Cl,le15
DimethylDiacetoxySilane,310.15,1.0,CC(=O)O[Si](C)(C)OC(C)=O,le15
Dimethyldichlorosilane-,263.15,1.0,C[Si](C)(Cl)Cl,le15
DimethylDiethoxySilane,284.15,1.0,CCO[Si](C)(C)OCC,le15
DimethylDimethoxySilane-,265.15,1.0,CO[Si](C)(C)OC,le15
Dimethylether,232.15,1.0,COC,le15
DimethylolUrea,505.15,1.0,O=C(NCO)NCO,le15
Dimethylsulfide,237.15,1.0,CSC,le15
DimethylVinylChloroSilane-,268.15,1.0,CC(C)=C[SiH2]Cl,le15
Dipentylamine,324.15,1.0,CCCCCNCCCCC,le15
Diphenylamine,425.95,1.0,c1ccc(Nc2ccccc2)cc1,le15
Diphenylether,388.15,1.0,c1ccc(Oc2ccccc2)cc1,le15
DiphenylSilane,371.15,1.0,c1ccc([SiH2]c2ccccc2)cc1,le15
Dipropylamine,290.15,1.0,CCCNCCC,le15
Dipropylether,294.25,1.0,CCCOCCC,le15
DipropylSulfone,399.15,1.0,CCCS(=O)(=O)CCC,le15
Ditertbutylsulfide,321.15,1.0,CC(C)(C)SC(C)(C)C,le15
DivinylDimethylSilane,281.15,1.0,C=C[Si](C)(C)C=C,le15
DodecamethylCyclohexasiloxane,366.15,1.0,C[Si]1(C)O[Si](C)(C)O[Si](C)(C)O[Si](C)(C)O[Si](C)(C)O[Si](C)(C)O1,le15
DodecamethylPentasiloxane,352.15,1.0,C[Si](C)(C)O[Si](C)(C)O[Si](C)(C)O[Si](C)(C)O[Si](C)(C)C,le15
Dodecane,344.15,1.0,CCCCCCCCCCCC,le15
Ethanethiol,256.15,1.0,CCS,le15
ethanol,286.15,1.0,CCO,le15
EthenylBenzene,305.15,1.0,C=Cc1ccccc1,le15
EthoxyBenzene,325.15,1.0,CCOc1ccccc1,le15
EthoxymethylBenzene,332.15,1.0,CCOCc1ccccc1,le15
EthoxyTrimethylSilane-,246.15,1.0,CCO[Si](C)(C)C,le15
Ethyl2trimethylsilylAcetate,308.15,1.0,CCOC(=O)C[Si](C)(C)C,le15
Ethylacetate,270.15,1.0,CCOC(C)=O,le15
Ethylacetoacetate,330.35,1.0,CCOC(=O)CC(C)=O,le15
Ethylacetylglycolate,355.15,1.0,CCCC(=O)C(O)C(=O)[O-],le15
Ethylacrylate,288.75,1.0,C=CC(=O)OCC,le15
Ethylbenzene,288.15,1.0,CCc1ccccc1,le15
Ethylbenzoate,361.15,1.0,CCOC(=O)c1ccccc1,le15
Ethylbromoacetate,320.95,1.0,CCOC(=O)CBr,le15
Ethylbutyrate,297.15,1.0,CCCC(=O)OCC,le15
Ethylchloride,230.15,1.0,CCCl,le15
EthylChloroformate,289.15,1.0,CCOC(=O)Cl,le15
ethylcrotonate,275.35,1.0,C/C=C/C(=O)OCC,le15
Ethylcyanoacetate,383.15,1.0,CCOC(=O)CC#N,le15
ethylcyclohexane,308.15,1.0,CCC1CCCCC1,le15
Ethyldichlorosilane-,264.15,1.0,CC[SiH](Cl)Cl,le15
EthylDimethylChloroSilane-,269.15,1.0,CC[Si](C)(C)Cl,le15
EthylDimethylSilane-,248.15,1.0,CC[SiH](C)C,le15
Ethylformate,253.15,1.0,CCOC=O,le15
EthylIsobutyrate,286.0,1.0,CCOC(=O)C(C)C,le15
Ethyllactate,319.15,1.0,CCOC(=O)C(C)O,le15
Ethylmethyldichlorosilane,275.15,1.0,CC[Si](C)(Cl)Cl,le15
Ethylmethylether,235.95,1.0,CCOC,le15
Ethylnitrate,283.15,1.0,CCO[N+](=O)[O-],le15
Ethylpropionate,285.15,1.0,CCOC(=O)CC,le15
EthylSilane-,213.15,1.0,CC[SiH3],le15
Ethyltrichlorosilane,300.15,1.0,CC[Si](Cl)(Cl)Cl,le15
EthylTriethoxySilane,313.15,1.0,CCO[Si](CC)(OCC)OCC,le15
EthylTrimethoxySilane,300.15,1.0,CC[Si](OC)(OC)OC,le15
EthylTrimethylSilane,300.15,1.0,CC[Si](C)(C)C,le15
Ethylvinylether,255.15,1.0,C=COCC,le15
Ethynylbenzene,304.15,1.0,C#Cc1ccccc1,le15
Fluorobenzene,258.15,1.0,Fc1ccccc1,le15
Furfurylacetate,358.15,1.0,O=C([O-])CCc1ccco1,le15
Heptadecane,421.15,1.0,CCCCCCCCCCCCCCCCC,le15
HeptamethylDisilazane,300.15,1.0,CN([Si](C)(C)C)[Si](C)(C)C,le15
HeptamethylTrisiloxane,296.15,1.0,C[SiH](C)O[Si](C)(C)O[Si](C)(C)C,le15
Heptane,272.15,1.0,CCCCCCC,le15
Heptanoicacid,385.15,1.0,CCCCCCC(=O)O,le15
HeptylAcetate,340.15,1.0,CCCCCCCOC(C)=O,le15
Hexadecane,408.15,1.0,CCCCCCCCCCCCCCCC,le15
HexaethylDisiloxane,349.15,1.0,CC[Si](CC)(CC)O[Si](CC)(CC)CC,le15
HexafluoroBenzene,283.15,1.0,Fc1c(F)c(F)c(F)c(F)c1F,le15
HexamethylCycloTrisiloxane,305.15,1.0,C[Si]1(C)O[Si](C)(C)O[Si](C)(C)O1,le15
HexamethylDisilane-,272.15,1.0,C[Si](C)(C)[Si](C)(C)C,le15
HexamethylDisilaThiane,299.15,1.0,C[Si](C)(C)S[Si](C)(C)C,le15
HexamethylDisilazane,281.15,1.0,C[Si](C)(C)N[Si](C)(C)C,le15
Hexamethyleneimine,291.0,1.0,C1CCCNCC1,le15
HexamethylTrisiloxane,293.15,1.0,C[Si](C)(C)O[SiH2]O[Si](C)(C)C,le15
hexane,250.15,1.0,CCCCCC,le15
Hexanenitrile,316.15,1.0,CCCCCC#N,le15
Hexanoicacid,377.15,1.0,CCCCCC(=O)O,le15
Hexylacetate,318.15,1.0,CCCCCCOC(C)=O,le15
Hexylamine,282.0499999999999,1.0,CCCCCCN,le15
Hexylbenzene,353.15,1.0,CCCCCCc1ccccc1,le15