smiles,compound,flashpoint,source,pure substance
C(=C)[Si]1(O[Si](O[Si](O[Si](O1)(C)C=C)(C)C=C)(C)C=C)C,"2,4,6,8-Tetravinyl-2,4,6,8-tetramethylcyclotetrasiloxane",385.15,chen14,1
C(CCCCCCCCCCC)[Si](Cl)(Cl)Cl,n-Dodecyltrichlorosilane,435.15,chen14,1
C(CC)O[Si](OCCC)(OCCC)OCCC,Tetra-n-propoxysilane,368.15,chen14,1
C(C)[Si](O[Si](CC)(CC)CC)(CC)CC,Hexaethyldisiloxane,349.15,chen14,1
C[Si](O[Si](O[Si](O[Si](O[Si](C)(C)C)(C)C)(C)C)(C)C)(C)C,Dodecamethylpentasiloxane,352.15,chen14,1
C[Si]1(O[Si](O[Si](O[Si](O[Si](O[Si](O1)(C)C)(C)C)(C)C)(C)C)(C)C)C,Dodecamethylcyclohexasiloxane,366.15,chen14,1
C[Si](Cl)(C1=CC=CC=C1)C1=CC=CC=C1,Methyldiphenylchlorosilane,411.15,chen14,1
C(CCCCCCCCCCC)[Si](Cl)(Cl)C,n-Dodecylmethyldichlorosilane,416.15,chen14,1
C1(=CC=CC=C1)[Si](OC)(OC)C1=CC=CC=C1,Diphenyldimethoxysilane,394.15,chen14,1
C(CCCCCCC)[Si](OCC)(OCC)OCC,Octyltriethoxysilane,373.15,chen14,1
C[Si](O[Si](O[Si](O[Si](O[Si](O[Si](C)(C)C)(C)C)(C)C)(C)C)(C)C)(C)C,Tetradecamethylhexasiloxane,375.15,chen14,1
C[Si](O[Si](O[Si](O[Si](O[Si](O[Si](O[Si](C)(C)C)(C)C)(C)C)(C)C)(C)C)(C)C)(C)C,Hexadecamethylheptasiloxane,406.15,chen14,1
C(CCCCCCCCCCCCCCCCC)[Si](Cl)(Cl)Cl,n-Octadecyltrichlorosilane,466.15,chen14,1
C[Si](O[Si](O[Si](O[Si](O[Si](O[Si](O[Si](O[Si](C)(C)C)(C)C)(C)C)(C)C)(C)C)(C)C)(C)C)(C)C,Octadecamethyloctasiloxane,417.15,chen14,1
C(=C)[Si](OCCOC)(OCCOC)OCCOC,Vinyltris(methoxyethoxy)silane,353.15,chen14,1
C[Si](OC=C)(C)C,Trimethyl(vinyloxy)silane,263.15,chen14,1
Cl[Si](CCCC#N)(Cl)Cl,Trichloro(3-cyanopropyl) Silane,365.15,chen14,1
Cl[Si](CCC1=CC=CC=C1)(Cl)Cl,Trichloro(2-phenylethyl)silane,364.15,chen14,1
Cl[Si](CCC(F)(F)F)(C)C,"Chlorodimethyl(3,3,3-trifluoropropyl) silane",293.15,chen14,1
C(=C)C[SiH](O[Si](C)(C)C)O[Si](C)(C)C,Vinylmethylbis (trimethylsiloxy) silane,324.15,chen14,1
Cl[Si](CCl)(Cl)Cl,Trichloro(Chloromethyl) silane,342.15,chen14,1
C[SiH](C1=C(C(=C(C(=C1F)F)F)F)F)C,Dimethyl(pentafluorophenyl) silane,313.15,chen14,1
Cl[Si](C1=CC=C(C=C1)Cl)(Cl)Cl,Trichloro(p-chlorophenyl)silane,397.05,chen14,1
[SiH3][SiH2][SiH3],Trisilane,273.15,chen14,1
ClC(CCCCCCCC[SiH3])(Cl)Cl,Trichlorononylsilane,387.15,chen14,1
ClC(C[SiH3])Cl,Dichloroethylsilane,263.75,chen14,1
Cl[Si](C1=C(C(=CC=C1)Cl)Cl)(Cl)Cl,Trichloro(dichlorophenyl)silane,419.15,chen14,1
C[Si](C)(C)[SiH]([Si](C)(C)C)[Si](C)(C)C,Tris(trimethylsilyl)silane,328.15,chen14,1
C[Si](O[SiH](O[Si](C)(C)C)O[Si](C)(C)C)(C)C,Tris(trimethylsiloxy)silane,323.15,chen14,1
C(CCCCCCCCCCCCCCC)[Si](Cl)(Cl)Cl,Hexadecyltrichlorosilane,427.15,chen14,1
Cl[SiH2]Cl,Dichlorosilane,236.15,chen14,1
C[Si](Cl)(Cl)C,Dimethyldichlorosilane,257.15,chen14,1
BrC[Si](Cl)(C)C,Bromomethyldimethylchlorosilane,314.15,chen14,1
C[SiH](C)C,Trimethylsilane,204.15,chen14,1
CC(=C[SiH2]Cl)C,Dimethylvinylchlorosilane,268.15,chen14,1
Cl[Si](O[Si](Cl)(C)C)(C)C,"1,3-Dichlorotetramethyldisiloxane",288.15,chen14,1
C[SiH](O[SiH](C)C)C,"1,1,3,3-Tetramethyldisiloxane",251.15,chen14,1
CN([Si](C)(C)C)[SiH3],Tetramethyldisilazane,284.15,chen14,1
C(C=C)[Si](Cl)(C)C,Allyl Dimethylchlorosilane,278.15,chen14,1
C(C)(CCC)[Si](Cl)(Cl)Cl,sec-Amyltrichlorosilane,303.15,chen14,1
C(CCC)[Si](Cl)(Cl)C,n-Butylmethyldichlorosilane,303.15,chen14,1
CN(C)C(N(C)C)[SiH3],Bis(dimethylamino)methylsilane,270.15,chen14,1
C1(=CC=CC=C1)[Si](Cl)(Cl)Cl,Phenyltrichlorosilane,364.15,chen14,1
C1(=CC=CC=C1)[Si](F)(F)F,Phenyl trifluorosilane,268.15,chen14,1
C[Si](OC(C)=O)(OC(C)=O)C,Dimethyldiacetoxysilane,310.15,chen14,1
C[Si](C#CC)(C)C,1-Trimethylsilylpropyne,270.15,chen14,1
C(=C)[Si](OCC)(C)C,Vinyldimethylethoxysilane,277.15,chen14,1
C(C=C)O[Si](C)(C)C,Allyloxytrimethylsilane,273.15,chen14,1
C(C=C)[Si](OC)(OC)OC,Allyltrimethoxysilane,319.15,chen14,1
ClCCC[Si](OC)(OC)OC,3-Chloropropyltrimethoxysilane,348.15,chen14,1
C(CC)[Si](OC)(OC)OC,n-Propyltrimethoxysilane,298.15,chen14,1
C[Si](O[Si](C)(C)C)(C)C,Hexamethyldisiloxane,270.15,chen14,1
C[Si]([Si](C)(C)C)(C)C,Hexamethyldisilane,272.15,chen14,1
C(=C)[Si](C)(CC)CC,Vinyldiethylmethylsilane,288.15,chen14,1
C(C(C)C)[Si](OC)(OC)OC,Isobutyltrimethoxysilane,315.15,chen14,1
C1(=CC=CC=C1)[Si](Cl)(C)C,Phenyldimethylchlorosilane,334.15,chen14,1
CN(C)[Si](CC)(CC)CC,"(N,N-Dimethylamino)triethylsilane",299.15,chen14,1
C(=C)[Si](OC(C)=O)(OC(C)=O)OC(C)=O,Vinyltriacetoxysilane,361.15,chen14,1
C(C)[Si](OC(C)=O)(OC(C)=O)OC(C)=O,Ethyltriacetoxysilane,377.15,chen14,1
C[Si](C1C=CCC1)(C)C,3-(Trimethylsilyl)cyclopentene,299.15,chen14,1
C(=C)[Si](CC)(CC)CC,Vinyltriethylsilane,298.15,chen14,1
C(CCCCCCC)[SiH3],n-Octylsilane,309.15,chen14,1
C[Si](OC)(OC)C1=CC=CC=C1,Methyl phenyldimethoxysilane,349.15,chen14,1
C(#N)CC[Si](OCC)(OCC)OCC,2-Cyanoethyltriethoxysilane,359.15,chen14,1
C(C1CO1)OCCC[Si](OC)(OC)OC,3-Glycidoxypropyltrimethoxysilane,383.15,chen14,1
C(C)(C)(C)[Si](Cl)(C)C(C)(C)C,Di-t-butylmethylchlorosilane,342.15,chen14,1
C(CC)[Si](Cl)(CCC)CCC,Tri-n-propylchlorosilane,349.15,chen14,1
C(C)(C)N(C(C)C)[Si](C)(C)C,(Diisopropylamino)trimethylsilane,301.15,chen14,1
Cl[Si](O[Si](O[Si](O[Si](C)(C)C)(C)C)(C)C)(C)C,1-Chlorononamethyltetrasiloxane,347.15,chen14,1
C[Si](OC(O[Si](C)(C)C)(O[Si](C)(C)C)[SiH3])(C)C,Tristrimethylsiloxymethylsilane,336.15,chen14,1
C1(=CC=CC=C1)C(C1=CC=CC=C1)[SiH3],Diphenylmethylsilane,393.15,chen14,1
C[Si](OC(=C)C)(C)C,Trimethyl[(1-methylethenyl)oxy]silane,272.15,chen14,1
ClC(Cl)[SiH2]CCC(F)(F)F,"Dichloromethyl-3,3,3-trifluoropropylsilane",288.15,chen14,1
ClCOCC[Si](C)(C)C,[2-(chloromethoxy)ethyl]trimethylsilane,319.15,chen14,1
I[Si](C)(C)C,Iodotrimethylsilane,288.15,chen14,1
C1(=CC=CC=C1)[SiH](C1=CC=CC=C1)C1=CC=CC=C1,Triphenylsilane,416.35,chen14,1
SCCC[Si](OCC)(OCC)OCC,[3-(mercapto)propyl]triethoxysilane,360.93,chen14,1
NCCC[SiH2]OCC,Gamma-aminopropylethoxysilane,369.26,chen14,1
Cl[Si](CC)(CC)Cl,Dichlorodiethylsilane,297.15,chen14,1
OC/C=C/CO,"(2E)-but-2-ene-1,4-diol",401.0,Saldana11,1
OC[C@H](O)[C@@H](O)[C@H](O)[C@H](O)CO,"(2R,3R,4R,5S)-hexane-1,2,3,4,5,6-hexol",422.0,Saldana11,1
OCC[C@H](O)CO,"(2S)-butane-1,2,4-triol",385.0,Saldana11,1
OC/C=C\CO,"(2Z)-but-2-ene-1,4-diol",401.0,Saldana11,1
CCCCC(CC)(CO)CO,"2-butyl-2-ethylpropane-1,3-diol",386.0,Saldana11,1
CCCCCCC(CO)CCCC,2-butyloctan-1-ol,382.0,Saldana11,1
CCC(CC)CO,2-ethylbutan-1-ol,330.0,Saldana11,1
CCCCC(CC)CO,2-ethylhexan-1-ol,346.0,Saldana11,1
CCCC(O)C(CC)CO,"2-ethylhexane-1,3-diol",409.0,Saldana11,1
CCC(C)CO,2-methylbutan-1-ol,316.0,Saldana11,1
CCC(C)(C)O,2-methylbutan-2-ol,294.0,Saldana11,1
CCCC(C)CO,2-methylpentan-1-ol,319.0,Saldana11,1
CC(O)CC(C)(C)O,"2-methylpentane-2,4-diol",366.0,Saldana11,1
OCC(C)C,2-methylpropan-1-ol,301.0,Saldana11,1
CC(C)(C)O,2-methylpropan-2-ol,284.0,Saldana11,1
OCC(CO)(CO)CO,"2,2-bis(hydroxymethyl)propane-1,3-diol",533.0,Saldana11,1
CCC(CC)(CO)CO,"2,2-diethylpropane-1,3-diol",374.0,Saldana11,1
OCC(C)(C)CO,"2,2-dimethylpropane-1,3-diol",371.0,Saldana11,1
OCC(C)(C)CC(C)C,"2,2,4-trimethylpentan-1-ol",330.0,Saldana11,1
OCC(C)(C)C(O)C(C)C,"2,2,4-trimethylpentane-1,3-diol",383.0,Saldana11,1
CC(C)(O)C(C)(C)O,"2,3-dimethylbutane-2,3-diol",350.0,Saldana11,1
OCC(C)C(C)C(C)C,"2,3,4-trimethylpentan-1-ol",333.0,Saldana11,1
OCC(C)CC(C)(C)C,"2,4,4-trimethylpentan-1-ol",333.0,Saldana11,1
OCCC(C)C,3-methylbutan-1-ol,316.0,Saldana11,1
CC(O)C(C)C,3-methylbutan-2-ol,299.0,Saldana11,1
CCCCC(C)(O)CC,3-methylheptan-3-ol,327.0,Saldana11,1
OCCC(C)CC,3-methylpentan-1-ol,331.0,Saldana11,1
CCC(C)(O)CC,3-methylpentan-3-ol,297.0,Saldana11,1
OCCC(C)(C)C,"3,3-dimethylbutan-1-ol",321.0,Saldana11,1
CC(C)CC(C)O,4-methylpentan-2-ol,314.0,Saldana11,1
CCC(C)CC(O)CC,5-methylheptan-3-ol,327.0,Saldana11,1
OCCCCCCCC(C)C,8-methylnonan-1-ol,378.0,Saldana11,1
CCCCO,butan-1-ol,310.0,Saldana11,1
CCC(C)O,butan-2-ol,296.0,Saldana11,1
CCC(O)CO,"butane-1,2-diol",363.0,Saldana11,1
OCCC(C)O,"butane-1,3-diol",382.0,Saldana11,1
OCCCCO,"butane-1,4-diol",407.0,Saldana11,1
CC(O)C(C)O,"butane-2,3-diol",358.0,Saldana11,1
CCCCCCCCCCO,decan-1-ol,378.0,Saldana11,1
OCCO,"ethane-1,2-diol",383.0,Saldana11,1
CCO,ethanol,286.0,Saldana11,1
CCCCCCCO,heptan-1-ol,346.0,Saldana11,1
CCCCCC(C)O,heptan-2-ol,332.0,Saldana11,1
CCCCCCO,hexan-1-ol,335.0,Saldana11,1
CCCCC(C)O,hexan-2-ol,314.0,Saldana11,1
OCCCCC(O)CO,"hexane-1,2,6-triol",471.0,Saldana11,1
OCCCCCCO,"hexane-1,6-diol",420.0,Saldana11,1
CC(O)CCC(C)O,"hexane-2,5-diol",374.0,Saldana11,1
CO,methanol,284.0,Saldana11,1
CCCCCCCCCO,nonan-1-ol,353.0,Saldana11,1
CCCCCC(O)C=C,oct-1-en-3-ol,341.0,Saldana11,1
CCCCCCCCO,octan-1-ol,354.0,Saldana11,1
CCCCCCC(C)O,octan-2-ol,358.0,Saldana11,1
CCCCCO,pentan-1-ol,330.0,Saldana11,1
CCCC(C)O,pentan-2-ol,314.0,Saldana11,1
CCC(O)CC,pentan-3-ol,313.0,Saldana11,1
OCCCCCO,"pentane-1,5-diol",402.0,Saldana11,1
CC(O)CC(C)O,"pentane-2,4-diol",374.0,Saldana11,1
OCC=C,prop-2-en-1-ol,294.0,Saldana11,1
CCCO,propan-1-ol,298.0,Saldana11,1
CC(C)O,propan-2-ol,285.0,Saldana11,1
CCC(O)O,"propane-1,1-diol",372.0,Saldana11,1
OCC(C)O,"propane-1,2-diol",372.0,Saldana11,1
OCC(O)CO,"propane-1,2,3-triol",433.0,Saldana11,1
OCCCO,"propane-1,3-diol",352.0,Saldana11,1
CCCCCCCCCCCCCCO,tetradecan-1-ol,418.0,Saldana11,1
CCCCCCCCCCCCCO,tridecan-1-ol,394.0,Saldana11,1
CCCCCCC(C)c1ccccc1,(1-methylheptyl)benzene,373.0,Saldana11,1
C/C=C/c1ccccc1,(1E)-prop-1-en-1-ylbenzene,325.0,Saldana11,1
C/C=C\c1ccccc1,(1Z)-prop-1-enylbenzene,311.0,Saldana11,1
CCC(C)Cc1ccccc1,(2-methylbutyl)benzene,337.0,Saldana11,1
CC(C)(C)Cc1ccccc1,"(2,2-dimethylpropyl)benzene",323.0,Saldana11,1
CC(C)c1ccccc1C,1-ethyl-2-isopropylbenzene,331.0,Saldana11,1
CCc1ccccc1C,1-ethyl-2-methylbenzene,312.0,Saldana11,1
CCc1cccc(C)c1C,"1-ethyl-2,3-dimethylbenzene",338.0,Saldana11,1
CCc1ccc(C)cc1C,"1-ethyl-2,4-dimethylbenzene",330.0,Saldana11,1
CCc1cccc(C)c1,1-ethyl-3-methylbenzene,311.0,Saldana11,1
CCc1ccc(C)cc1,1-ethyl-4-methylbenzene,309.0,Saldana11,1
C=Cc1ccccc1C,1-methyl-2-ethenylbenzene,320.0,Saldana11,1
Cc1cccc(c1)C(C)C,1-methyl-3-(propan-2-yl)benzene,323.0,Saldana11,1
C=Cc1cccc(C)c1,1-methyl-3-ethenylbenzene,324.0,Saldana11,1
CCCc1cccc(C)c1,1-methyl-3-propylbenzene,325.0,Saldana11,1
C=Cc1ccc(C)cc1,1-methyl-4-ethenylbenzene,319.0,Saldana11,1
CC(c1ccccc1)c1ccccc1,"1,1-diphenylethane",402.0,Saldana11,1
CCc1ccccc1CC,"1,2-diethylbenzene",330.0,Saldana11,1
CCCc1cccc(C)c1C,"1,2-dimethyl-3-propylbenzene",345.0,Saldana11,1
Cc1ccccc1C,"1,2-dimethylbenzene",290.0,Saldana11,1
c1ccc(cc1)c1ccccc1c1ccccc1,"1,2-diphenylbenzene",436.0,Saldana11,1
c1ccc(cc1)CCc1ccccc1,"1,2-diphenylethane",402.0,Saldana11,1
Cc1cccc(C)c1C,"1,2,3-trimethylbenzene",317.0,Saldana11,1
Cc1ccc(C)c(C)c1C,"1,2,3,4-tetramethylbenzene",341.0,Saldana11,1
Cc1cc(C)c(C)c(C)c1,"1,2,3,5-tetramethylbenzene",336.0,Saldana11,1
CCc1ccc(CC)c(CC)c1,"1,2,4-triethylbenzene",353.0,Saldana11,1
Cc1ccc(C)c(C)c1,"1,2,4-trimethylbenzene",319.0,Saldana11,1
Cc1cc(C)c(C)cc1C,"1,2,4,5-tetramethylbenzene",328.0,Saldana11,1
CC(C)c1cccc(c1)C(C)C,"1,3-di(propan-2-yl)benzene",349.0,Saldana11,1
CCc1cccc(CC)c1,"1,3-diethylbenzene",329.0,Saldana11,1
c1ccc(cc1)c1cccc(c1)c1ccccc1,"1,3-diphenylbenzene",464.0,Saldana11,1
Cc1cccc(C)c1,"1,3-xylene",298.0,Saldana11,1
CCc1cc(CC)cc(CC)c1,"1,3,5-triethylbenzene",354.0,Saldana11,1
CC(C)c1cc(cc(c1)C(C)C)C(C)C,"1,3,5-triisopropylbenzene",360.0,Saldana11,1
Cc1cc(C)cc(C)c1,"1,3,5-trimethylbenzene",318.0,Saldana11,1
CCc1ccc(CC)cc1,"1,4-diethylbenzene",329.0,Saldana11,1
CC(C)c1ccc(cc1)C(C)C,"1,4-diisopropylbenzene",349.0,Saldana11,1
Cc1ccc(C)cc1,"1,4-dimethylbenzene",298.0,Saldana11,1
c1ccc(cc1)c1ccc(cc1)c1ccccc1,"1,4-diphenylbenzene",480.0,Saldana11,1
CCc1cc(C)ccc1C,"2-ethyl-1,4-dimethylbenzene",329.0,Saldana11,1
CCC(C)(C)c1ccccc1,2-phenyl-2-methylbutane,338.0,Saldana11,1
CC(C)(c1ccccc1)c1ccccc1,"2,2-diphenylpropane",383.0,Saldana11,1
CCc1ccc(C)c(C)c1,"4-ethyl-1,2-dimethylbenzene",331.0,Saldana11,1
Cc1ccc(cc1)C(C)C,4-isopropyltoluene,320.0,Saldana11,1
CC(=C)c1ccccc1,alpha-methylstyrene,313.0,Saldana11,1
c1ccccc1,benzene,262.0,Saldana11,1
c1ccc(cc1)c1ccccc1,biphenyl,386.0,Saldana11,1
C1CCC(CC1)c1ccccc1,cyclohexylbenzene,372.0,Saldana11,1
c1ccc(cc1)Cc1ccccc1,diphenylmethane,403.0,Saldana11,1
C=Cc1ccccc1,ethenylbenzene,305.0,Saldana11,1
CCc1ccccc1,ethylbenzene,288.0,Saldana11,1
c1ccc2CCCc2c1,indane,322.0,Saldana11,1
CC(C)Cc1ccccc1,isobutylbenzene,325.0,Saldana11,1
CC(C)CCc1ccccc1,isopentylbenzene,335.0,Saldana11,1
CC(C)c1ccccc1,isopropylbenzene,304.0,Saldana11,1
CCCCc1ccccc1,n-butylbenzene,323.0,Saldana11,1
CCCCCCCCCCc1ccccc1,n-decylbenzene,380.0,Saldana11,1
CCCCCCCCCCCCc1ccccc1,n-dodecylbenzene,414.0,Saldana11,1
CCCCCCCc1ccccc1,n-heptylbenzene,368.0,Saldana11,1
CCCCCCc1ccccc1,n-hexylbenzene,353.0,Saldana11,1
CCCc1ccccc1,n-propylbenzene,303.0,Saldana11,1
CCCCCCCCCCCc1ccccc1,n-undecylbenzene,417.0,Saldana11,1
CCCCCCCCCc1ccccc1,nonylbenzene,372.0,Saldana11,1
CCCCCCCCc1ccccc1,octylbenzene,380.0,Saldana11,1
Cc1cc(C)c(C)c(C)c1C,pentamethylbenzene,364.0,Saldana11,1
CCCCCc1ccccc1,pentylbenzene,338.0,Saldana11,1
CCC(C)c1ccccc1,sec-butylbenzene,325.0,Saldana11,1
CC(C)(C)c1ccccc1,tert-butylbenzene,333.0,Saldana11,1
C1CCc2ccccc2C1,tetralin,350.0,Saldana11,1
Cc1ccccc1,toluene,277.0,Saldana11,1
C[C@@H](O)c1ccccc1,(1R)-1-phenylethan-1-ol,358.0,Saldana11,1
OCc1ccccc1C,(2-methylphenyl)methanol,377.0,Saldana11,1
OCc1cccc(C)c1,(3-methylphenyl)methanol,378.0,Saldana11,1
OCc1ccc(CO)cc1,[4-(hydroxymethyl)phenyl]methanol,461.0,Saldana11,1
O=C(OCC1CCC(CC1)COC(=O)c1ccccc1)c1ccccc1,{4-[(benzoyloxy)methyl]cyclohexyl}methyl benzoate,434.0,Saldana11,1
CCC(O)c1ccccc1,1-phenylpropan-1-ol,363.0,Saldana11,1
CC(O)Cc1ccccc1,1-phenylpropan-2-ol,358.0,Saldana11,1
CCc1ccccc1O,2-ethylphenol,351.0,Saldana11,1
OCc1ccco1,2-furylmethanol,356.0,Saldana11,1
Cc1ccccc1O,2-methylphenol,354.0,Saldana11,1
OCCc1ccccc1,2-phenylethanol,369.0,Saldana11,1
OCC(C)c1ccccc1,2-phenylpropan-1-ol,366.0,Saldana11,1
CC(C)(O)c1ccccc1,2-phenylpropan-2-ol,360.0,Saldana11,1
Cc1cc(c(O)c(c1)C(C)(C)C)C(C)(C)C,"2,6-di-tert-butyl-p-cresol",390.0,Saldana11,1
CCc1cccc(O)c1,3-ethylphenol,367.0,Saldana11,1
Cc1cccc(O)c1,3-methylphenol,368.0,Saldana11,1
OCCCc1ccccc1,3-phenylpropan-1-ol,373.0,Saldana11,1
CCC(C)(C)c1ccc(O)cc1,4-(2-methylbutan-2-yl)phenol,384.0,Saldana11,1
Oc1ccc(cc1)C(C)(C)c1ccc(O)cc1,4-[2-(4-hydroxyphenyl)propan-2-yl]phenol,480.0,Saldana11,1
CCc1ccc(O)cc1,4-ethylphenol,373.0,Saldana11,1
Cc1ccc(O)cc1,4-methylphenol,368.0,Saldana11,1
Oc1ccc(cc1O)C(C)(C)C,"4-tert-butylbenzene-1,2-diol",403.0,Saldana11,1
Oc1ccc(cc1)C(C)(C)C,4-tert-butylphenol,386.0,Saldana11,1
Oc1ccccc1O,"benzene-1,2-diol",400.0,Saldana11,1
Oc1cccc(O)c1,"benzene-1,3-diol",400.0,Saldana11,1
Oc1ccc(O)cc1,"benzene-1,4-diol",438.0,Saldana11,1
O=C(OCc1ccccc1)c1ccccc1,benzyl benzoate,418.0,Saldana11,1
CC(=O)OCc1ccccc1,benzyl ethanoate,363.0,Saldana11,1
O=COCc1ccccc1,benzyl methanoate,355.0,Saldana11,1
CCCCOC(=O)c1ccccc1,butyl benzoate,379.0,Saldana11,1
CCCCOC(=O)c1ccccc1C(=O)OCCCC,di-n-butyl phthalate,430.0,Saldana11,1
CCCCCCCCCCOC(=O)c1ccccc1C(=O)OCCCCCCCCCC,di-n-decyl phthalate,505.0,Saldana11,1
CCCCCCOC(=O)c1ccccc1C(=O)OCCCCCC,di-n-hexyl phthalate,466.0,Saldana11,1
CCCCCCCCCOC(=O)c1ccccc1C(=O)OCCCCCCCCC,di-n-nonyl phthalate,489.0,Saldana11,1
CCOC(=O)c1ccccc1C(=O)OCC,diethyl phthalate,390.0,Saldana11,1
CC(C)COC(=O)c1ccccc1C(=O)OCC(C)C,diisobutyl phthalate,434.0,Saldana11,1
CC(C)CCCCCCCOC(=O)c1ccccc1C(=O)OCCCCCCCC(C)C,diisodecyl phthalate,505.0,Saldana11,1
COC(=O)c1cccc(c1)C(=O)OC,dimethyl isophthalate,411.0,Saldana11,1
COC(=O)c1ccccc1C(=O)OC,dimethyl phthalate,419.0,Saldana11,1
CCCCC(CC)COC(=O)c1ccccc1C(=O)OCC(CC)CCCC,dioctyl phthalate,489.0,Saldana11,1
CCOC(=O)c1ccccc1,ethyl benzoate,357.0,Saldana11,1
COC(=O)c1ccccc1,methyl benzoate,355.0,Saldana11,1
CCCOC(=O)c1ccccc1,n-propyl benzoate,371.0,Saldana11,1
CCCCCCCCCc1ccccc1O,nonylphenol,411.0,Saldana11,1
Oc1ccccc1,phenol,353.0,Saldana11,1
OCc1ccccc1,phenylmethanol,374.0,Saldana11,1
Cc1ccc(O)c(C)c1,"xylen-2,4-ol",368.0,Saldana11,1
Oc1c(C)cccc1C,"xylen-2,6-ol",346.0,Saldana11,1
C[C@H]1CC[C@H](C(C)C)[C@@H](O)C1,"(1R,2S,5R)-5-methyl-2-propan-2-ylcyclohexan-1-ol",366.0,Saldana11,1
CC1(O)CCCCC1,1-methylcyclohexan-1-ol,338.0,Saldana11,1
OCC1CCC=CC1,"1,2,3,6-tetrahydrobenzyl alcohol",346.0,Saldana11,1
OCC1CCC(CO)CC1,"1,4-cyclohexanedimethanol",434.0,Saldana11,1
CC1=CCC(CC1)C(C)(C)O,2-(4-methylcyclohex-3-en-1-yl)propan-2-ol,367.0,Saldana11,1
OCC1CCC(C)CC1,4-methyl-cyclohexane-methanol,354.0,Saldana11,1
CC1CCC(=O)O1,5-methyloxolan-2-one,354.0,Saldana11,1
C[C@H]1CCCC[C@H]1O,cis-2-methylcyclohexanol,331.0,Saldana11,1
C[C@H]1CCC[C@@H](O)C1,cis-3-methylcyclohexanol,335.0,Saldana11,1
C[C@@H]1CC[C@H](O)CC1,cis-4-methylcyclohexanol,343.0,Saldana11,1
OC1CCCCC1,cyclohexanol,341.0,Saldana11,1
CC(=O)OC1CCCCC1,cyclohexyl ethanoate,330.0,Saldana11,1
O=COC1CCCCC1,cyclohexyl methanoate,324.0,Saldana11,1
COC(=O)C1CCC(CC1)C(=O)OC,"dimethyl-1,4-cyclohexanedicarboxylate",383.0,Saldana11,1
O=C1CCCCCO1,oxepan-2-one,382.0,Saldana11,1
C1COC1=O,oxetan-2-one,343.0,Saldana11,1
O=C1CCCO1,oxolan-2-one,371.0,Saldana11,1
C[C@@H]1CCCC[C@H]1O,trans-2-methylcyclohexanol,331.0,Saldana11,1
C[C@@H]1CCC[C@@H](O)C1,trans-3-methylcyclohexanol,335.0,Saldana11,1
CCC(CC)OC(=O)C,1-ethylpropyl ethanoate,318.0,Saldana11,1
CC(=C)OC(=O)C,1-methylethenyl ethanoate,283.0,Saldana11,1
CC(=O)OC(C)C(C)C,"1,2-dimethylpropyl ethanoate",316.0,Saldana11,1
CCCCC(CC)COC(=O)C,2-ethylhexyl ethanoate,344.0,Saldana11,1
CCCCC(CC)COC(=O)C=C,2-ethylhexyl prop-2-enoate,355.0,Saldana11,1
O=COCC(C)(C)C,"2,2-dimethylpropyl methanoate",311.0,Saldana11,1
CCC(=O)OCC(C)(C)C,"2,2-dimethylpropyl propanoate",334.0,Saldana11,1
C=CCOC(=O)C(=C)C,allyl 2-methylpropenoate,306.0,Saldana11,1
CC(=O)OCC=C,allyl ethanoate,295.0,Saldana11,1
C=CC(OC(=O)C)OC(=O)C,allylidene diethanoate,355.0,Saldana11,1
CCCCOC(=O)C(=C)C,butyl 2-methylprop-2-enoate,322.0,Saldana11,1
CCCCOC(=O)CCC,butyl butanoate,326.0,Saldana11,1
CCCCOC(=O)C,butyl ethanoate,295.0,Saldana11,1
CCCCOC=O,butyl methanoate,291.0,Saldana11,1
CCCCOC(=O)C=C,butyl prop-2-enoate,312.0,Saldana11,1
CCCCOC(=O)CC,butyl propanoate,305.0,Saldana11,1
CCCCCCCCCCOC(=O)C,decyl ethanoate,378.0,Saldana11,1
CCCCCCCCCCOC=O,decyl methanoate,373.0,Saldana11,1
CCCCC(CC)COC(=O)CCCCC(=O)OCC(CC)CCCC,di(2-ethylhexyl)hexanedioate,466.0,Saldana11,1
C=CCOC(=O)/C=C\C(=O)OCC=C,diallyl (2Z)-but-2-enedioate,393.0,Saldana11,1
CCCCOC(=O)/C=C\C(=O)OCCCC,dibutyl (2Z)-but-2-enedioate,413.0,Saldana11,1
CCCCOC(=O)CCCCCCCCC(=O)OCCCC,dibutyl decanedioate,451.0,Saldana11,1
CCOC(=O)/C=C\C(=O)OCC,diethyl (2Z)-but-2-enedioate,366.0,Saldana11,1
CCOC(=O)CCC(=O)OCC,diethyl butanedioate,363.0,Saldana11,1
CCOC(=O)OCC,diethyl carbonate,298.0,Saldana11,1
CCOC(=O)C(=O)OCC,diethyl oxalate,395.0,Saldana11,1
CCOC(=O)CC(=O)OCC,diethyl propanedioate,366.0,Saldana11,1
CCCCCCOC(=O)CCCCC(=O)OCCCCCC,dihexyl hexanedioate,464.0,Saldana11,1
COC(=O)/C=C\C(=O)OC,dimethyl (2Z)-but-2-enedioate,368.0,Saldana11,1
COC(=O)CC(=O)OC,dimethyl propanedioate,363.0,Saldana11,1
CCCCCCCCOC(=O)CCCCC(=O)OCCCCCCCC,dioctyl hexanedioate,452.0,Saldana11,1
CCCCCCCCCCCCOC(=O)CCC,dodecyl butanoate,433.0,Saldana11,1
CCCCCCCCCCCCOC(=O)C,dodecyl ethanoate,389.0,Saldana11,1
CCCCCCCCCCCCOC(=O)CC,dodecyl propanoate,421.0,Saldana11,1
C=COC(=O)C(C)(C)C,"ethenyl 2,2-dimethylpropanoate",282.0,Saldana11,1
CC(=O)OC=C,ethenyl ethanoate,265.0,Saldana11,1
C=COC=O,ethenyl methanoate,256.0,Saldana11,1
CCC(=O)OC=C,ethenyl propanoate,274.0,Saldana11,1
CCOC(=O)/C=C/C=C/C,"ethyl (2E,4E)-hexa-2,4-dienoate",342.0,Saldana11,1
CCCCC/C=C\C=C\C(=O)OCC,"ethyl (2E,4Z)-deca-2,4-dienoate",386.0,Saldana11,1
CCOC(=O)/C=C/C,ethyl (2E)-but-2-enoate,275.0,Saldana11,1
CCCCCCC/C=C/C(=O)OCC,ethyl (2E)-dec-2-enoate,364.0,Saldana11,1
CC/C=C/CC(=O)OCC,ethyl (2E)-hex-3-enoate,332.0,Saldana11,1
CCCCC/C=C/C(=O)OCC,ethyl (2E)-oct-2-enoate,371.0,Saldana11,1
CCC/C=C/CCC(=O)OCC,ethyl (2E)-oct-4-enoate,352.0,Saldana11,1
CCCCCCCC/C=C\CCCCCCCC(=O)OCC,ethyl (9Z)-octadec-9-enoate,365.0,Saldana11,1
CCOC(=O)C(C)O,ethyl 2-hydroxypropanoate,319.0,Saldana11,1
CCOC(=O)C(=C)C,ethyl 2-methylprop-2-enoate,293.0,Saldana11,1
CCOC(=O)C=C=C,"ethyl buta-2,3-dienoate",320.0,Saldana11,1
CCCC(=O)OCC,ethyl butanoate,297.0,Saldana11,1
CCCCCCCCCC(=O)OCC,ethyl decanoate,375.0,Saldana11,1
CCCCCCCCCCCC(=O)OCC,ethyl dodecanoate,386.0,Saldana11,1