compound,flashpoint,pure substance,smiles,source
trans-2-methylcyclohexanol,331.0,1,C[C@@H]1CCCC[C@H]1O,Saldana11
trans-3-methylcyclohexanol,335.0,1,C[C@@H]1CCC[C@@H](O)C1,Saldana11
"1,2-dimethylpropyl ethanoate",316.0,1,CC(=O)OC(C)C(C)C,Saldana11
"2,2-dimethylpropyl methanoate",311.0,1,O=COCC(C)(C)C,Saldana11
"2,2-dimethylpropyl propanoate",334.0,1,CCC(=O)OCC(C)(C)C,Saldana11
allyl 2-methylpropenoate,306.0,1,C=CCOC(=O)C(=C)C,Saldana11
allylidene diethanoate,355.0,1,C=CC(OC(=O)C)OC(=O)C,Saldana11
decyl ethanoate,378.0,1,CCCCCCCCCCOC(=O)C,Saldana11
decyl methanoate,373.0,1,CCCCCCCCCCOC=O,Saldana11
diallyl (2Z)-but-2-enedioate,393.0,1,C=CCOC(=O)/C=C\C(=O)OCC=C,Saldana11
dibutyl (2Z)-but-2-enedioate,413.0,1,CCCCOC(=O)/C=C\C(=O)OCCCC,Saldana11
diethyl (2Z)-but-2-enedioate,366.0,1,CCOC(=O)/C=C\C(=O)OCC,Saldana11
dimethyl (2Z)-but-2-enedioate,368.0,1,COC(=O)/C=C\C(=O)OC,Saldana11
dimethyl propanedioate,363.0,1,COC(=O)CC(=O)OC,Saldana11
dodecyl butanoate,433.0,1,CCCCCCCCCCCCOC(=O)CCC,Saldana11
dodecyl ethanoate,389.0,1,CCCCCCCCCCCCOC(=O)C,Saldana11
dodecyl propanoate,421.0,1,CCCCCCCCCCCCOC(=O)CC,Saldana11
"ethenyl 2,2-dimethylpropanoate",282.0,1,C=COC(=O)C(C)(C)C,Saldana11
ethenyl methanoate,256.0,1,C=COC=O,Saldana11
ethenyl propanoate,274.0,1,CCC(=O)OC=C,Saldana11
"ethyl (2E,4E)-hexa-2,4-dienoate",342.0,1,CCOC(=O)/C=C/C=C/C,Saldana11
"ethyl (2E,4Z)-deca-2,4-dienoate",386.0,1,CCCCC/C=C\C=C\C(=O)OCC,Saldana11
ethyl (2E)-but-2-enoate,275.0,1,CCOC(=O)/C=C/C,Saldana11
ethyl (2E)-dec-2-enoate,364.0,1,CCCCCCC/C=C/C(=O)OCC,Saldana11
ethyl (2E)-hex-3-enoate,332.0,1,CC/C=C/CC(=O)OCC,Saldana11
ethyl (2E)-oct-2-enoate,371.0,1,CCCCC/C=C/C(=O)OCC,Saldana11
ethyl (2E)-oct-4-enoate,352.0,1,CCC/C=C/CCC(=O)OCC,Saldana11
ethyl (9Z)-octadec-9-enoate,365.0,1,CCCCCCCC/C=C\CCCCCCCC(=O)OCC,Saldana11
"ethyl buta-2,3-dienoate",320.0,1,CCOC(=O)C=C=C,Saldana11
ethyl decanoate,375.0,1,CCCCCCCCCC(=O)OCC,Saldana11
ethyl dodecanoate,386.0,1,CCCCCCCCCCCC(=O)OCC,Saldana11
ethyl eicosanoate,444.0,1,CCCCCCCCCCCCCCCCCCCC(=O)OCC,Saldana11
ethyl hept-6-enoate,352.0,1,C=CCCCCC(=O)OCC,Saldana11
ethyl heptadecanoate,428.0,1,CCCCCCCCCCCCCCCCC(=O)OCC,Saldana11
ethyl heptanoate,347.0,1,CCCCCCC(=O)OCC,Saldana11
ethyl hexadecanoate,386.0,1,CCCCCCCCCCCCCCCC(=O)OCC,Saldana11
ethyl hexanoate,326.0,1,CCCCCC(=O)OCC,Saldana11
ethyl isobutanoate,287.0,1,CCOC(=O)C(C)C,Saldana11
ethyl isopentanoate,298.0,1,CCOC(=O)CC(C)C,Saldana11
ethyl nonanoate,367.0,1,CCCCCCCCC(=O)OCC,Saldana11
ethyl octadecanoate,441.0,1,CCCCCCCCCCCCCCCCCC(=O)OCC,Saldana11
ethyl octanoate,354.0,1,CCCCCCCC(=O)OCC,Saldana11
ethyl pentanoate,307.0,1,CCCCC(=O)OCC,Saldana11
ethyl tetradecanoate,386.0,1,CCCCCCCCCCCCCC(=O)OCC,Saldana11
ethyl undec-10-enoate,386.0,1,C=CCCCCCCCCC(=O)OCC,Saldana11
ethyl undecanoate,386.0,1,CCCCCCCCCCC(=O)OCC,Saldana11
ethylene glycol diprop-2-enoate,373.0,1,C=CC(=O)OCCOC(=O)C=C,Saldana11
hexyl methanoate,330.0,1,CCCCCCOC=O,Saldana11
isobutyl butanoate,330.0,1,CCCC(=O)OCC(C)C,Saldana11
isobutyl methanoate,302.0,1,O=COCC(C)C,Saldana11
isobutyl prop-2-enoate,304.0,1,C=CC(=O)OCC(C)C,Saldana11
isobutyl propanoate,320.0,1,CCC(=O)OCC(C)C,Saldana11
isopentyl butanoate,331.0,1,CCCC(=O)OCCC(C)C,Saldana11
isopentyl dodecanoate,386.0,1,CCCCCCCCCCCC(=O)OCCC(C)C,Saldana11
isopentyl hexanoate,358.0,1,CCCCCC(=O)OCCC(C)C,Saldana11
isopentyl isopentanoate,345.0,1,CC(C)CCOC(=O)CC(C)C,Saldana11
isopentyl methanoate,314.0,1,O=COCCC(C)C,Saldana11
isopentyl propanoate,321.0,1,CCC(=O)OCCC(C)C,Saldana11
methyl (11E)-octadec-11-enoate,335.0,1,CCCCCC/C=C/CCCCCCCCCC(=O)OC,Saldana11
methyl (11Z)-eicos-11-enoate,386.0,1,CCCCCCCC/C=C\CCCCCCCCCC(=O)OC,Saldana11
methyl (11Z)-octadec-11-enoate,335.0,1,CCCCCC/C=C\CCCCCCCCCC(=O)OC,Saldana11
methyl (13Z)-docos-13-enoate,306.0,1,CCCCCCCC/C=C\CCCCCCCCCCCC(=O)OC,Saldana11
methyl (2E)-non-2-enoate,364.0,1,CCCCCC/C=C/C(=O)OC,Saldana11
methyl (2E)-oct-2-enoate,356.0,1,CCCCC/C=C/C(=O)OC,Saldana11
"methyl (2E)-penta-2,4-dienoate",310.0,1,COC(=O)/C=C/C=C,Saldana11
"methyl (2Z)-penta-2,4-dienoate",310.0,1,COC(=O)/C=C\C=C,Saldana11
methyl (3E)-hex-3-enoate,319.0,1,CC/C=C/CC(=O)OC,Saldana11
methyl (3E)-non-3-enoate,361.0,1,CCCCC/C=C/CC(=O)OC,Saldana11
methyl (3E)-pent-3-enoate,297.0,1,C/C=C/CC(=O)OC,Saldana11
methyl (3Z)-non-3-enoate,361.0,1,CCCCC/C=C\CC(=O)OC,Saldana11
"methyl (4Z,7Z,10Z,13Z,16Z,19Z)-docosa-4,7,10,13,16,19-hexaenoate",366.0,1,C/C=C\C/C=C\C/C=C\C/C=C\C/C=C\C/C=C\CCCC(=O)OC,Saldana11
"methyl (5Z,8Z,11Z,14Z,17Z)-eicosa-5,8,11,14,17-pentaenoate",377.0,1,CC/C=C\C/C=C\C/C=C\C/C=C\C/C=C\CCCC(=O)OC,Saldana11
"methyl (6E,9E,12E)-octadeca-6,9,12-trienoate",335.0,1,CCCCC/C=C/C/C=C/C/C=C/CCCCC(=O)OC,Saldana11
"methyl (6E,9E,12Z)-octadeca-6,9,12-trienoate",335.0,1,CCCCC/C=C\C/C=C/C/C=C/CCCCC(=O)OC,Saldana11
"methyl (6E,9Z,12E)-octadeca-6,9,12-trienoate",335.0,1,CCCCC/C=C/C/C=C\C/C=C/CCCCC(=O)OC,Saldana11
"methyl (6E,9Z,12Z)-octadeca-6,9,12-trienoate",335.0,1,CCCCC/C=C\C/C=C\C/C=C/CCCCC(=O)OC,Saldana11
"methyl (6Z,9E,12E)-octadeca-6,9,12-trienoate",335.0,1,CCCCC/C=C/C/C=C/C/C=C\CCCCC(=O)OC,Saldana11
"methyl (6Z,9E,12Z)-octadeca-6,9,12-trienoate",335.0,1,CCCCC/C=C\C/C=C/C/C=C\CCCCC(=O)OC,Saldana11
"methyl (6Z,9Z,12E)-octadeca-6,9,12-trienoate",335.0,1,CCCCC/C=C/C/C=C\C/C=C\CCCCC(=O)OC,Saldana11
"methyl (6Z,9Z,12Z)-octadeca-6,9,12-trienoate",335.0,1,CCCCC/C=C\C/C=C\C/C=C\CCCCC(=O)OC,Saldana11
"methyl (9Z,12Z,15Z)-octadeca-9,12,15-trienoate",386.0,1,CC/C=C\C/C=C\C/C=C\CCCCCCCC(=O)OC,Saldana11
"methyl (9Z,12Z)-octadeca-9,12-dienoate",386.0,1,CCCCC/C=C\C/C=C\CCCCCCCC(=O)OC,Saldana11
methyl (9Z)-hexadec-9-enoate,386.0,1,CCCCCC/C=C\CCCCCCCC(=O)OC,Saldana11
methyl (9Z)-octadec-9-enoate,386.0,1,CCCCCCCC/C=C\CCCCCCCC(=O)OC,Saldana11
methyl 10-undecenoate,373.0,1,C=CCCCCCCCCC(=O)OC,Saldana11
methyl 2-methylprop-2-enoate,284.0,1,COC(=O)C(=C)C,Saldana11
methyl but-3-enoate,293.0,1,COC(=O)CC=C,Saldana11
methyl decanoate,367.0,1,CCCCCCCCCC(=O)OC,Saldana11
methyl dodecanoate,386.0,1,CCCCCCCCCCCC(=O)OC,Saldana11
methyl eicosanoate,386.0,1,CCCCCCCCCCCCCCCCCCCC(=O)OC,Saldana11
methyl ethanoate,263.0,1,COC(=O)C,Saldana11
methyl heneicosanoate,386.0,1,CCCCCCCCCCCCCCCCCCCCC(=O)OC,Saldana11
methyl heptadecanoate,383.0,1,CCCCCCCCCCCCCCCCC(=O)OC,Saldana11
methyl heptanoate,325.0,1,CCCCCCC(=O)OC,Saldana11
methyl hex-5-enoate,319.0,1,C=CCCCC(=O)OC,Saldana11
methyl hexadecanoate,425.0,1,CCCCCCCCCCCCCCCC(=O)OC,Saldana11
methyl nonadecanoate,386.0,1,CCCCCCCCCCCCCCCCCCC(=O)OC,Saldana11
methyl nonanoate,360.0,1,CCCCCCCCC(=O)OC,Saldana11
methyl octanoate,342.0,1,CCCCCCCC(=O)OC,Saldana11
methyl pent-4-enoate,302.0,1,COC(=O)CCC=C,Saldana11
methyl pentadecanoate,386.0,1,CCCCCCCCCCCCCCC(=O)OC,Saldana11
methyl tridecanoate,386.0,1,CCCCCCCCCCCCC(=O)OC,Saldana11
n-propyl propanoate,292.0,1,CCCOC(=O)CC,Saldana11
neopentyl ethanoate,316.0,1,CC(=O)OCC(C)(C)C,Saldana11
nonyl ethanoate,372.0,1,CCCCCCCCCOC(=O)C,Saldana11
nonyl methanoate,360.0,1,CCCCCCCCCOC=O,Saldana11
octyl butanoate,378.0,1,CCCCCCCCOC(=O)CCC,Saldana11
octyl ethanoate,359.0,1,CCCCCCCCOC(=O)C,Saldana11
octyl methanoate,353.0,1,CCCCCCCCOC=O,Saldana11
propyl prop-2-enoate,311.0,1,CCCOC(=O)C=C,Saldana11
sec-butyl methanoate,299.0,1,CC(CC)OC=O,Saldana11
tert-butyl 2-methylprop-2-enoate,300.0,1,CC(=C)C(=O)OC(C)(C)C,Saldana11
tert-butyl butanoate,320.0,1,CCCC(=O)OC(C)(C)C,Saldana11
tert-butyl methanoate,264.0,1,O=COC(C)(C)C,Saldana11
tetradecyl methanoate,433.0,1,CCCCCCCCCCCCCCOC=O,Saldana11
undecyl butanoate,421.0,1,CCCCCCCCCCCOC(=O)CCC,Saldana11
undecyl ethanoate,398.0,1,CCCCCCCCCCCOC(=O)C,Saldana11
undecyl methanoate,385.0,1,CCCCCCCCCCCOC=O,Saldana11
undecyl propanoate,410.0,1,CCCCCCCCCCCOC(=O)CC,Saldana11
"1-methyl-4-(propan-2-yl)cyclohexa-1,3-diene",319.0,1,CC1=CC=C(CC1)C(C)C,Saldana11
"1-methyl-4-(propan-2-yl)cyclohexa-1,4-diene",324.0,1,CC1=CCC(=CC1)C(C)C,Saldana11
"1-trans-3,5-trimethylcyclohexane",292.0,1,C[C@H]1C[C@H](C)C[C@H](C)C1,Saldana11
"1,1-diethylcyclohexane",322.0,1,CCC1(CC)CCCCC1,Saldana11
"1,1-dimethylcyclohexane",280.0,1,CC1(C)CCCCC1,Saldana11
"1,1-dimethylcyclopentane",257.0,1,CC1(C)CCCC1,Saldana11
"1,3-dimethyladamantane",325.0,1,CC12CC3CC(C1)CC(C)(C3)C2,Saldana11
"2-methyl-5-propan-2-ylcyclohexa-1,3-diene",322.0,1,CC1=CCC(C=C1)C(C)C,Saldana11
2-norbornene,258.0,1,C1CC2C=CC1C2,Saldana11
3-methylidene-6-(propan-2-yl)cyclohex-1-ene,322.0,1,C=C1CCC(C=C1)C(C)C,Saldana11
"3,3-dimethyl-2-methylidenebicyclo[2.2.1]heptane",309.0,1,C=C1C2CCC(C2)C1(C)C,Saldana11
"6,6-dimethyl-4-methylidenebicyclo[3.1.1]heptane",304.0,1,C=C1CCC2CC1C2(C)C,Saldana11
bicyclohexyl,347.0,1,C1CCC(CC1)C1CCCCC1,Saldana11
butylcyclohexane,321.0,1,CCCCC1CCCCC1,Saldana11
butylcyclopentane,308.0,1,CCCCC1CCCC1,Saldana11
"cis-1,2-dimethylcyclohexane",284.0,1,C[C@@H]1CCCC[C@@H]1C,Saldana11
"cis-1,2-dimethylcyclopentane",269.0,1,C[C@@H]1CCC[C@@H]1C,Saldana11
"cis-1,3-dimethylcyclohexane",279.0,1,C[C@@H]1CCC[C@H](C)C1,Saldana11
"cis-1,4-dimethylcyclohexane",279.0,1,C[C@H]1CC[C@@H](C)CC1,Saldana11
cis-decalin,323.0,1,C1CC[C@@H]2CCCC[C@@H]2C1,Saldana11
"cyclododeca-1,5,9-triene",360.0,1,C1C=CCCC=CCCC=CC1,Saldana11
"cyclohexa-1,4-diene",262.0,1,C1C=CCC=C1,Saldana11
"cycloocta-1,5-diene",308.0,1,C1C=CCCC=CC1,Saldana11
dicyclopentadiene,305.0,1,C1=CC2C3C=CC(C3)C2C1,Saldana11
ethenylnorbornene,300.0,1,C=CC1CC2C=CC1C2,Saldana11
ethylcyclopentane,269.0,1,CCC1CCCC1,Saldana11
isopropylcyclopentane,287.0,1,CC(C)C1CCCC1,Saldana11
methylcyclopentadiene,322.0,1,CC1=CC=CC1,Saldana11
pentylcyclohexane,339.0,1,CCCCCC1CCCCC1,Saldana11
prop-2-enylcyclohexane,302.0,1,C=CCC1CCCCC1,Saldana11
prop-2-enylcyclopentane,285.0,1,C=CCC1CCCC1,Saldana11
propylcyclohexane,304.0,1,CCCC1CCCCC1,Saldana11
propylcyclopentane,289.0,1,CCCC1CCCC1,Saldana11
tert-butylcyclohexane,315.0,1,CC(C)(C)C1CCCCC1,Saldana11
"trans-1,2-dimethylcyclohexane",280.0,1,C[C@@H]1CCCC[C@H]1C,Saldana11
"trans-1,3-dimethylcyclohexane",281.0,1,C[C@@H]1CCC[C@@H](C)C1,Saldana11
"trans-1,4-dimethylcyclohexane",284.0,1,C[C@@H]1CC[C@@H](C)CC1,Saldana11
trans-decalin,325.0,1,C1CC[C@@H]2CCCC[C@H]2C1,Saldana11
"(2E,4E)-hexa-2,4-diene",266.0,1,C/C=C/C=C/C,Saldana11
(2E)-2-hexene,246.0,1,CCC/C=C/C,Saldana11
(2E)-2-pentene,228.0,1,CC/C=C/C,Saldana11
(2E)-3-heptene,267.0,1,CCC/C=C/CC,Saldana11
(2E)-3-methylpent-2-ene,246.0,1,CC/C(=C/C)/C,Saldana11
(2E)-4-methylpent-2-ene,239.0,1,C/C=C/C(C)C,Saldana11
(2E)-hept-2-ene,272.0,1,CCCC/C=C/C,Saldana11
(2E)-oct-2-ene,294.0,1,CCCCC/C=C/C,Saldana11
"(2Z,4E)-hexa-2,4-diene",266.0,1,C/C=C/C=C\C,Saldana11
(2Z)-3-methylpent-2-ene,245.0,1,CC/C(=C\C)/C,Saldana11
(2Z)-4-methylpent-2-ene,237.0,1,C/C=C\C(C)C,Saldana11
(2Z)-but-2-ene,200.0,1,C/C=C\C,Saldana11
(2Z)-hept-2-ene,265.0,1,CCCC/C=C\C,Saldana11
(2Z)-hex-2-ene,247.0,1,CCC/C=C\C,Saldana11
(2Z)-oct-2-ene,294.0,1,CCCCC/C=C\C,Saldana11
(2Z)-pent-2-ene,226.0,1,CC/C=C\C,Saldana11
"(3E)-1,3-hexadiene",254.0,1,CC/C=C/C=C,Saldana11
(3E)-3-hexene,261.0,1,CC/C=C/CC,Saldana11
(3E)-3-octene,282.0,1,CCCC/C=C/CC,Saldana11
(3Z)-hept-3-ene,264.0,1,CCC/C=C\CC,Saldana11
(3Z)-hex-3-ene,245.0,1,CC/C=C\CC,Saldana11
(3Z)-oct-3-ene,290.0,1,CCCC/C=C\CC,Saldana11
"(4E)-hexa-1,4-diene",248.0,1,C=CC/C=C/C,Saldana11
(4E)-oct-4-ene,281.0,1,CCC/C=C/CCC,Saldana11
"(4Z)-hexa-1,4-diene",248.0,1,C=CC/C=C\C,Saldana11
(4Z)-oct-4-ene,290.0,1,CCC/C=C\CCC,Saldana11
"1,3-dimethylcyclohex-1-ene",285.0,1,CC1CCCC(=C1)C,Saldana11
2-ethylbut-1-ene,247.0,1,CCC(=C)CC,Saldana11
2-ethylpent-1-ene,263.0,1,CCCC(=C)CC,Saldana11
2-methylbut-1-ene,226.0,1,CCC(=C)C,Saldana11
2-methylbut-2-ene,228.0,1,CC=C(C)C,Saldana11
2-methylhept-1-ene,283.0,1,CCCCCC(=C)C,Saldana11
2-methylhept-2-ene,281.0,1,CCCCC=C(C)C,Saldana11
2-methylhex-1-ene,267.0,1,CCCCC(=C)C,Saldana11
2-methylpent-2-ene,250.0,1,CCC=C(C)C,Saldana11
"2,3-dimethylbut-1-ene",255.0,1,CC(=C)C(C)C,Saldana11
"2,3-dimethylbut-2-ene",257.0,1,CC(=C(C)C)C,Saldana11
"2,3-dimethylhex-1-ene",281.0,1,CCCC(C)C(=C)C,Saldana11
"2,3-dimethylpent-1-ene",256.0,1,CCC(C)C(=C)C,Saldana11
"2,3,4-trimethylpent-2-ene",275.0,1,CC(C)C(=C(C)C)C,Saldana11
"2,5-dimethylhexa-1,5-diene",280.0,1,CC(=C)CCC(=C)C,Saldana11
"2,5-dimethylhexa-2,4-diene",297.0,1,CC(=CC=C(C)C)C,Saldana11
3-ethylhex-1-ene,274.0,1,CCCC(CC)C=C,Saldana11
3-ethylpent-1-ene,256.0,1,CCC(CC)C=C,Saldana11
3-ethylpent-2-ene,267.0,1,CCC(=CC)CC,Saldana11
3-methylbut-1-ene,217.0,1,C=CC(C)C,Saldana11
"3-methylbuta-1,2-diene",261.0,1,C=C=C(C)C,Saldana11
3-methylcyclohex-1-ene,270.0,1,CC1CCCC=C1,Saldana11
3-methylhex-1-ene,255.0,1,CC(CCC)C=C,Saldana11
3-methylpent-1-ene,245.0,1,CC(CC)C=C,Saldana11
"3-methylpenta-1,3-diene",245.0,1,CC=C(C)C=C,Saldana11
"3,3-dimethylbut-1-ene",245.0,1,C=CC(C)(C)C,Saldana11
4-methylhept-1-ene,275.0,1,CCCC(C)CC=C,Saldana11
4-methylpent-1-ene,242.0,1,C=CCC(C)C,Saldana11
"4-methylpenta-1,3-diene",255.0,1,C=CC=C(C)C,Saldana11
"4,4-dimethylpent-1-ene",261.0,1,C=CCC(C)(C)C,Saldana11
5-methylhex-1-ene,263.0,1,C=CCCC(C)C,Saldana11
7-methyloct-1-ene,291.0,1,C=CCCCCC(C)C,Saldana11
cycloheptene,267.0,1,C1CCC=CCC1,Saldana11
cyclooctene,298.0,1,C1CCCC=CCC1,Saldana11
heptadec-1-ene,408.0,1,CCCCCCCCCCCCCCCC=C,Saldana11
"hexa-1,5-diene",246.0,1,C=CCCC=C,Saldana11
hexadec-1-ene,405.0,1,CCCCCCCCCCCCCCC=C,Saldana11
octadec-1-ene,421.0,1,CCCCCCCCCCCCCCCCC=C,Saldana11
pentadec-1-ene,385.0,1,CCCCCCCCCCCCCC=C,Saldana11
2-methylnonane,314.0,1,CCCCCCCC(C)C,Saldana11
2-methyloctane,297.0,1,CCCCCCC(C)C,Saldana11
"2,2-dimethylheptane",297.0,1,CCCCCC(C)(C)C,Saldana11
"2,2-dimethylhexane",269.0,1,CCCCC(C)(C)C,Saldana11
"2,2-dimethyloctane",304.0,1,CCCCCCC(C)(C)C,Saldana11
"2,2-dimethylpentane",258.0,1,CCCC(C)(C)C,Saldana11
"2,2-dimethylpropane",208.0,1,CC(C)(C)C,Saldana11
"2,2,3-trimethylbutane",249.0,1,CC(C)C(C)(C)C,Saldana11
"2,2,3-trimethylhexane",288.0,1,CCCC(C)C(C)(C)C,Saldana11
"2,2,3-trimethylpentane",270.0,1,CCC(C)C(C)(C)C,Saldana11
"2,2,3,3-tetramethylbutane",278.0,1,CC(C)(C)C(C)(C)C,Saldana11
"2,2,3,3-tetramethylhexane",304.0,1,CCCC(C)(C)C(C)(C)C,Saldana11
"2,2,3,3-tetramethylpentane",289.0,1,CCC(C)(C)C(C)(C)C,Saldana11
"2,2,3,4-tetramethylhexane",304.0,1,CCC(C)C(C)C(C)(C)C,Saldana11
"2,2,3,4-tetramethylpentane",284.0,1,CC(C)C(C)C(C)(C)C,Saldana11
"2,2,4-trimethylhexane",288.0,1,CCC(C)CC(C)(C)C,Saldana11
"2,2,4,4-tetramethylhexane",304.0,1,CCC(C)(C)CC(C)(C)C,Saldana11
"2,2,4,4-tetramethylpentane",276.0,1,CC(C)(C)CC(C)(C)C,Saldana11
"2,2,4,4,6,8,8-heptamethylnonane",368.0,1,CC(CC(C)(C)C)CC(C)(C)CC(C)(C)C,Saldana11
"2,2,5,5-tetramethylhexane",289.0,1,CC(C)(C)CCC(C)(C)C,Saldana11
"2,3-dimethylheptane",288.0,1,CCCCC(C)C(C)C,Saldana11
"2,3-dimethylhexane",278.0,1,CCCC(C)C(C)C,Saldana11
"2,3-dimethyloctane",309.0,1,CCCCCC(C)C(C)C,Saldana11
"2,3-dimethylpentane",258.0,1,CCC(C)C(C)C,Saldana11
"2,3,3-trimethylhexane",288.0,1,CCCC(C)(C)C(C)C,Saldana11
"2,3,3-trimethylpentane",273.0,1,CCC(C)(C)C(C)C,Saldana11
"2,3,3,4-tetramethylhexane",304.0,1,CCC(C)C(C)(C)C(C)C,Saldana11
"2,3,3,4-tetramethylpentane",284.0,1,CC(C)C(C)(C)C(C)C,Saldana11
"2,3,4-trimethylhexane",288.0,1,CCC(C)C(C)C(C)C,Saldana11
"2,3,4-trimethylpentane",273.0,1,CC(C)C(C)C(C)C,Saldana11
"2,3,4,4-tetramethylhexane",304.0,1,CCC(C)(C)C(C)C(C)C,Saldana11
"2,3,4,5-tetramethylhexane",304.0,1,CC(C)C(C)C(C)C(C)C,Saldana11
"2,3,5-trimethylheptane",304.0,1,CCC(C)CC(C)C(C)C,Saldana11
"2,3,5-trimethylhexane",288.0,1,CC(C)CC(C)C(C)C,Saldana11
"2,4-dimethylheptane",288.0,1,CCCC(C)CC(C)C,Saldana11
"2,4-dimethylhexane",283.0,1,CCC(C)CC(C)C,Saldana11
"2,4,4-trimethylhexane",288.0,1,CCC(C)(C)CC(C)C,Saldana11
"2,4,5-trimethylheptane",304.0,1,CCC(C)C(C)CC(C)C,Saldana11
"2,4,6-trimethylheptane",304.0,1,CC(C)CC(C)CC(C)C,Saldana11
"2,5-dimethylheptane",288.0,1,CCC(C)CCC(C)C,Saldana11
"2,6-dimethyloctane",307.0,1,CCC(C)CCCC(C)C,Saldana11
"2,6,10,15,19,23-hexamethyltetracosane",490.0,1,CC(CCCCC(C)CCCC(C)CCCC(C)C)CCCC(C)CCCC(C)C,Saldana11
"2,7-dimethyloctane",314.0,1,CC(C)CCCCC(C)C,Saldana11
3-ethyl-2-methylpentane,276.0,1,CCC(CC)C(C)C,Saldana11
"3-ethyl-2,2-dimethylhexane",311.0,1,CCCC(CC)C(C)(C)C,Saldana11
"3-ethyl-2,2-dimethylpentane",286.0,1,CCC(CC)C(C)(C)C,Saldana11
"3-ethyl-2,3-dimethylpentane",288.0,1,CCC(C)(CC)C(C)C,Saldana11
"3-ethyl-2,3,4-trimethylpentane",304.0,1,CCC(C)(C(C)C)C(C)C,Saldana11
"3-ethyl-2,4-dimethylpentane",288.0,1,CCC(C(C)C)C(C)C,Saldana11
3-ethyl-3-methylheptane,314.0,1,CCCCC(C)(CC)CC,Saldana11
3-ethyl-3-methylpentane,276.0,1,CCC(C)(CC)CC,Saldana11
3-ethyl-4-methylhexane,288.0,1,CCC(CC)C(C)CC,Saldana11
3-ethyl-5-methylheptane,304.0,1,CCC(C)CC(CC)CC,Saldana11
3-ethylhexane,278.0,1,CCCC(CC)CC,Saldana11
3-ethylpentane,261.0,1,CCC(CC)CC,Saldana11
3-methylheptane,279.0,1,CCCCC(C)CC,Saldana11
3-methylhexane,269.0,1,CCCC(C)CC,Saldana11
3-methylnonane,311.0,1,CCCCCCC(C)CC,Saldana11
3-methyloctane,297.0,1,CCCCCC(C)CC,Saldana11
3-methylpentane,241.0,1,CCC(C)CC,Saldana11
"3,3-diethylpentane",294.0,1,CCC(CC)(CC)CC,Saldana11
"3,3-dimethylhexane",272.0,1,CCCC(C)(C)CC,Saldana11
"3,3-dimethyloctane",314.0,1,CCCCCC(C)(C)CC,Saldana11
"3,3-dimethylpentane",254.0,1,CCC(C)(C)CC,Saldana11
"3,3,4-trimethylhexane",288.0,1,CCC(C)C(C)(C)CC,Saldana11
"3,3,4,4-tetramethylhexane",304.0,1,CCC(C)(C)C(C)(C)CC,Saldana11
"3,3,5-trimethylheptane",304.0,1,CCC(C)CC(C)(C)CC,Saldana11
"3,4-dimethylheptane",288.0,1,CCCC(C)C(C)CC,Saldana11
"3,4-dimethylhexane",277.0,1,CCC(C)C(C)CC,Saldana11
"3,4,5-trimethylheptane",304.0,1,CCC(C)C(C)C(C)CC,Saldana11
"3,5-dimethylheptane",288.0,1,CCC(C)CC(C)CC,Saldana11
"3,5-dimethyloctane",314.0,1,CCCC(C)CC(C)CC,Saldana11
4-ethyl-3-methylheptane,314.0,1,CCCC(CC)C(C)CC,Saldana11
4-ethylheptane,288.0,1,CCCC(CC)CCC,Saldana11
4-ethyloctane,314.0,1,CCCCC(CC)CCC,Saldana11
4-methylheptane,279.0,1,CCCC(C)CCC,Saldana11
4-methylnonane,311.0,1,CCCCCC(C)CCC,Saldana11
4-methyloctane,295.0,1,CCCCC(C)CCC,Saldana11
4-propylheptane,314.0,1,CCCC(CCC)CCC,Saldana11
"4,4-dimethylheptane",288.0,1,CCCC(C)(C)CCC,Saldana11
5-methylnonane,312.0,1,CCCCC(C)CCCC,Saldana11
n-nonadecane,441.0,1,CCCCCCCCCCCCCCCCCCC,Saldana11
Methyldichlorosilane,241.0,1,C[SiH](Cl)Cl,pan12
"1,1,1-Trifluoropropyltrichlorosilane",288.0,1,FC(C(C)[Si](Cl)(Cl)Cl)(F)F,pan12
Methylvinyldichlorosilane,272.0,1,CC=C[SiH](Cl)Cl,pan12
3-Chloropropylmethyldichlorosilane,359.0,1,ClCCC[Si](Cl)(Cl)C,pan12
Phenyldichlorosilane,333.0,1,C1(=CC=CC=C1)[SiH](Cl)Cl,pan12
N-Methyl-N-trimethylsilyltrifluoroacetamide,298.0,1,CN(C(C(F)(F)F)=O)[Si](C)(C)C,pan12
Bis(trimethylsilyl)carbodiimide,315.0,1,C[Si](C)(C)N=C=N[Si](C)(C)C,pan12
Vinylpentamethyldisiloxane,285.0,1,C(=C)[Si](O[Si](C)(C)C)(C)C,pan12
Phenylethyldichlorosilane,365.0,1,C1(=CC=CC=C1)CC[SiH](Cl)Cl,pan12
Phenyldimethylsilane,311.0,1,C1(=CC=CC=C1)[SiH](C)C,pan12
Tetramethyltetravinylcyclotetrasilane,385.0,1,C[Si]1([Si]([Si]([Si]1(C=C)C)(C=C)C)(C=C)C)C=C,pan12
Tris(trimethylsiloxy)boron,315.0,1,C[Si](OB(O[Si](C)(C)C)O[Si](C)(C)C)(C)C,pan12
"(1S,2R,4R)-1,7,7-trimethylbicyclo[2.2.1]heptan-2-ol",339.15,1,CC1(C2CCC1(C(C2)O)C)C,pubchem
N-methyl-1-phenylpropan-2-amine,282.15,1,CC(CC1=CC=CC=C1)NC,pubchem
5-methyl-2-propan-2-ylcyclohexan-1-ol,364.15,1,CC1CCC(C(C1)O)C(C)C,pubchem
"(1R,9S)-4,11,11-trimethyl-8-methylidenebicyclo[7.2.0]undec-4-ene",374.15,1,CC1=CCCC(=C)C2CC(C2CC1)(C)C,pubchem
"[13-acetyloxy-1,6-dihydroxy-8-(hydroxymethyl)-4,12,12,15-tetramethyl-5-oxo-14-tetracyclo[8.5.0.02,6.011,13]pentadeca-3,8-dienyl] tetradecanoate",310.15,1,CCCCCCCCCCCCCC(=O)OC1C(C2(C(C=C(CC3(C2C=C(C3=O)C)O)CO)C4C1(C4(C)C)OC(=O)C)O)C,pubchem
"(1,7,7-trimethyl-2-bicyclo[2.2.1]heptanyl) acetate",361.15,1,CC(=O)OC1CC2CCC1(C2(C)C)C,pubchem
2-hydroxypropanoic acid,386.15,1,CC(C(=O)O)O,pubchem
"penta-1,3-diene",245.15,1,CC=CC=C,pubchem
N-methyl-1-phenylpropan-2-amine;hydrochloride,282.15,1,CC(CC1=CC=CC=C1)NC.Cl,pubchem
3-(1-methylpyrrolidin-2-yl)pyridine,374.15,1,CN1CCCC1C2=CN=CC=C2,pubchem
"3a,4,7,7a-tetrahydro-2-benzofuran-1,3-dione",430.15,1,C1C=CCC2C1C(=O)OC2=O,pubchem
"but-2-ene-1,4-diol",401.15,1,C(C=CCO)O,pubchem
"(1,7,7-trimethyl-2-bicyclo[2.2.1]heptanyl) 2-thiocyanatoacetate",355.15,1,CC1(C2CCC1(C(C2)OC(=O)CSC#N)C)C,pubchem
1-methyl-4-prop-1-en-2-ylcyclohexene,319.15,1,CC1=CCC(CC1)C(=C)C,pubchem
"6,6-dimethyl-2-methylidenebicyclo[3.1.1]heptane",304.15,1,CC1(C2CCC(=C)C1C2)C,pubchem