compound,flashpoint,pure substance,smiles,source
Pyrrole,306.0,1.0,c1cc[nH]c1,le15
but-3-yn-2-one,272.15,1.0,C#CC(C)=O,le15
Furan,238.0,1.0,c1ccoc1,le15
1H-Imidazole,418.15,1.0,c1c[nH]cn1,le15
1pentyne,239.0,1.0,C#CCCC,le15
2pentyne,243.0,1.0,CC#CCC,le15
Cyclopentene,273.0,1.0,C1=CCCC1,le15
"1,2-oxazole",282.0499999999999,1.0,c1cnoc1,le15
"1,3-oxazole",292.039,1.0,c1cocn1,le15
2H-triazole,380.15,1.0,c1cn[nH]n1,le15
"1H-1,2,4-Triazole",412.25,1.0,c1nc[nH]n1,le15
"Propanenitrile, 2-methyl-",281.15,1.0,CC(C)C#N,le15
Butanenitrile,289.15,1.0,CCCC#N,le15
"2,5-dihydro-1H-pyrrole",278.95,1.0,C1=CCNC1,le15
"2-Propyn-1-amine, N-methyl-",273.75,1.0,C#CCNC,le15
2-Propynoic acid,332.0499999999999,1.0,C#CC(=O)O,le15
"2-Propenal, 2-methyl-",258.15,1.0,C=C(C)C=O,le15
But-2-yn-1-ol,324.15,1.0,CC#CCO,le15
But-3-yn-1-ol,309.15,1.0,C#CCCO,le15
ethynoxyethane,282.15,1.0,C#COCC,le15
cyclobutanone,283.15,1.0,O=C1CCC1,le15
"2,3-dihydrofuran",249.15,1.0,C1=COCC1,le15
"2,5-dihydrofuran",256.45,1.0,C1=CCOC1,le15
Crotonaldehyde,282.0499999999999,1.0,C/C=C/C=O,le15
1-Butyn-3-ol,298.75,1.0,C#CC(C)O,le15
2butenal,286.0,1.0,CC=CC=O,le15
Cyclobutanone,283.0,1.0,O=C1CCC1,le15
"Cyanamide, dimethyl-",331.45,1.0,CN(C)C#N,le15
"Propanenitrile, 3-amino-",339.65,1.0,N#CCCN,le15
1-Pentene,245.15,1.0,C=CCCC,le15
2methyl1butene,239.0,1.0,C=C(C)CC,le15
2methyl2butene,228.0,1.0,CC=C(C)C,le15
3methyl1butene,217.0,1.0,C=CC(C)C,le15
2-Propenamide,352.15,1.0,C=CC(N)=O,le15
2-methoxyacetonitrile,304.85,1.0,COCC#N,le15
"2-Propenal, oxime",303.714,1.0,C=CC=NO,le15
3hydroxypropanenitrile,402.0,1.0,N#CCCO,le15
Pyrrolidine,275.928,1.0,C1CCNC1,le15
N-methylprop-2-en-1-amine,244.85,1.0,C=CCNC,le15
Cyclobutylamine,269.0,1.0,NC1CCC1,le15
Propiolactone,343.15,1.0,O=C1CCO1,le15
"Formic acid, ethenyl ester",289.15,1.0,C=COC=O,le15
2-Propenoic acid,341.15,1.0,C=CC(=O)O,le15
"Butane, 1,2-epoxy-",251.15,1.0,CCC1CO1,le15
"Furan, tetrahydro-",252.15,1.0,C1CCOC1,le15
Isopropenyl methyl ether,244.15,1.0,C=C(C)OC,le15
"2-Propen-1-ol, 2-methyl-",306.15,1.0,C=C(C)CO,le15
"Propane, 1,2-epoxy-2-methyl-",273.75,1.0,CC1(C)CO1,le15
3-methoxyprop-1-ene,250.15,1.0,C=CCOC,le15
"(2R,3S)-2,3-dimethyloxirane",251.45,1.0,C[C@@H]1O[C@@H]1C,le15
cyclobutanol,294.15,1.0,OC1CCC1,le15
2-Buten-1-ol,310.15,1.0,CC=CCO,le15
"Propanal, 2-methyl-",249.15,1.0,CC(C)C=O,le15
Methyl ethyl ketone,282.15,1.0,CCC(C)=O,le15
3-Buten-2-ol,289.85,1.0,C=CC(C)O,le15
3-Buten-1-ol,305.35,1.0,C=CCCO,le15
2methyl1propanal,248.0,1.0,CC(C)C=O,le15
3butene2ol,293.0,1.0,C=CC(C)O,le15
"Butane, 2-methyl-",222.15,1.0,CCC(C)C,le15
Isopentane,216.0,1.0,CCC(C)C,le15
1-nitroethene,296.35,1.0,C=C[N+](=O)[O-],le15
Propionamide,358.04999999999984,1.0,CCC(N)=O,le15
"2-Propanone, oxime",318.35,1.0,CC(C)=NO,le15
"Guanidine, methyl-",331.25,1.0,CNC(=N)N,le15
"Thiocyanic acid, methyl ester",311.15,1.0,CSC#N,le15
2methyl2propenal,258.0,1.0,C=C(C)C=O,le15
"2-Propanamine, 2-methyl-",264.15,1.0,CC(C)(C)N,le15
"2-Butanamine, (S)- (9CI)",254.15,1.0,CC[C@H](C)N,le15
"Ethanamine, N,N-dimethyl-",237.15,1.0,CCN(C)C,le15
sec-Butylamine,254.15,1.0,CCC(C)N,le15
secButylamine,254.0,1.0,CCC(C)N,le15
tertButylamine,264.0,1.0,CC(C)(C)N,le15
"Acetic acid, 2-oxo-",377.05,1.0,O=CC(=O)O,le15
"2-Propanone, 1-hydroxy-",329.15,1.0,CC(=O)CO,le15
"1-Propanol, 2,3-epoxy-",344.15,1.0,OCC1CO1,le15
"Methanamine, N-methyl-N-nitroso-",334.15,1.0,CN(C)N=O,le15
methylurea,296.25,1.0,CNC(N)=O,le15
"Acetic acid, hydrazide",375.75,1.0,CC(=O)NN,le15
"Diazene, dimethyl-, 1-oxide (9CI)",282.5499999999999,1.0,CN=[N+](C)[O-],le15
"Ethane, 1,1'-oxybis-",228.15,1.0,CCOCC,le15
Butyl alcohol,308.15,1.0,CCCCO,le15
"1-Propanol, 2-methyl-",300.928,1.0,CC(C)CO,le15
1-deuteriooxybutane,308.15,1.0,[2H]OCCCC,le15
2methyl1propanol,301.0,1.0,CC(C)CO,le15
secbutanol,299.0,1.0,CCC(C)O,le15
tertbutylalcohol,284.15,1.0,CC(C)(C)O,le15
Trimethylenediamine,322.0499999999999,1.0,NCCCN,le15
"N'-methylethane-1,2-diamine",314.25,1.0,CNCCN,le15
prop-2-ene-1-thiol,291.15,1.0,C=CCS,le15
"Propane, 1,2-epithio-",283.15,1.0,CC1CS1,le15
3-chloroprop-1-yne,292.0499999999999,1.0,C#CCCl,le15
ethyl nitrite,288.15,1.0,CCON=O,le15
"Acetamide, N-hydroxy- (9CI)",400.75,1.0,CC(=O)NO,le15
"Carbamic acid, methyl ester",378.35,1.0,COC(N)=O,le15
"2-Propanol, 1-amino-",347.04999999999984,1.0,CC(O)CN,le15
"Ethanamine, 2-methoxy-",282.5499999999999,1.0,COCCN,le15
"Acetonitrile, chloro-",320.95,1.0,N#CCCl,le15
"Acetic acid, hydroxy-",401.85,1.0,O=C(O)CO,le15
Ethaneperoxoic acid,314.15,1.0,CC(=O)OO,le15
"Methanamine, N-nitro- (9CI)",320.75,1.0,CN[N+](=O)[O-],le15
propanoyl fluoride,276.35,1.0,CCC(=O)F,le15
2-(fluoromethyl)oxirane,277.15,1.0,FCC1CO1,le15
"Ethanol, 2-methoxy-",319.25,1.0,COCCO,le15
"propane-1,3-diol",352.54999999999984,1.0,OCCCO,le15
N-(2-Hydroxyethyl)hydrazine,347.04999999999984,1.0,NNCCO,le15
ethanethioic S-acid,284.25,1.0,CC(=O)S,le15
"Urea, thio- (8CI)",339.95,1.0,NC(N)=S,le15
methylsulfanylethane,258.15,1.0,CCSC,le15
2-Propanethiol,239.15,1.0,CC(C)S,le15
3chloropropene,244.0,1.0,C=CCCl,le15
"Acetamide, 2-fluoro-",383.55,1.0,NC(=O)CF,le15
"2-Butenedinitrile, (E)- (9CI)",355.75,1.0,N#C/C=C/C#N,le15
3-fluoropropan-1-ol,311.65,1.0,OCCCF,le15
"hexa-2,4-diyne",285.45,1.0,CC#CC#CC,le15
Sulfinylbis-methane (9CI),358.15,1.0,CS(C)=O,le15
DimethylSulfoxide,361.0,1.0,CS(C)=O,le15
1chloropropane,255.0,1.0,CCCCl,le15
2chloropropane,241.0,1.0,CC(C)Cl,le15
"(2Z)-penta-2,4-dienenitrile",312.25,1.0,C=C/C=C\C#N,le15
carbamoyl chloride,308.75,1.0,NC(=O)Cl,le15
methylphosphonous acid,343.35,1.0,CP(O)O,le15
pyridazine,358.15,1.0,c1ccnnc1,le15
Pyrazine,328.15,1.0,c1cnccn1,le15
Butanedinitrile,414.25,1.0,N#CCCC#N,le15
Pyrimidine,304.0,1.0,c1cncnc1,le15
"cyclohexa-1,4-diene",267.15,1.0,C1=CCC=CC1,le15
Methylcyclopentadiene,299.0,1.0,CC1=CC=CC1,le15
"Ether, chloromethyl methyl",288.15,1.0,COCCl,le15
"1,3,5-triazine",304.25,1.0,c1ncncn1,le15
"1H-Pyrrole, 1-methyl-",289.15,1.0,Cn1cccc1,le15
pent-4-enenitrile,319.35,1.0,C=CCCC#N,le15
2-methyl-1H-pyrrole,320.35,1.0,Cc1ccc[nH]1,le15
cyclobutanecarbonitrile,317.45,1.0,N#CC1CCC1,le15
3-methyl-1H-pyrrole,320.35,1.0,Cc1cc[nH]c1,le15
3-Pentenenitrile,313.15,1.0,CC=CCC#N,le15
1methylpyrrole,288.0,1.0,Cn1cccc1,le15
Difluoroethanol,273.54999999999995,1.0,CC(O)(F)F,le15
3-methylfuran,251.15,1.0,Cc1ccoc1,le15
cyclopent-2-en-1-one,315.15,1.0,O=C1C=CCC1,le15
Pent-2-en-4-yn-1-ol,337.35,1.0,C#CC=CCO,le15
2methylfuran,251.15,1.0,Cc1ccco1,le15
1-methylimidazole,365.15,1.0,Cn1ccnc1,le15
"1H-Imidazole, 4-methyl-",414.75,1.0,Cc1c[nH]cn1,le15
"Pyrazole, 3-methyl-",366.15,1.0,Cc1cc[nH]n1,le15
"1H-Imidazole, 2-methyl-",418.05,1.0,Cc1ncc[nH]1,le15
1-methylpyrazole,308.15,1.0,Cn1cccn1,le15
"1H-Pyrazole, 4-methyl-",369.25,1.0,Cc1cn[nH]c1,le15
1-Hexyne,252.15,1.0,C#CCCCC,le15
"3,3-dimethylbut-1-yne",239.15,1.0,C#CC(C)(C)C,le15
methylidenecyclopentane,255.15,1.0,C=C1CCCC1,le15
"(2Z,4E)-hexa-2,4-diene",259.25,1.0,C/C=C\C=C\C,le15
1-methylcyclopentene,349.15,1.0,CC1=CCCC1,le15
1hexyne,253.0,1.0,C#CCCCC,le15
1methylcyclopentene,256.0,1.0,CC1=CCCC1,le15
2hexyne,262.0,1.0,CC#CCCC,le15
Cyclohexene,253.0,1.0,C1=CCCCC1,le15
Methylenecyclopentane,254.0,1.0,C=C1CCCC1,le15
4-Methyloxazole,293.65,1.0,Cc1cocn1,le15
"Isocyanic acid, allyl ester",316.15,1.0,C=CCN=C=O,le15
"5-methyl-1,2-oxazole",303.15,1.0,Cc1ccno1,le15
"3-Butenenitrile, 2-hydroxy-",345.04999999999984,1.0,C=CC(O)C#N,le15
Pentanenitrile,313.75,1.0,CCCCC#N,le15
"Butanenitrile, 3-methyl-",301.45,1.0,CC(C)CC#N,le15
"2-Propynylamine, 1,1-dimethyl- (6CI,7CI,8CI)",275.15,1.0,C#CC(C)(C)N,le15
2-methylbutanenitrile,297.5499999999999,1.0,CCC(C)C#N,le15
"1,2,3,6-tetrahydropyridine",289.25,1.0,C1=CCNCC1,le15
1-isocyanobutane,293.75,1.0,[C-]#[N+]CCCC,le15
Butylcyanide,313.0,1.0,CCCCC#N,le15
but-2-ynoic acid,364.05,1.0,CC#CC(=O)O,le15
"2-Oxetanone, 4-methylene-",371.05,1.0,C=C1CC(=O)O1,le15
methyl prop-2-ynoate,283.15,1.0,C#CC(=O)OC,le15
"2-Butenedial, (Z)-",339.35,1.0,O=C/C=C\C=O,le15
"Guanidine, N-cyano-",365.95,1.0,N#CNC(=N)N,le15
"4H-1,2,4-Triazole, 4-amino-",388.85,1.0,Nn1cnnc1,le15
"Crotonaldehyde, 3-methyl- (8CI)",307.0499999999999,1.0,CC(C)=CC=O,le15
"3-Butyn-2-ol, 2-methyl-",298.15,1.0,C#CC(C)(C)O,le15
6-oxabicyclo[3.1.0]hexane,283.15,1.0,C1CC2OC2C1,le15
(E)-2-methylbut-2-enal,291.45,1.0,C/C=C(\C)C=O,le15
3-Penten-2-one,343.15,1.0,CC=CC(C)=O,le15
1-cyclopropylethanone,294.25,1.0,CC(=O)C1CC1,le15
"3-Buten-2-one, 3-methyl-",284.15,1.0,C=C(C)C(C)=O,le15
"Butanal, 2-methylene- (9CI)",274.15,1.0,C=C(C=O)CC,le15
"penta-1,4-dien-3-ol",303.15,1.0,C=CC(O)C=C,le15
(E)-Pent-2-en-1-al,292.15,1.0,CC/C=C/C=O,le15
Ethyl vinyl ketone,263.15,1.0,C=CC(=O)CC,le15
Pent-4-yn-2-ol,310.35,1.0,C#CCC(C)O,le15
(E)-pent-3-en-2-one,292.95,1.0,C/C=C/C(C)=O,le15
Cyclopent-2-en-1-ol,328.25,1.0,OC1C=CCC1,le15
1-Pentyn-3-ol,302.15,1.0,C#CC(O)CC,le15
Pent-4-yn-1-ol,329.15,1.0,C#CCCCO,le15
2-Pentyn-1-ol,331.15,1.0,CCC#CCO,le15
3-Pentyn-1-ol,327.5499999999999,1.0,CC#CCCO,le15
cyclopentanone,303.706,1.0,O=C1CCCC1,le15
1cyclopropylethanone,286.0,1.0,CC(=O)C1CC1,le15
"Propionitrile, 3-(methylamino)- (6CI,7CI,8CI)",336.25,1.0,CNCCC#N,le15
"2-methyl-4,5-dihydro-1H-imidazole",347.35,1.0,CC1=NCCN1,le15
"Acetonitrile, (dimethylamino)-",306.15,1.0,CN(C)CC#N,le15
"3,3-dimethylbut-1-ene",245.15,1.0,C=CC(C)(C)C,le15
"2,3-dimethylbut-1-ene",255.15,1.0,C=C(C)C(C)C,le15
2-methylpent-2-ene,246.15,1.0,CCC=C(C)C,le15
"2,3-dimethylbut-2-ene",257.15,1.0,CC(C)=C(C)C,le15
1hexene,247.0,1.0,C=CCCCC,le15
2ethyl1butene,247.0,1.0,C=C(CC)CC,le15
2hexene,252.0,1.0,CC=CCCC,le15
2methyl1pentene,247.0,1.0,C=C(C)CCC,le15
2methyl2pentene,250.0,1.0,CCC=C(C)C,le15
3methyl1pentene,245.0,1.0,C=CC(C)CC,le15
3methyl2pentene,267.0,1.0,CC=C(C)CC,le15
4methyl1pentene,242.0,1.0,C=CCC(C)C,le15
methylcyclopentane,263.0,1.0,CC1CCCC1,le15
"Methane, dichloro-",312.65,1.0,ClCCl,le15
"Acetic acid, cyano-",380.95,1.0,N#CCC(=O)O,le15
"2-Propenamide, 2-methyl-",354.85,1.0,C=C(C)C(N)=O,le15
"Propionitrile, 3-methoxy- (8CI)",334.25,1.0,COCCC#N,le15
1-isocyanatopropane,272.15,1.0,CCCN=C=O,le15
"2-methyl-4,5-dihydro-1,3-oxazole",293.15,1.0,CC1=NCCO1,le15
"2-Propenamide, N-methyl-",376.75,1.0,C=CC(=O)NC,le15
cyclopropanecarboxamide,377.25,1.0,NC(=O)C1CC1,le15
"Propanenitrile, 2-hydroxy-2-methyl-",346.15,1.0,CC(C)(O)C#N,le15
Thiazole,299.15,1.0,c1cscn1,le15
"Pyrrolidine, 1-methyl-",251.45,1.0,CN1CCCC1,le15
1methylpyrrolidine,255.0,1.0,CN1CCCC1,le15
Cyclopentylamine,285.0,1.0,NC1CCCC1,le15
"2-Propenoic acid, 2-methyl-",347.32199999999995,1.0,C=C(C)C(=O)O,le15
"2(3H)-Furanone, dihydro-",354.04999999999984,1.0,O=C1CCCO1,le15
"2,3-Butanedione",278.65,1.0,CC(=O)C(C)=O,le15
(Z)-but-2-enoic acid,354.75,1.0,C/C=C\C(=O)O,le15
"2,3-dihydro-1,4-dioxine",298.75,1.0,C1=COCCO1,le15
2-(oxiran-2-yl)oxirane,318.75,1.0,C1OC1C1CO1,le15
But-3-enoic acid,341.35,1.0,C=CCC(=O)O,le15
"Butane, 1,2:3,4-diepoxy-",313.15,1.0,C1OC1C1CO1,le15
cyclopropanecarboxylic acid,344.85,1.0,O=C(O)C1CC1,le15
"Formic acid, allyl ester (8CI)",279.65,1.0,C=CCOC=O,le15
2-Butenoic acid,361.15,1.0,CC=CC(=O)O,le15
(2S)-2-[(2S)-oxiran-2-yl]oxirane,318.75,1.0,C1O[C@@H]1[C@@H]1CO1,le15
"2-Propenoic acid, methyl ester",279.81699999999995,1.0,C=CC(=O)OC,le15
"2-Butenoic acid, (E)- (9CI)",354.75,1.0,C/C=C/C(=O)O,le15
"2-Butyne-1,4-diol",408.708,1.0,OCC#CCO,le15
(2R)-2-[(2R)-oxiran-2-yl]oxirane,318.75,1.0,C1O[C@H]1[C@H]1CO1,le15
Crotonicacid,361.0,1.0,C/C=C/C(=O)O,le15
Ethenylacetate,265.0,1.0,C=CCC(=O)[O-],le15
gammaButyrolactone,371.0,1.0,O=C1CCCO1,le15
2-Imidazolidinone,475.66900000000004,1.0,O=C1NCCN1,le15
"Ethenamine, N-methyl-N-nitroso- (9CI)",318.65,1.0,C=CN(C)N=O,le15
"Butyraldehyde, 2-methyl-",277.15,1.0,CCC(C)C=O,le15
cyclopentanol,324.15,1.0,OC1CCCC1,le15
"Furan, 2-methyl-tetrahydro-",262.15,1.0,CC1CCCO1,le15
2-Pentanone,280.35,1.0,CCCC(C)=O,le15
Valeraldehyde,285.35,1.0,CCCCC=O,le15
oxane,258.15,1.0,C1CCOCC1,le15
"2-Buten-1-ol, 3-methyl-",316.15,1.0,CC(C)=CCO,le15
"Butyraldehyde, 3-methyl-",268.15,1.0,CC(C)CC=O,le15
1-Penten-3-ol,298.15,1.0,C=CC(O)CC,le15
4-Penten-2-ol,298.75,1.0,C=CCC(C)O,le15
"2,2-dimethylpropanal",258.15,1.0,CC(C)(C)C=O,le15
"3-Buten-1-ol, 3-methyl-",313.25,1.0,C=C(C)CCO,le15
1-ethenoxypropane,247.05,1.0,C=COCCC,le15
1-cyclopropylethanol,303.75,1.0,CC(O)C1CC1,le15
Pent-4-en-1-ol,316.15,1.0,C=CCCCO,le15
3-Penten-2-ol,300.95,1.0,CC=CC(C)O,le15
"2-Penten-1-ol, (2Z)-",323.75,1.0,CC/C=C\CO,le15
(E)-pent-2-en-1-ol,323.75,1.0,CC/C=C/CO,le15
3-methylbut-3-en-2-ol,302.75,1.0,C=C(C)C(C)O,le15
3-Pentanone,285.95,1.0,CCC(=O)CC,le15
"3-Butyn-2-ol, 2-methyl- (8CI,9CI)",285.95,1.0,C#CC(C)(C)O,le15
"1-Propene, 1-ethoxy- (9CI)",254.25,1.0,CC=COCC,le15
3methyl2butanone,279.0,1.0,CC(=O)C(C)C,le15
3pentanone,286.0,1.0,CCC(=O)CC,le15
Pentanal,281.0,1.0,CCCCC=O,le15
Piperazine,322.85,1.0,C1CNCCN1,le15
"2,5-dihydrothiophene",296.65,1.0,C1=CCSC1,le15
"Butane, 2,2-dimethyl-",225.15,1.0,CCC(C)(C)C,le15
"Pentane, 3-methyl-",267.15,1.0,CCC(C)CC,le15
"Pentane, 2-methyl-",241.15,1.0,CCCC(C)C,le15
2methylpentane,250.0,1.0,CCCC(C)C,le15
3methylpentane,267.0,1.0,CCC(C)CC,le15
Oxirane-2-carboxamide,513.95,1.0,NC(=O)C1CO1,le15
"2-Butanone, oxime",333.15,1.0,CCC(C)=NO,le15
Butyraldehyde oxime,331.15,1.0,CCCC=NO,le15
Morpholine,308.75,1.0,C1COCCN1,le15
butanamide,361.05,1.0,CCCC(N)=O,le15
2-methylpropanamide,360.85,1.0,CC(C)C(N)=O,le15
N-ethylacetamide,378.55,1.0,CCNC(C)=O,le15
N-methylpropanamide,378.55,1.0,CCC(=O)NC,le15
Morpholine,308.0,1.0,C1COCCN1,le15
"Isothiocyanic acid, ethyl ester",305.35,1.0,CCN=C=S,le15
ethyl thiocyanate,295.15,1.0,CCSC#N,le15
"1-Butanamine, 2-methyl-",276.45,1.0,CCC(C)CN,le15
"1-Butanamine, N-methyl-",274.85,1.0,CCCCNC,le15
"Propylamine, 1,2-dimethyl-",245.35,1.0,CC(C)C(C)N,le15
"Propylamine, 1-ethyl- (8CI)",275.35,1.0,CCC(N)CC,le15
"Ethanamine, N-ethyl-N-methyl-",275.35,1.0,CCN(C)CC,le15
"N,N-dimethylpropan-2-amine",264.15,1.0,CC(C)N(C)C,le15
"1-Butanamine, 3-methyl-",291.45,1.0,CC(C)CCN,le15
1-Pentanamine,277.54999999999995,1.0,CCCCCN,le15
N-ethylpropan-2-amine,289.25,1.0,CCNC(C)C,le15
"2-Propenenitrile, 2-chloro-",279.85,1.0,C=C(Cl)C#N,le15
2-oxopropanoic acid,327.45,1.0,CC(=O)C(=O)O,le15
Ethanediamide,385.85,1.0,NC(=O)C(N)=O,le15
"Ethanedial, dioxime",329.35,1.0,ON=CC=NO,le15
"Hydrazine, 1,2-diformyl- (8CI)",354.75,1.0,O=CNNC=O,le15
"Propanoic acid, 2-methyl-",331.35,1.0,CC(C)C(=O)O,le15
"Butyraldehyde, 3-hydroxy-",331.85,1.0,CC(O)CC=O,le15
Butanoic acid,342.15,1.0,CCCC(=O)O,le15
Acetic acid ethyl ester,269.15,1.0,CCOC(C)=O,le15
oxolan-3-ol,354.25,1.0,OC1CCOC1,le15
"but-3-ene-1,2-diol",362.45,1.0,C=CC(O)CO,le15
"1,3-Dioxolane, 2-methyl-",271.15,1.0,CC1OCCO1,le15
"2-Butanone, 3-hydroxy-",322.85,1.0,CC(=O)C(C)O,le15
"Ethanol, 2-(ethenyloxy)- (9CI)",323.15,1.0,C=COCCO,le15
"Propane, 1,2-epoxy-3-methoxy-",281.25,1.0,COCC1CO1,le15
1-hydroxybutan-2-one,333.15,1.0,CCC(=O)CO,le15
"(Z)-2-Butene-1,4-diol",401.15,1.0,OC/C=C\CO,le15
"1,4-Dioxane",285.35,1.0,C1COCCO1,le15
"Propanoic acid, methyl ester",271.15,1.0,CCC(=O)OC,le15
2methylpropanoicacid,329.0,1.0,CC(C)C(=O)O,le15
"Urea, N,N'-dimethyl-",397.45,1.0,CNC(=O)NC,le15
"Ethylamine, N-methyl-N-nitroso-",320.35,1.0,CCN(C)N=O,le15
Pentyl alcohol,322.0499999999999,1.0,CCCCCO,le15
"1-Propanol, 2,2-dimethyl-",310.15,1.0,CC(C)(C)CO,le15
Isopentyl alcohol (8CI),318.75,1.0,CC(C)CCO,le15
3-Pentanol,313.15,1.0,CCC(O)CC,le15
"Propane, 2-methoxy-2-methyl-",245.15,1.0,COC(C)(C)C,le15
2-Pentanol,307.15,1.0,CCCC(C)O,le15
2-methoxybutane,243.15,1.0,CCC(C)OC,le15
"2-Butanol, 2-methyl-",294.25,1.0,CCC(C)(C)O,le15
1methoxybutane,263.0,1.0,CCCCOC,le15
2methoxybutane,243.0,1.0,CCC(C)OC,le15
2methyl1butanol,316.0,1.0,CCC(C)CO,le15
2methyl2butanol,294.0,1.0,CCC(C)(C)O,le15
2pentanol,313.0,1.0,CCCC(C)O,le15
3methyl1butanol,316.0,1.0,CC(C)CCO,le15
3methyl2butanol,312.0,1.0,CC(C)C(C)O,le15
3pentanol,313.0,1.0,CCC(O)CC,le15
EthylPropylEther,253.0,1.0,CCCOCC,le15
"Ethylenediamine, N,N-dimethyl- (8CI)",297.0499999999999,1.0,CN(C)CCN,le15
"1,2-Ethanediamine, N1-ethyl-",283.15,1.0,CCNCCN,le15
1-Methyltrimethylenediamine,309.65,1.0,CC(N)CCN,le15
"Hydrazine, 1,1-diethyl-",295.95,1.0,CCN(N)CC,le15
Tetramethylenediamine,324.85,1.0,NCCCCN,le15
"1,3-Propanediamine, N-methyl-",313.15,1.0,CNCCCN,le15
3-methylsulfanylprop-1-ene,291.45,1.0,C=CCSC,le15
"Thiophene, tetrahydro-",285.95,1.0,C1CCSC1,le15
Thiacyclopentane,285.0,1.0,C1CCSC1,le15
diethylsilicon,244.25,1.0,CC[Si]CC,le15
"4-chlorobuta-1,2-diene",273.65,1.0,C=C=CCCl,le15
"Carbamic acid, ethyl ester",370.35,1.0,CCOC(N)=O,le15
2-aminobutan-1-ol,355.35,1.0,CCC(N)CO,le15
"Ethanol, 2-(dimethylamino)-",313.75,1.0,CN(C)CCO,le15
"1-Propanol, 2-amino-2-methyl-",340.35,1.0,CC(C)(N)CO,le15
"N,N-diethylhydroxylamine",318.15,1.0,CCN(O)CC,le15
"1-Propanamine, 3-methoxy-",295.95,1.0,COCCCN,le15
"1-Butanol, 4-amino-",380.95,1.0,NCCCCO,le15
1-aminobutan-2-ol,334.15,1.0,CCC(O)CN,le15
"Ethanol, 2-(ethylamino)-",351.15,1.0,CCNCCO,le15
2-ethoxyethanamine,290.85,1.0,CCOCCN,le15
2dimethylaminoethanol,313.0,1.0,CN(C)CCO,le15
Thiazolidine,329.25,1.0,C1CSCN1,le15
"Propanenitrile, 3-chloro-",348.75,1.0,N#CCCCl,le15
2-Chloropropionitrile,306.45,1.0,CC(Cl)C#N,le15
"Propanoic acid, 2-hydroxy-",383.086,1.0,CC(O)C(=O)O,le15
"2-Propanone, 1,3-dihydroxy-",370.45,1.0,O=C(CO)CO,le15
"Carbonic acid, dimethyl ester",291.15,1.0,COC(=O)OC,le15
"Acetic acid, 2-methoxy-",394.15,1.0,COCC(=O)O,le15
"Propanoic acid, 2-hydroxy-, (S)- (9CI)",383.05,1.0,C[C@H](O)C(=O)O,le15
methyl 2-hydroxyacetate,340.35,1.0,COC(=O)CO,le15
Dimethylcarbonate,291.0,1.0,COC(=O)OC,le15
"Carbazic acid, methyl ester (8CI)",359.25,1.0,COC(=O)NN,le15
"Hydroperoxide, 1,1-dimethylethyl",308.15,1.0,CC(C)(C)OO,le15
"1,3-Butanediol",394.25,1.0,CC(O)CCO,le15
"2-Propanol, 1-methoxy-",344.95,1.0,COCC(C)O,le15
"Ethane, 1,2-dimethoxy-",273.15,1.0,COCCOC,le15
"Ethanol, 2-ethoxy-",317.15,1.0,CCOCCO,le15
"2-methylpropane-1,2-diol",346.85,1.0,CC(C)(O)CO,le15
"1,2-Butanediol",366.45,1.0,CCC(O)CO,le15
2-methoxypropan-1-ol,315.0499999999999,1.0,COC(C)CO,le15
"1-Propanol, 3-methoxy-",325.95,1.0,COCCCO,le15
"2-methylpropane-1,3-diol",375.65,1.0,CC(CO)CO,le15
1methoxy2propanol,311.0,1.0,COCC(C)O,le15
"2-Propanol, 1,3-diamino-",370.05,1.0,NCC(O)CN,le15
"Pseudourea, 1-methyl-2-thio- (7CI)",312.25,1.0,CNC(=N)S,le15
"Ethane, 1,1'-thiobis-",263.15,1.0,CCSCC,le15
1-methylsulfanylpropane,273.15,1.0,CCCSC,le15
"2-Propanethiol, 2-methyl-",249.15,1.0,CC(C)(C)S,le15
2butanethiol,250.0,1.0,CCC(C)S,le15
2methyl2propanethiol,247.0,1.0,CC(C)(C)S,le15
prop-2-enoyl chloride,289.25,1.0,C=CC(=O)Cl,le15
"1-Propene, 3-chloro-2-methyl-",260.35,1.0,C=C(C)CCl,le15
(Z)-2-chlorobut-2-ene,254.15,1.0,C/C=C(/C)Cl,le15
(Z)-1-chlorobut-2-ene,378.55,1.0,C/C=C\CCl,le15
(E)-1-chlorobut-2-ene,261.15,1.0,C/C=C/CCl,le15
(E)-1-chlorobut-2-ene,258.15,1.0,C/C=C/CCl,le15
chloromethylcyclopropane,271.45,1.0,ClCC1CC1,le15
3chloro2methyl1propene,261.0,1.0,C=C(C)CCl,le15
"1,3-Propanediol, 2-amino-",388.25,1.0,NC(CO)CO,le15
Hydrazinecarbothioamide,353.15,1.0,NNC(N)=S,le15
"Acetic acid, fluoro-, methyl ester",290.75,1.0,COC(=O)CF,le15
Glycerol,457.0,1.0,OCC(O)CO,le15
"Acetic acid, mercapto-",372.95,1.0,O=C(O)CS,le15
"Benzene, methyl-",283.15,1.0,Cc1ccccc1,le15
"Bicyclo(2.2.1)hepta-2,5-diene",262.04999999999995,1.0,C1=CC2C=CC1C2,le15
"1,3,5-Cycloheptatriene",299.85,1.0,C1=CC=CCC=C1,le15
"2-Propanone, 1-chloro-",300.95,1.0,CC(=O)CCl,le15
"Propane, 1-chloro-2,3-epoxy-",307.0499999999999,1.0,ClCC1CO1,le15
3-chloropropanal,299.5499999999999,1.0,O=CCCCl,le15
PropanoylChloride,285.0,1.0,CCC(=O)Cl,le15
2-chloro-2-methylpropane,291.45,1.0,CC(C)(C)Cl,le15
"2-chloro-1,1,1,3,3,3-hexadeuterio-2-(trideuteriomethyl)propane",291.45,1.0,[2H]C([2H])([2H])C(Cl)(C([2H])([2H])[2H])C([2H])([2H])[2H],le15
1chloro2methylpropane,294.0,1.0,CC(C)CCl,le15
1chlorobutane,267.0,1.0,CCCCCl,le15
2chloro2methylpropane,291.0,1.0,CC(C)(C)Cl,le15
furan-2-carbonitrile,308.15,1.0,N#Cc1ccco1,le15
Benzenamine,349.15,1.0,Nc1ccccc1,le15
"Pyridine, 4-methyl-",313.15,1.0,Cc1ccncc1,le15
"Pyridine, 3-methyl-",309.261,1.0,Cc1cccnc1,le15
"Pyridine, 2-methyl-",299.261,1.0,Cc1ccccn1,le15
2chloropyridine,339.0,1.0,Clc1ccccn1,le15
3picoline,313.0,1.0,Cc1cccnc1,le15
4methylpyridine,310.0,1.0,Cc1ccncc1,le15