compound,flashpoint,pure substance,smiles,source
"Ethane, 1,1-diethoxy-",286.1,1.0,CCOC(C)OCC,didier14
"2,4-Dimethylphenol",368.1,1.0,Cc1ccc(O)c(C)c1,didier14
3-Heptanone,310.1,1.0,CCCCC(=O)CC,didier14
"1,4-Dimethylbenzene",299.0,1.0,Cc1ccc(C)cc1,didier14
p-Toluidine,360.0,1.0,Cc1ccc(N)cc1,didier14
Isobutyl acrylate,304.3,1.0,C=CC(=O)OCC(C)C,didier14
"Pentane, 3,3-diethyl-",294.0,1.0,CCC(CC)(CC)CC,didier14
"1,3-Butadiene",197.2,1.0,C=CC=C,didier14
1-Propanethiol,253.2,1.0,CCCS,didier14
Propanenitrile,279.1,1.0,CCC#N,didier14
"Heptane, 2,2-dimethyl-",292.1,1.0,CCCCCC(C)(C)C,didier14
"1,2-Ethanediamine",311.0,1.0,NCCN,didier14
"Octane, 2,7-dimethyl-",310.9,1.0,CC(C)CCCCC(C)C,didier14
1-Phenylhexane,356.1,1.0,CCCCCCc1ccccc1,didier14
"Benzene, heptyl-",370.6,1.0,CCCCCCCc1ccccc1,didier14
2-Pentanone,280.0,1.0,CCCC(C)=O,didier14
Butyric acid,345.1,1.0,CCCC(=O)O,didier14
"2-Pentanol, 4-methyl-",314.0,1.0,CC(C)CC(C)O,didier14
Diisopropylamine,266.1,1.0,CC(C)NC(C)C,didier14
Isopropyl ether,245.0,1.0,CC(C)OC(C)C,didier14
"1,3-Dimethylbenzene",298.1,1.0,Cc1cccc(C)c1,didier14
"Phenol, 3-methyl-",359.1,1.0,Cc1cccc(O)c1,didier14
m-Toluidine,359.0,1.0,Cc1cccc(N)c1,didier14
"Pyridine, 2,6-dimethyl-",306.0,1.0,Cc1cccc(C)n1,didier14
Mesitylene,317.6,1.0,Cc1cc(C)cc(C)c1,didier14
"Cyclohexane, methyl-",269.1,1.0,CC1CCCCC1,didier14
Toluene,279.1,1.0,Cc1ccccc1,didier14
"Pyridine, 4-methyl-",312.1,1.0,Cc1ccncc1,didier14
Cyclohexanamine,299.6,1.0,NC1CCCCC1,didier14
Phenol,352.1,1.0,Oc1ccccc1,didier14
"Pyridine, 3-methyl-",309.1,1.0,Cc1cccnc1,didier14
"Pyridine, 2-methyl-",299.1,1.0,Cc1ccccn1,didier14
"Butanoic acid, butyl ester",323.1,1.0,CCCCOC(=O)CCC,didier14
Valeric acid,359.1,1.0,CCCCC(=O)O,didier14
Propyl acetate,283.7,1.0,CCCOC(C)=O,didier14
Pentane,224.2,1.0,CCCCC,didier14
1-Pentene,222.0,1.0,C=CCCC,didier14
1-Chlorobutane,263.8,1.0,CCCCCl,didier14
Butanenitrile,291.1,1.0,CCCC#N,didier14
"1,3-Diaminopropane",322.1,1.0,NCCCN,didier14
Butanethiol,274.1,1.0,CCCCS,didier14
"Ethanol, 2-methoxy-",312.1,1.0,COCCO,didier14
"2-Hexanone, 5-methyl-",308.1,1.0,CC(=O)CCC(C)C,didier14
Isobutyl acetate,291.0,1.0,CC(=O)OCC(C)C,didier14
2-Heptanone,312.1,1.0,CCCCCC(C)=O,didier14
Amylamine,280.1,1.0,CCCCCN,didier14
Valeraldehyde,285.1,1.0,CCCCC=O,didier14
1-Pentanethiol,291.1,1.0,CCCCCS,didier14
"1,2-Dimethoxyethane",271.5,1.0,COCCOC,didier14
Pyridine,293.1,1.0,c1ccncc1,didier14
2-Octanone,329.1,1.0,CCCCCCC(C)=O,didier14
Heptanoic acid,388.1,1.0,CCCCCCC(=O)O,didier14
Pimelic acid,423.1,1.0,O=C(O)CCCCCC(=O)O,didier14
1-Hexanamine,300.1,1.0,CCCCCCN,didier14
Hexyl alcohol,333.1,1.0,CCCCCCO,didier14
1-Hexanethiol,305.6,1.0,CCCCCCS,didier14
n-Butylvinylether,272.0,1.0,C=COCCCC,didier14
Octane,287.1,1.0,CCCCCCCC,didier14
1-Octene,284.6,1.0,C=CCCCCCC,didier14
Heptaldehyde,308.1,1.0,CCCCCCC=O,didier14
Nonane,304.1,1.0,CCCCCCCCC,didier14
1-Octanol,359.7,1.0,CCCCCCCCO,didier14
"Ethanol, 2-(2-ethoxyethoxy)-",363.1,1.0,CCOCCOCCO,didier14
"1-Butanamine, N-butyl-",315.0,1.0,CCCCNCCCC,didier14
Undecane,339.1,1.0,CCCCCCCCCCC,didier14
Acetic acid octyl ester,356.1,1.0,CCCCCCCCOC(C)=O,didier14
Decyl alcohol,377.1,1.0,CCCCCCCCCCO,didier14
Decanal,358.1,1.0,CCCCCCCCCC=O,didier14
1-Dodecene,346.1,1.0,C=CCCCCCCCCCC,didier14
1-Undecanol,386.1,1.0,CCCCCCCCCCCO,didier14
Undecanal,369.1,1.0,CCCCCCCCCCC=O,didier14
1-Dodecanol,400.0,1.0,CCCCCCCCCCCCO,didier14
1-Tetradecanol,421.1,1.0,CCCCCCCCCCCCCCO,didier14
1-Octadecene,421.1,1.0,C=CCCCCCCCCCCCCCCCC,didier14
Triethylamine,262.1,1.0,CCN(CC)CC,didier14
"N,N-Dimethylaniline",348.1,1.0,CN(C)c1ccccc1,didier14
4-Heptanone,307.1,1.0,CCCC(=O)CCC,didier14
Propionaldehyde,243.2,1.0,CCC=O,didier14
"1-Butanol, 3-methyl-",316.0,1.0,CC(C)CCO,didier14
Butyraldehyde,262.1,1.0,CCCC=O,didier14
Butyl acetate,298.1,1.0,CCCCOC(C)=O,didier14
2-Octanol,344.1,1.0,CCCCCCC(C)O,didier14
Octanoic acid,400.1,1.0,CCCCCCCC(=O)O,didier14
"1,6-Hexanediamine",354.1,1.0,NCCCCCCN,didier14
1-Nonene,299.1,1.0,C=CCCCCCCC,didier14
Octanal,324.1,1.0,CCCCCCCC=O,didier14
Decane,322.9,1.0,CCCCCCCCCC,didier14
1-Nonanal,336.1,1.0,CCCCCCCCC=O,didier14
Dimethylamine,223.2,1.0,CNC,didier14
1-Pentadecene,385.1,1.0,C=CCCCCCCCCCCCCC,didier14
"1,2-Diethylbenzene",330.4,1.0,CCc1ccccc1CC,didier14
"1-Butanol, 2-methyl-",316.1,1.0,CCC(C)CO,didier14
sec-Butylamine,254.2,1.0,CCC(C)N,didier14
Ethyl acetate,269.0,1.0,CCOC(C)=O,didier14
"1,3-Diethylbenzene",329.0,1.0,CCc1cccc(CC)c1,didier14
Hexanoic acid,375.1,1.0,CCCCCC(=O)O,didier14
Dipropylamine,280.6,1.0,CCCNCCC,didier14
Lauric acid,437.0,1.0,CCCCCCCCCCCC(=O)O,didier14
1-Nonanol,369.1,1.0,CCCCCCCCCO,didier14
NONYL ACETATE,372.1,1.0,CCCCCCCCCOC(C)=O,didier14
"Hexanoicacid, 2-ethyl-",383.1,1.0,CCCCC(CC)C(=O)O,didier14
1-PROPOXY-2-PROPANOL,321.1,1.0,CCCOCC(C)O,didier14
"Heptane, 3-ethyl-",296.1,1.0,CCCCC(CC)CC,didier14
"Nonane, 5-methyl-",312.0,1.0,CCCCC(C)CCCC,didier14
1-Heptanethiol,323.6,1.0,CCCCCCCS,didier14
"Cyclopentane, ethyl-",273.1,1.0,CCC1CCCC1,didier14
"Cyclohexane, ethyl-",291.1,1.0,CCC1CCCCC1,didier14
"Cyclohexane, butyl-",325.6,1.0,CCCCC1CCCCC1,didier14
"Nonane, 4-methyl-",317.1,1.0,CCCCCC(C)CCC,didier14
"Octane, 3-methyl-",298.6,1.0,CCCCCC(C)CC,didier14
"Octane, 4-methyl-",296.1,1.0,CCCCC(C)CCC,didier14
"Ethanol, 2-propoxy-",322.1,1.0,CCCOCCO,didier14
"Octane, 2-methyl-",299.1,1.0,CCCCCCC(C)C,didier14
Decanoic acid,421.1,1.0,CCCCCCCCCC(=O)O,didier14
"1-Hexene, 3-methyl-",267.1,1.0,C=CC(C)CCC,didier14
"1,2,3,4-Tetramethylbenzene",347.1,1.0,Cc1ccc(C)c(C)c1C,didier14
5-Nonanone,338.1,1.0,CCCCC(=O)CCCC,didier14
1-Butoxy-2-propanol,332.1,1.0,CCCCOCC(C)O,didier14
"2-Butene, 2-methyl-",228.2,1.0,CC=C(C)C,didier14
"1,2,3-Trimethylbenzene",324.1,1.0,Cc1cccc(C)c1C,didier14
"2,3-Dimethylphenol",368.1,1.0,Cc1cccc(O)c1C,didier14
"Benzene, pentyl-",339.1,1.0,CCCCCc1ccccc1,didier14
2-Heptanol,332.1,1.0,CCCCCC(C)O,didier14
"Pentane, 1-chloro-",284.1,1.0,CCCCCCl,didier14
Hexadecane,407.1,1.0,CCCCCCCCCCCCCCCC,didier14
"1-Butene, 3,3-dimethyl-",241.2,1.0,C=CC(C)(C)C,didier14
"1-Butene, 3-methyl-",217.2,1.0,C=CC(C)C,didier14
"2-Butene, 2,3-dimethyl-",257.1,1.0,CC(C)=C(C)C,didier14
3-Methyl-2-butanone,272.1,1.0,CC(=O)C(C)C,didier14
"2-Pentanone, 3-methyl-",285.1,1.0,CCC(C)C(C)=O,didier14
"3-Pentanone, 2-methyl-",286.1,1.0,CCC(=O)C(C)C,didier14
Stearic acid,469.0,1.0,CCCCCCCCCCCCCCCCCC(=O)O,didier14
"2,6-Dimethylphenol",358.1,1.0,Cc1cccc(C)c1O,didier14
"Hexane, 3,4-dimethyl-",280.6,1.0,CCC(C)C(C)CC,didier14
3-Pentanol,303.1,1.0,CCC(O)CC,didier14
"1-Pentanol, 3-methyl-",331.1,1.0,CCC(C)CCO,didier14
"Hexane, 2,4-dimethyl-",276.1,1.0,CCC(C)CC(C)C,didier14
"Heptane, 4-methyl-",279.1,1.0,CCCC(C)CCC,didier14
"Heptane, 3-methyl-",279.1,1.0,CCCCC(C)CC,didier14
"Nonane, 3-methyl-",319.1,1.0,CCCCCCC(C)CC,didier14
2-Hexanone,296.1,1.0,CCCCC(C)=O,didier14
Allyl acetate,283.0,1.0,C=CCOC(C)=O,didier14
"Hexane, 2,5-dimethyl-",275.1,1.0,CC(C)CCC(C)C,didier14
"Heptane, 2-methyl-",279.1,1.0,CCCCCC(C)C,didier14
1-Hexene,247.2,1.0,C=CCCCC,didier14
1-Heptene,265.1,1.0,C=CCCCCC,didier14
"2,2-Dimethylbutyric acid",352.1,1.0,CCC(C)(C)C(=O)O,didier14
"2-Butanol, 3-methyl-",299.1,1.0,CC(C)C(C)O,didier14
Diethyl ether,228.2,1.0,CCOCC,didier14
2-Pentanol,307.1,1.0,CCCC(C)O,didier14
"1-Hexene, 2-methyl-",267.1,1.0,C=C(C)CCCC,didier14
"Hexane, 3-ethyl-",278.0,1.0,CCCC(CC)CC,didier14
m-Ethyltoluene,311.1,1.0,CCc1cccc(C)c1,didier14
"Cyclohexane, 1,4-dimethyl-, cis-",284.3,1.0,C[C@H]1CC[C@@H](C)CC1,didier14
Aniline,344.1,1.0,Nc1ccccc1,didier14
2-Hexanol,318.1,1.0,CCCCC(C)O,didier14
"Propane, 1-ethoxy-",253.2,1.0,CCCOCC,didier14
Amyl acetate,310.1,1.0,CCCCCOC(C)=O,didier14
Hexanenitrile,316.1,1.0,CCCCCC#N,didier14
Tridecane,363.1,1.0,CCCCCCCCCCCCC,didier14
Tetradecane,382.4,1.0,CCCCCCCCCCCCCC,didier14
1-Hexadecene,402.1,1.0,C=CCCCCCCCCCCCCCC,didier14
Heptadecane,421.1,1.0,CCCCCCCCCCCCCCCCC,didier14
Nonadecane,441.0,1.0,CCCCCCCCCCCCCCCCCCC,didier14
Ethanol,286.1,1.0,CCO,didier14
Benzoic acid,394.3,1.0,O=C(O)c1ccccc1,didier14
1-HEXANAL,300.0,1.0,CCCCCC=O,didier14
Isopropanol,285.1,1.0,CC(C)O,didier14
1-Propanol,297.6,1.0,CCCO,didier14
1-Butanol,310.5,1.0,CCCCO,didier14
1-Pentanol,322.1,1.0,CCCCCO,didier14
Benzene,262.0,1.0,c1ccccc1,didier14
"Pentane, 2,2,3,3-tetramethyl-",294.6,1.0,CCC(C)(C)C(C)(C)C,didier14
"3,3,5-Trimethylheptane",304.0,1.0,CCC(C)CC(C)(C)CC,didier14
Dimethyl sulfide,237.2,1.0,CSC,didier14
2-Chloropropane,238.2,1.0,CC(C)Cl,didier14
Isopropylamine,236.2,1.0,CC(C)N,didier14
2-Propanethiol,239.0,1.0,CC(C)S,didier14
"Ethane, 1,1-dichloro-",263.1,1.0,CC(Cl)Cl,didier14
tert-Butanol,284.3,1.0,CC(C)(C)O,didier14
"2-Butanol, 2-methyl-",292.1,1.0,CCC(C)(C)O,didier14
Pinacolone,282.1,1.0,CC(=O)C(C)(C)C,didier14
"1-Pentene, 3-methyl-",245.2,1.0,C=CC(C)CC,didier14
"3-Pentanol, 3-methyl-",297.1,1.0,CCC(C)(O)CC,didier14
"1,2-Dimethoxypropane",273.1,1.0,COCC(C)OC,didier14
2-Methyl-1-propanol,302.3,1.0,CC(C)CO,didier14
"Butane, 2-chloro-",258.1,1.0,CCC(C)Cl,didier14
sec-Butanol,296.1,1.0,CCC(C)O,didier14
Methyl acetate,260.1,1.0,COC(C)=O,didier14
2-Nonanone,345.5,1.0,CCCCCCCC(C)=O,didier14
"1,1':2',1''-Terphenyl",436.0,1.0,c1ccc(-c2ccccc2-c2ccccc2)cc1,didier14
"Nonane, 2-methyl-",314.0,1.0,CCCCCCCC(C)C,didier14
1-Decene,320.1,1.0,C=CCCCCCCCC,didier14
"Phenol, 2-ethyl-",358.1,1.0,CCc1ccccc1O,didier14
3-Nonanone,339.1,1.0,CCCCCCC(=O)CC,didier14
6-Undecanone,361.5,1.0,CCCCCC(=O)CCCCC,didier14
p-Terphenyl,480.0,1.0,c1ccc(-c2ccc(-c3ccccc3)cc2)cc1,didier14
"1,2-Dimethylbenzene",305.1,1.0,Cc1ccccc1C,didier14
"Benzenamine, 2-methyl-",358.1,1.0,Cc1ccccc1N,didier14
"1,2,4-TRIMETHYL BENZENE",318.6,1.0,Cc1ccc(C)c(C)c1,didier14
"1,2,4,5-Tetramethylbenzene",346.1,1.0,Cc1cc(C)c(C)cc1C,didier14
3-Pentanone,280.1,1.0,CCC(=O)CC,didier14
2-Ethyl-1-butanol,326.1,1.0,CCC(CC)CO,didier14
p-DIMETHYLAMINOBENZALDEHYDE,420.1,1.0,CN(C)c1ccc(C=O)cc1,didier14
p-DIISOPROPYLBENZENE,354.1,1.0,CC(C)c1ccc(C(C)C)cc1,didier14
3-METHYLUNDECANE,344.0,1.0,CCCCCCCCC(C)CC,didier14
n-PENTADECANOIC ACID,454.0,1.0,CCCCCCCCCCCCCCC(=O)O,didier14
DIETHYLETHANOLAMINE,321.1,1.0,CCN(CC)CCO,didier14
STYRENE,305.0,1.0,C=Cc1ccccc1,didier14
BENZYL CHLORIDE,333.1,1.0,ClCc1ccccc1,didier14
BENZYLAMINE,333.1,1.0,NCc1ccccc1,didier14
BENZONITRILE,344.1,1.0,N#Cc1ccccc1,didier14
BENZYL ALCOHOL,366.1,1.0,OCc1ccccc1,didier14
BENZALDEHYDE,335.1,1.0,O=Cc1ccccc1,didier14
BENZYL MERCAPTAN,343.1,1.0,SCc1ccccc1,didier14
NICOTINONITRILE,357.1,1.0,N#Cc1cccnc1,didier14
ANISOLE,325.1,1.0,COc1ccccc1,didier14
METHYL PHENYL SULFIDE,342.0,1.0,CSc1ccccc1,didier14
m-METHYLSTYRENE,324.1,1.0,C=Cc1cccc(C)c1,didier14
"1,4-DI-tert-BUTYLBENZENE",361.0,1.0,CC(C)(C)c1ccc(C(C)(C)C)cc1,didier14
DIPHENYLMETHANE,403.1,1.0,c1ccc(Cc2ccccc2)cc1,didier14
"1,3,5-TRIETHYLBENZENE",354.1,1.0,CCc1cc(CC)cc(CC)c1,didier14
TRIPROPYLAMINE,302.0,1.0,CCCN(CCC)CCC,didier14
TRIALLYLAMINE,304.0,1.0,C=CCN(CC=C)CC=C,didier14
TRI-n-BUTYLAMINE,359.3,1.0,CCCCN(CCCC)CCCC,didier14
2-ETHYLHEXYL ACETATE,344.1,1.0,CCCCC(CC)COC(C)=O,didier14
2-ETHYLHEXYL ACRYLATE,355.1,1.0,C=CC(=O)OCC(CC)CCCC,didier14
"1,2-DIPHENYLETHANE",402.0,1.0,c1ccc(CCc2ccccc2)cc1,didier14
trans-STILBENE,418.0,1.0,C(=C/c1ccccc1)\c1ccccc1,didier14
DIBENZYL ETHER,408.1,1.0,c1ccc(COCc2ccccc2)cc1,didier14
PHENETOLE,325.0,1.0,CCOc1ccccc1,didier14
ANETHOLE,362.1,1.0,CC=Cc1ccc(OC)cc1,didier14
n-BUTYLBENZENE,323.1,1.0,CCCCc1ccccc1,didier14
BENZYL FORMATE,355.0,1.0,O=COCc1ccccc1,didier14
n-DECYLBENZENE,380.0,1.0,CCCCCCCCCCc1ccccc1,didier14
TRIDECANAL,390.0,1.0,CCCCCCCCCCCCC=O,didier14
p-TOLUALDEHYDE,353.0,1.0,Cc1ccc(C=O)cc1,didier14
2-METHYL-1-UNDECANOL,392.0,1.0,CCCCCCCCCC(C)CO,didier14
VINYL PROPIONATE,274.0,1.0,C=COC(=O)CC,didier14
DIETHYL CARBONATE,298.1,1.0,CCOC(=O)OCC,didier14
BUTYRIC ANHYDRIDE,355.0,1.0,CCCC(=O)OC(=O)CCC,didier14
p-CHLOROTOLUENE,325.0,1.0,Cc1ccc(Cl)cc1,didier14
3-OCTANONE,316.1,1.0,CCCCCC(=O)CC,didier14
n-BUTANE,199.2,1.0,CCCC,didier14
1-BUTENE,193.2,1.0,C=CCC,didier14
ACROLEIN,247.2,1.0,C=CC=O,didier14
3-CHLOROPROPENE,241.2,1.0,C=CCCl,didier14
n-PROPYLAMINE,261.0,1.0,CCCN,didier14
ALLYLAMINE,244.3,1.0,C=CCN,didier14
ACRYLONITRILE,273.1,1.0,C=CC#N,didier14
"2,2,5,5-TETRAMETHYLHEXANE",289.0,1.0,CC(C)(C)CCC(C)(C)C,didier14
ALLYL ALCOHOL,294.0,1.0,C=CCO,didier14
"2,6-DIMETHYLHEPTANE",299.0,1.0,CC(C)CCCC(C)C,didier14
METHYL VINYL ETHER,217.2,1.0,C=COC,didier14
ACETALDOXIME,313.1,1.0,CC=NO,didier14
METHYL FORMATE,254.0,1.0,COC=O,didier14
"2,4,4-TRIMETHYL-1-PENTENE",267.1,1.0,C=C(C)CC(C)(C)C,didier14
"2,4,4-TRIMETHYL-2-PENTENE",272.1,1.0,CC(C)=CC(C)(C)C,didier14
1-METHYL-2-n-PROPYLBENZENE,326.0,1.0,CCCc1ccccc1C,didier14
1-METHYL-3-n-PROPYLBENZENE,325.0,1.0,CCCc1cccc(C)c1,didier14
1-METHYL-4-n-PROPYLBENZENE,326.0,1.0,CCCc1ccc(C)cc1,didier14
DI-tert-BUTYL SULFIDE,300.0,1.0,CC(C)(C)SC(C)(C)C,didier14
2-METHYLPENTANE,238.0,1.0,CCCC(C)C,didier14
trans-CROTONIC ACID,368.0,1.0,C/C=C/C(=O)O,didier14
DIMETHYLETHANOLAMINE,314.1,1.0,CN(C)CCO,didier14
VINYL ACETATE,265.0,1.0,C=COC(C)=O,didier14
"2,4-DIMETHYLPENTANE",261.0,1.0,CC(C)CC(C)C,didier14
n-NONYLBENZENE,372.0,1.0,CCCCCCCCCc1ccccc1,didier14
ISOPROPYL ACETATE,275.0,1.0,CC(=O)OC(C)C,didier14
1-METHYLVINYL ACETATE,283.0,1.0,C=C(C)OC(C)=O,didier14
ACETIC ANHYDRIDE,322.6,1.0,CC(=O)OC(C)=O,didier14
m-DIVINYLBENZENE,338.0,1.0,C=Cc1cccc(C=C)c1,didier14
ETHYL ISOVALERATE,298.1,1.0,CCOC(=O)CC(C)C,didier14
"3,5-XYLENOL",373.0,1.0,Cc1cc(C)cc(O)c1,didier14
"2,4,6-TRIMETHYLPYRIDINE",330.1,1.0,Cc1cc(C)nc(C)c1,didier14
"2,6-DIMETHYL-4-HEPTANOL",339.0,1.0,CC(C)CC(O)CC(C)C,didier14
MONOCHLOROBENZENE,305.0,1.0,Clc1ccccc1,didier14
PHENYL MERCAPTAN,346.1,1.0,Sc1ccccc1,didier14
5-HEXEN-2-ONE,296.1,1.0,C=CCCC(C)=O,didier14
n-BUTYLAMINE,261.0,1.0,CCCCN,didier14
VINYLACETONITRILE,296.1,1.0,C=CCC#N,didier14
DIVINYL ETHER,226.2,1.0,C=COC=C,didier14
ETHYL FORMATE,253.2,1.0,CCOC=O,didier14
DI-tert-BUTYL DISULFIDE,337.1,1.0,CC(C)(C)SSC(C)(C)C,didier14
TETRAMETHYLETHYLENEDIAMINE,283.1,1.0,CN(C)CCN(C)C,didier14
ISOPROPYL MYRISTATE,423.0,1.0,CCCCCCCCCCCCCC(=O)OC(C)C,didier14
VALERONITRILE,305.0,1.0,CCCCC#N,didier14
n-PROPYL FORMATE,270.0,1.0,CCCOC=O,didier14
ETHYLTHIOETHANOL,350.1,1.0,CCSC(C)O,didier14
DIETHYL DISULFIDE,313.1,1.0,CCSSCC,didier14
DIISOBUTYLAMINE,294.1,1.0,CC(C)CNCC(C)C,didier14
DI-n-PROPYL ETHER,294.1,1.0,CCCOCCC,didier14
DI-n-PROPYL SULFIDE,301.0,1.0,CCCSCCC,didier14
"3-METHYL-1,4-PENTADIENE",235.0,1.0,C=CC(C)C=C,didier14
TRI-n-OCTYLAMINE,457.0,1.0,CCCCCCCCN(CCCCCCCC)CCCCCCCC,didier14
n-HEPTYLAMINE,308.1,1.0,CCCCCCCN,didier14
1-HEPTANOL,345.0,1.0,CCCCCCCO,didier14
METHYL DODECANOATE,391.0,1.0,CCCCCCCCCCCC(=O)OC,didier14
n-OCTYLAMINE,333.0,1.0,CCCCCCCCN,didier14
n-OCTYL MERCAPTAN,341.1,1.0,CCCCCCCCS,didier14
1-TETRADECENE,370.0,1.0,C=CCCCCCCCCCCCC,didier14
DI-n-OCTYLAMINE,383.1,1.0,CCCCCCCCNCCCCCCCC,didier14
n-NONANOIC ACID,401.0,1.0,CCCCCCCCC(=O)O,didier14
n-HEPTYL ACETATE,340.0,1.0,CCCCCCCOC(C)=O,didier14
n-NONYLAMINE,335.1,1.0,CCCCCCCCCN,didier14
n-HEPTYL FORMATE,327.0,1.0,CCCCCCCOC=O,didier14
n-UNDECANOIC ACID,421.1,1.0,CCCCCCCCCCC(=O)O,didier14
2-PHENYL-1-PROPANOL,366.1,1.0,CC(CO)c1ccccc1,didier14
n-DODECANE,347.0,1.0,CCCCCCCCCCCC,didier14
DI-n-HEXYL ETHER,350.1,1.0,CCCCCCOCCCCCC,didier14
METHYL OLEATE,450.0,1.0,CCCCCCCC/C=C\CCCCCCCC(=O)OC,didier14
1-TRIDECANOL,394.0,1.0,CCCCCCCCCCCCCO,didier14
OLEIC ACID,462.0,1.0,CCCCCCCC/C=C\CCCCCCCC(=O)O,didier14
1-OCTADECANOL,450.0,1.0,CCCCCCCCCCCCCCCCCCO,didier14
n-EICOSANE,440.0,1.0,CCCCCCCCCCCCCCCCCCCC,didier14
ISOBUTENE,197.0,1.0,C=C(C)C,didier14
2-METHYLBUTYRIC ACID,348.0,1.0,CCC(C)C(=O)O,didier14
NEOHEPTANOIC ACID,366.0,1.0,CC(C)(C)CCC(=O)O,didier14
o-TOLUIC ACID,407.0,1.0,Cc1ccccc1C(=O)O,didier14
BENZOPHENONE,419.0,1.0,O=C(c1ccccc1)c1ccccc1,didier14
BENZYL BENZOATE,418.1,1.0,O=C(OCc1ccccc1)c1ccccc1,didier14
DIPHENYLAMINE,426.0,1.0,c1ccc(Nc2ccccc2)cc1,didier14
3-PHENYL-1-PROPANOL,373.1,1.0,OCCCc1ccccc1,didier14
n-DODECYLBENZENE,414.0,1.0,CCCCCCCCCCCCc1ccccc1,didier14
n-TRIDECYLBENZENE,438.0,1.0,CCCCCCCCCCCCCc1ccccc1,didier14
2-ETHYLHEXANAL,317.1,1.0,CCCCC(C=O)CC,didier14
"2,6,8-TRIMETHYL-4-NONANONE",356.0,1.0,CC(C)CC(=O)CC(C)CC(C)C,didier14
PROPIONIC ANHYDRIDE,336.0,1.0,CCC(=O)OC(=O)CC,didier14
trans-CROTONALDEHYDE,281.1,1.0,C/C=C/C=O,didier14
ISOPENTYL ACETATE,298.1,1.0,CC(=O)OCCC(C)C,didier14
DIALLYLAMINE,284.1,1.0,C=CCNCC=C,didier14
n-DODECYLAMINE,382.0,1.0,CCCCCCCCCCCCN,didier14
METHACRYLONITRILE,286.0,1.0,C=C(C)C#N,didier14
"2,6-DI-tert-BUTYL-p-CRESOL",390.1,1.0,Cc1cc(C(C)(C)C)c(O)c(C(C)(C)C)c1,didier14
4-METHYL-1-HEPTENE,275.0,1.0,C=CCC(C)CCC,didier14
7-METHYL-1-OCTENE,291.0,1.0,C=CCCCCC(C)C,didier14
DINONYLPHENOL,535.0,1.0,CCCCCCCCCc1cccc(O)c1CCCCCCCCC,didier14
METHYL t-PENTYL SULFIDE,302.0,1.0,CCC(C)(C)SC,didier14
"2,2,3,3-TETRAMETHYLHEXANE",302.0,1.0,CCCC(C)(C)C(C)(C)C,didier14
n-BUTYL BENZOATE,379.1,1.0,CCCCOC(=O)c1ccccc1,didier14
CINNAMIC ACID,445.0,1.0,O=C(O)C=Cc1ccccc1,didier14
BENZYL ACETATE,363.1,1.0,CC(=O)OCc1ccccc1,didier14
PHENYLACETONITRILE,374.1,1.0,N#CCc1ccccc1,didier14
p-tert-OCTYLPHENOL,406.0,1.0,CC(C)(C)CC(C)(C)c1ccc(O)cc1,didier14
ETHYL ACRYLATE,282.1,1.0,C=CC(=O)OCC,didier14
n-BUTYL ACRYLATE,312.0,1.0,C=CC(=O)OCCCC,didier14
tert-OCTYL MERCAPTAN,304.0,1.0,CC(C)(C)CC(C)(C)S,didier14
MESITYL OXIDE,301.0,1.0,CC(=O)C=C(C)C,didier14
ETHYL t-BUTYL SULFIDE,282.0,1.0,CCSC(C)(C)C,didier14
n-HEXYL ACETATE,310.1,1.0,CCCCCCOC(C)=O,didier14
DI-n-BUTYL ETHER,298.1,1.0,CCCCOCCCC,didier14
n-DECYL MERCAPTAN,371.1,1.0,CCCCCCCCCCS,didier14
1-NONADECANOL,458.0,1.0,CCCCCCCCCCCCCCCCCCCO,didier14
1-HEPTADECANOL,441.0,1.0,CCCCCCCCCCCCCCCCCO,didier14
n-NONYL MERCAPTAN,351.1,1.0,CCCCCCCCCS,didier14
n-HEXADECYLBENZENE,466.0,1.0,CCCCCCCCCCCCCCCCc1ccccc1,didier14
n-TETRADECYLBENZENE,447.0,1.0,CCCCCCCCCCCCCCc1ccccc1,didier14
n-HEPTADECYLBENZENE,472.0,1.0,CCCCCCCCCCCCCCCCCc1ccccc1,didier14
"1,1,2-TRIPHENYLETHANE",441.0,1.0,c1ccc(CC(c2ccccc2)c2ccccc2)cc1,didier14
METHYL ISOPROPYL SULFIDE,262.0,1.0,CSC(C)C,didier14
p-PHENETIDINE,389.0,1.0,CCOc1ccc(N)cc1,didier14
IBUPROFEN,436.0,1.0,CC(C)Cc1ccc(C(C)C(=O)O)cc1,didier14
"cis-1,3-PENTADIENE",232.0,1.0,C=C/C=C\C,didier14
cis-CROTONALDEHYDE,281.1,1.0,C/C=C\C=O,didier14
"2,2-DIMETHYLOCTANE",304.0,1.0,CCCCCCC(C)(C)C,didier14
"2,5-DIMETHYLOCTANE",306.0,1.0,CCCC(C)CCC(C)C,didier14
2-METHYL-1-HEPTENE,283.1,1.0,C=C(C)CCCCC,didier14
p-ISOPROPENYLSTYRENE,360.0,1.0,C=Cc1ccc(C(=C)C)cc1,didier14
2-ETHYL-1-HEXENE,279.0,1.0,C=C(CC)CCCC,didier14
"1,9-DECADIENE",316.0,1.0,C=CCCCCCCC=C,didier14
"2,3-DIMETHYL-1-HEXENE",281.0,1.0,C=C(C)C(C)CCC,didier14
"2,2-DIMETHYL-3-ETHYLPENTANE",286.0,1.0,CCC(CC)C(C)(C)C,didier14
"1,2-DIMETHYL-3-PROPYLBENZENE",345.0,1.0,CCCc1cccc(C)c1C,didier14
p-tert-BUTYLSTYRENE,352.0,1.0,C=Cc1ccc(C(C)(C)C)cc1,didier14
2-ETHYL-p-XYLENE,329.0,1.0,CCc1cc(C)ccc1C,didier14
"1,2,4-TRIMETHYL-5-ETHYLBENZENE",347.0,1.0,CCc1cc(C)c(C)cc1C,didier14
N-ETHYL-2-METHYLALLYLAMINE,280.1,1.0,C=C(C)CNCC,didier14
1-NONADECENE,430.0,1.0,C=CCCCCCCCCCCCCCCCCC,didier14
ISOPROPYL BUTYL ETHER,277.0,1.0,CCCCOC(C)C,didier14
"2,3-DIMETHYL-2,3-DIPHENYLBUTANE",412.0,1.0,CC(C)(c1ccccc1)C(C)(C)c1ccccc1,didier14
1-ETHYL-2-ISOPROPYLBENZENE,331.0,1.0,CCc1ccccc1C(C)C,didier14
1-METHYL-3-(METHYLETHOXY)BENZENE,339.0,1.0,Cc1cccc(OC(C)C)c1,didier14
3-METHYLHEXANAL,303.0,1.0,CCCC(C)CC=O,didier14
"trans-1,3-PENTADIENE",230.0,1.0,C=C/C=C/C,didier14
trans-2-DECENE,319.0,1.0,C/C=C/CCCCCCC,didier14
n-TETRADECYLAMINE,406.0,1.0,CCCCCCCCCCCCCCN,didier14
n-DECYLAMINE,358.1,1.0,CCCCCCCCCCN,didier14
"trans-1,3-HEXADIENE",254.2,1.0,C=C/C=C/CC,didier14
ETHYL METHYL DISULFIDE,299.0,1.0,CCSSC,didier14
cis-2-DECENE,320.0,1.0,C/C=C\CCCCCCC,didier14
DIAMYLAMINE,325.1,1.0,CCCCCNCCCCC,didier14
"2,6-DIMETHYLOCTANE",307.0,1.0,CCC(C)CCCC(C)C,didier14
2-PENTANETHIOL,282.5,1.0,CCCC(C)S,didier14
2-BUTYL-1-DECANOL,422.0,1.0,CCCCCCCCC(CO)CCCC,didier14
n-PENTADECYLBENZENE,456.0,1.0,CCCCCCCCCCCCCCCc1ccccc1,didier14
n-OCTYLBENZENE,380.1,1.0,CCCCCCCCc1ccccc1,didier14
n-PROPYL METHACRYLATE,304.0,1.0,C=C(C)C(=O)OCCC,didier14
2-METHYL-DODECAN-1-OL,404.0,1.0,CCCCCCCCCCC(C)CO,didier14
n-PROPYL BENZOATE,371.1,1.0,CCCOC(=O)c1ccccc1,didier14
1-TRIDECENE,352.1,1.0,C=CCCCCCCCCCCC,didier14
DINONYL ETHER,430.0,1.0,CCCCCCCCCOCCCCCCCCC,didier14