,compound,flashpoint,pure substance,smiles,source
13500,"2,4dimethylpentane",260.95,1,CC(C)CC(C)C,le15
13501,"2,4dimethylphenol",367.0,1,Cc1ccc(O)c(C)c1,le15
13502,"2,4dimethylpyridine",310.35,1,Cc1ccnc(C)c1,le15
13503,"2,4hexadiene-",266.15,1,CC=CC=CC,le15
13504,"2,4pentadienylTrimethylSilane",291.15,1,C=CC=CC[Si](C)(C)C,le15
13505,"2,4pentanedione",307.15,1,CC(=O)CC(C)=O,le15
13506,"2,5dihydrofuran-",257.15,1,C1=CCOC1,le15
13507,"2,5dimethoxychlorobenzene",390.35,1,COc1ccc(OC)c(Cl)c1,le15
13508,"2,5dimethylphenol",368.0,1,Cc1ccc(C)c(O)c1,le15
13509,"2,5hexanediol",383.15,1,CC(O)CCC(C)O,le15
13510,"2,5hexanedione",352.15,1,CC(=O)CCC(C)=O,le15
13511,"2,5norbornadiene",262.0,1,C1=CC2C=CC1C2,le15
13512,"2,6dimethyl4heptanol",339.15,1,CC(C)CC(O)CC(C)C,le15
13513,"2,6dimethyl4heptanone",322.15,1,CC(C)CC(=O)CC(C)C,le15
13514,"2,6dimethylphenol",346.0,1,Cc1cccc(C)c1O,le15
13515,2amino2methyl1propanol,340.35,1,CC(C)(N)CO,le15
13516,2bromoethyltrichlorosilane,313.15,1,Cl[Si](Cl)(Cl)CCBr,le15
13517,2bromovinylTrimethylSilane,288.15,1,C[Si](C)(C)C=CBr,le15
13518,2butanol,297.15,1,CCC(C)O,le15
13519,2butanone,264.15,1,CCC(C)=O,le15
13520,2butoxyethylacetate,344.15,1,CCCCOCCOC(C)=O,le15
13521,2butyl1octanol,383.15,1,CCCCCCC(CO)CCCC,le15
13522,2butyne-,224.15,1,CC#CC,le15
13523,2chloro1propanol,324.85,1,CC(Cl)CO,le15
13524,2chloro1propene-,239.15,1,C=C(C)Cl,le15
13525,2chlorobenzenamine,364.15,1,Nc1ccccc1Cl,le15
13526,2chlorobutane,258.15,1,CCC(C)Cl,le15
13527,2chloroethanol,333.15,1,OCCCl,le15
13528,2chloroethylacetate,339.25,1,CC(=O)OCCCl,le15
13529,2chloroethyltrichlorosilane,301.15,1,ClCC[Si](Cl)(Cl)Cl,le15
13530,2chloromethyl3trimethylsilyl1propene,316.15,1,C=C(CCl)C[Si](C)(C)C,le15
13531,2chloropropionicAcid,380.35,1,CC(Cl)C(=O)O,le15
13532,2chlorotoluene,316.0,1,Cc1ccccc1Cl,le15
13533,2cyanoethylMethylDichloroSilane,333.15,1,C[Si](Cl)(Cl)CCC#N,le15
13534,2cyanoethylTriethoxySilane,359.15,1,CCO[Si](CCC#N)(OCC)OCC,le15
13535,2cyclohexen1one,307.15,1,O=C1C=CCCC1,le15
13536,2decene,320.15,1,CC=CCCCCCCC,le15
13537,2dodecene,351.15,1,CC=CCCCCCCCCC,le15
13538,2ethoxyethanol,316.45,1,CCOCCO,le15
13539,2ethoxyethylacetate,320.35,1,CCOCCOC(C)=O,le15
13540,2ethyl1butanol,330.15,1,CCC(CC)CO,le15
13541,2ethyl1hexanol,346.15,1,CCCCC(CC)CO,le15
13542,2ethyl1pentene-,263.15,1,C=C(CC)CCC,le15
13543,2ethyl2hexenal,341.15,1,CCCC=C(C=O)CC,le15
13544,2ethylbenzenamine,364.15,1,CCc1ccccc1N,le15
13545,2ethylhexanal,317.15,1,CCCCC(C=O)CC,le15
13546,2ethylhexylacetate,344.15,1,CCCCC(CC)COC(C)=O,le15
13547,2ethylhexylacrylate,359.0,1,C=CC(=O)OCC(CC)CCCC,le15
13548,2fluoro2methylpropane,260.95,1,CC(C)(C)F,le15
13549,2furancarboxaldehyde,333.15,1,O=Cc1ccco1,le15
13550,2heptanone,320.15,1,CCCCCC(C)=O,le15
13551,2hexanol,330.95,1,CCCCC(C)O,le15
13552,2hexanone,308.15,1,CCCCC(C)=O,le15
13553,2hydroxy3butenenitrile,366.15,1,C=CC(O)C#N,le15
13554,2iodobutane,301.15,1,CCC(C)I,le15
13555,2iodotoluene,363.15,1,Cc1ccccc1I,le15
13556,2isopropylbiphenyl,413.75,1,CC(C)c1ccccc1-c1ccccc1,le15
13557,2methoxy1propanol,309.15,1,COC(C)CO,le15
13558,2methoxyethanol,312.15,1,COCCO,le15
13559,2methoxyethylacetate,322.15,1,COCCOC(C)=O,le15
13560,2methyl1butene3yne-,221.15,1,C#CC(=C)C,le15
13561,2methyl1hexanol,333.15,1,CCCCC(C)CO,le15
13562,2methyl1Hindene,344.15,1,CC1=Cc2ccccc2C1,le15
13563,2methyl1propanethiol-,264.15,1,CC(C)CS,le15
13564,2methyl2pentenal,304.15,1,CCC=C(C)C=O,le15
13565,2methyl2propen1ol,306.45,1,C=C(C)CO,le15
13566,2methyl2propenoicAcid,340.15,1,C=C(C)C(=O)O,le15
13567,2methylallylchloride,261.15,1,C=C(C)CCl,le15
13568,2methylaminoEthanol,347.05,1,CNCCO,le15
13569,2methylaziridine-,263.15,1,CC1CN1,le15
13570,2methylbenzaldehyde,340.15,1,Cc1ccccc1C=O,le15
13571,2methylbenzenamine,358.15,1,Cc1ccccc1N,le15
13572,2methylbenzofuran,340.15,1,Cc1cc2ccccc2o1,le15
13573,2methylbutylAmine-,257.15,1,CCC(C)CN,le15
13574,2methylpropylBenzene,325.15,1,CC(C)Cc1ccccc1,le15
13575,2methylpyridine,299.15,1,Cc1ccccn1,le15
13576,2methyltetrahydrofuran,262.05,1,CC1CCCO1,le15
13577,2methylvalericacid,364.25,1,CCCC(C)C(=O)O,le15
13578,2naphthol,426.15,1,Oc1ccc2ccccc2c1,le15
13579,2nitrobiphenyl,452.15,1,O=[N+]([O-])c1ccccc1-c1ccccc1,le15
13580,2nitropropane,297.15,1,CC(C)[N+](=O)[O-],le15
13581,2nonanol,355.15,1,CCCCCCCC(C)O,le15
13582,2nonanone,333.15,1,CCCCCCCC(C)=O,le15
13583,2octanol,360.95,1,CCCCCCC(C)O,le15
13584,2octanone,335.15,1,CCCCCCC(C)=O,le15
13585,2oxolan2yloxolane,362.15,1,C1COC(C2CCCO2)C1,le15
13586,2pentaneamine,266.45,1,CCCC(C)N,le15
13587,2pentanone,280.35,1,CCCC(C)=O,le15
13588,2pentene-,226.15,1,CC=CCC,le15
13589,2phenoxyethanol,394.25,1,OCCOc1ccccc1,le15
13590,2phenylethanol,375.15,1,OCCc1ccccc1,le15
13591,2phenylphenol,397.05,1,Oc1ccccc1-c1ccccc1,le15
13592,2propanol,285.15,1,CC(C)O,le15
13593,2propenal,254.25,1,C=CC=O,le15
13594,2propenenitrile,273.15,1,C=CC#N,le15
13595,2propenylAcetate,295.15,1,CC=CCC(=O)[O-],le15
13596,"3,3dimethyl1butene",245.0,1,C=CC(C)(C)C,le15
13597,"3,3dimethyl2butanone",285.15,1,CC(=O)C(C)(C)C,le15
13598,"3,3dimethylbutanoicacid",361.0,1,CC(C)(C)CC(=O)O,le15
13599,"3,4dichloro1butene",301.15,1,C=CC(Cl)CCl,le15
13600,"3,4dihydro2Hpyran",255.15,1,C1=COCCC1,le15
13601,3amino1propanol,352.15,1,NCCCO,le15
13602,3bromo1trimethylsilyl1propyne,335.15,1,C[Si](C)(C)C#CCBr,le15
13603,3bromopropyltrichlorosilane,361.15,1,Cl[Si](Cl)(Cl)CCCBr,le15
13604,3bromopropylTrimethoxySilane,355.15,1,CO[Si](CCCBr)(OC)OC,le15
13605,3buten1ol,310.95,1,C=CCCO,le15
13606,3butenenitrile,294.15,1,C=CCC#N,le15
13607,3chloro1propene-,241.15,1,C=CCCl,le15
13608,3chloro2methylpropylMethylDichloroSilane,363.15,1,CC(CCl)C[Si](C)(Cl)Cl,le15
13609,3chloropropylDimethylChloroSilane,313.15,1,C[Si](C)(Cl)CCCCl,le15
13610,3chloropropylMethylDichloroSilane,359.15,1,C[Si](Cl)(Cl)CCCCl,le15
13611,3chloropropylMethylDimethoxySilane,318.15,1,CO[Si](C)(CCCCl)OC,le15
13612,3chloropropylTriethoxySilane,335.15,1,CCO[Si](CCCCl)(OCC)OCC,le15
13613,3chloropropylTrimethoxySilane,351.15,1,CO[Si](CCCCl)(OC)OC,le15
13614,3ethoxypropionaldehyde,311.15,1,CCOCCC=O,le15
13615,3ethoxypropionicacid,380.35,1,CCOCCC(=O)O,le15
13616,3ethyl1heptanol,363.15,1,CCCCC(CC)CCO,le15
13617,3ethyl1hexene,274.15,1,C=CC(CC)CCC,le15
13618,3ethyl1pentene-,256.15,1,C=CC(CC)CC,le15
13619,3ethyl4methylhexane,297.15,1,CCC(C)C(CC)CC,le15
13620,3ethylheptanal,328.15,1,CCCCC(CC)CC=O,le15
13621,3ethylheptane,295.15,1,CCCCC(CC)CC,le15
13622,3heptanone,310.15,1,CCCCC(=O)CC,le15
13623,3hexyne-,256.15,1,CCC#CCC,le15
13624,3iodotoluene,355.35,1,Cc1cccc(I)c1,le15
13625,3isopropoxypropionitrile,341.45,1,CC(C)OCCC#N,le15
13626,3methacryloxyPropylTrimethoxySilane,365.15,1,C=C(C)C(=O)OCCC[Si](OC)(OC)OC,le15
13627,3methoxypropylamine,305.35,1,COCCCN,le15
13628,3methyl1butyne-,221.15,1,C#CC(C)C,le15
13629,3methyl1hexene-,267.15,1,C=CC(C)CCC,le15
13630,3methyl3buten2one,294.15,1,C=C(C)C(C)=O,le15
13631,3methyl3pentanol,297.15,1,CCC(C)(O)CC,le15
13632,3methylbenzaldehyde,351.15,1,Cc1cccc(C=O)c1,le15
13633,3methylbenzenamine,359.15,1,Cc1cccc(N)c1,le15
13634,3methylbutanal-,268.15,1,CC(C)CC=O,le15
13635,3methylbutylAcetate,298.15,1,CC(=O)OCCC(C)C,le15
13636,3methylthiophene,284.15,1,Cc1ccsc1,le15
13637,3methylthioPropionaldehyde,334.25,1,CCCC=S,le15
13638,3nonanone,339.15,1,CCCCCCC(=O)CC,le15
13639,3pyridinecarbonitrile,357.15,1,N#Cc1cccnc1,le15
13640,3trimethylsilylCyclopentene,299.15,1,C[Si](C)(C)C1C=CCC1,le15
13641,4bromobiphenyl,417.05,1,Brc1ccc(-c2ccccc2)cc1,le15
13642,4butylalcohol,284.15,1,CCCCO,le15
13643,4chlorophenylisocyanate,383.15,1,O=C=Nc1ccc(Cl)cc1,le15
13644,4ethylphenol,377.05,1,CCc1ccc(O)cc1,le15
13645,4heptanone,322.15,1,CCCC(=O)CCC,le15
13646,4hydroxy4methyl2pentanone,331.15,1,CC(=O)CC(C)(C)O,le15
13647,4methyl1heptene,275.15,1,C=CCC(C)CCC,le15
13648,4methyl1hexene-,258.15,1,C=CCC(C)CC,le15
13649,4methyl1octanol,358.15,1,CCCCC(C)CCCO,le15
13650,4methyl2pentanone,291.15,1,CC(=O)CC(C)C,le15
13651,4methyl2pentene-,238.15,1,CC=CC(C)C,le15
13652,4methyl3penten2one,304.15,1,CC(=O)C=C(C)C,le15
13653,4methylbenzaldehyde,353.15,1,Cc1ccc(C=O)cc1,le15
13654,4methylbenzenamine,360.15,1,Cc1ccc(N)cc1,le15
13655,4methylcyclohexanol,343.15,1,CC1CCC(O)CC1,le15
13656,4methylene2oxetanone,307.15,1,C=C1CC(=O)O1,le15
13657,4methylmorpholine,297.05,1,CN1CCOCC1,le15
13658,4nonanone,335.15,1,CCCCCC(=O)CCC,le15
13659,4octanone,318.15,1,CCCCC(=O)CCC,le15
13660,4tertButyl2methylphenol,390.95,1,Cc1cc(C(C)(C)C)ccc1O,le15
13661,4vinyl1cyclohexene,289.25,1,C=CC1CC=CCC1,le15
13662,5hexen2one,296.15,1,C=CCCC(C)=O,le15
13663,5methyl2hexanone,309.15,1,CC(=O)CCC(C)C,le15
13664,6methyl1octanol,360.15,1,CCC(C)CCCCCO,le15
13665,6methyl3heptanone,318.15,1,CCC(=O)CCC(C)C,le15
13666,7methyl1octene,291.15,1,C=CCCCCC(C)C,le15
13667,8methyl1nonene,316.15,1,C=CCCCCCC(C)C,le15
13668,Acetaldehyde,246.15,1,CC=O,le15
13669,Acetanilide,446.15,1,CC(=O)Nc1ccccc1,le15
13670,Aceticacid,312.15,1,CC(=O)O,le15
13671,Acetone,253.15,1,CC(C)=O,le15
13672,Acetophenone,350.15,1,CC(=O)c1ccccc1,le15
13673,AcetoxymethylTrimethylSilane,293.15,1,CC(=O)OC[Si](C)(C)C,le15
13674,AcetoxyTrimethylSilane,277.15,1,CC(=O)O[Si](C)(C)C,le15
13675,Acetylchloride,277.15,1,CC(=O)Cl,le15
13676,Acrylicacid,327.15,1,C=CC(=O)O,le15
13677,AdipicAcid,469.15,1,O=C(O)CCCCC(=O)O,le15
13678,Allylalcohol,294.15,1,C=CCO,le15
13679,Allylamine,244.15,1,C=CCN,le15
13680,Allylchloride,241.15,1,C=CCCl,le15
13681,AllylChloromethylDimethylSilane,300.15,1,C=CC[Si](C)(C)CCl,le15
13682,AllylDimethylChloroSilane,278.15,1,C=CC[Si](C)(C)Cl,le15
13683,AllylDimethylSilane-,253.15,1,C=CC[SiH](C)C,le15
13684,AllylIsothiocyanate,319.25,1,C=CCN=C=S,le15
13685,AllylMethylDichloroSilane,300.15,1,C=CCC[SiH](Cl)Cl,le15
13686,AllyloxytrimethylSilane,273.15,1,C=CCO[Si](C)(C)C,le15
13687,AllylPhenylDichloroSilane,349.15,1,C=CC[Si](Cl)(Cl)c1ccccc1,le15
13688,AllylTrichloroSilane,304.15,1,C=CC[Si](Cl)(Cl)Cl,le15
13689,AllylTriethoxySilane,320.15,1,C=CC[Si](OCC)(OCC)OCC,le15
13690,AllylTrimethoxySilane,319.15,1,C=CC[Si](OC)(OC)OC,le15
13691,AllylTrimethylSilane,280.15,1,C=CC[Si](C)(C)C,le15
13692,alphaMethylstyrene,327.05,1,C=C(C)c1ccccc1,le15
13693,AminoethylAminopropylTrimethoxySilane,369.15,1,CO[Si](CCCNCCN)(OC)OC,le15
13694,Aniline,343.15,1,Nc1ccccc1,le15
13695,Anthracene,394.15,1,c1ccc2cc3ccccc3cc2c1,le15
13696,Anthraquinone,458.15,1,O=C1c2ccccc2C(=O)c2ccccc21,le15
13697,Aziridine,262.05,1,C1CN1,le15
13698,Benzaldehyde,336.15,1,O=Cc1ccccc1,le15
13699,Benzene,262.15,1,c1ccccc1,le15
13700,BenzoicAcid,394.15,1,O=C(O)c1ccccc1,le15
13701,Benzonitrile,344.85,1,N#Cc1ccccc1,le15
13702,Benzoylchloride,345.15,1,O=C(Cl)c1ccccc1,le15
13703,Benzylacetate,363.75,1,O=C([O-])CCc1ccccc1,le15
13704,Benzylbenzoate,421.15,1,O=C(OCc1ccccc1)c1ccccc1,le15
13705,Benzylchloride,340.15,1,ClCc1ccccc1,le15
13706,BenzylDimethylChloroSilane,346.15,1,C[Si](C)(Cl)Cc1ccccc1,le15
13707,BenzylDimethylSilane,338.15,1,C[SiH](C)Cc1ccccc1,le15
13708,BenzylTrichloroSilane,360.15,1,Cl[Si](Cl)(Cl)Cc1ccccc1,le15
13709,BenzylTrimethylSilane,335.15,1,C[Si](C)(C)Cc1ccccc1,le15
13710,Bicyclohexyl,365.0,1,C1CCC(C2CCCCC2)CC1,le15
13711,BischloromethylDimethylSilane,319.15,1,C[Si](C)(CCl)CCl,le15
13712,bisChloromethylMethylChloroSilane,315.15,1,C[Si](Cl)(CCl)CCl,le15
13713,BisDiethylaminoDimethylSilane,308.15,1,CCN(CC)[Si](C)(C)N(CC)CC,le15
13714,BisDimethylaminoDimethylSilane-,266.15,1,CN(C)[Si](C)(C)N(C)C,le15
13715,BisDimethylaminoMethylSilane-,270.15,1,CN(C)C([SiH3])N(C)C,le15
13716,BistrimethylsilylCarbodiimide,315.15,1,C[Si](C)(C)N=C=N[Si](C)(C)C,le15
13717,BisTrimethylsilylMethane,285.15,1,C[Si](C)(C)C[Si](C)(C)C,le15
13718,Bromobenzene,324.15,1,Brc1ccccc1,le15
13719,Bromomethyldimethylchlorosilane,314.15,1,C[Si](C)(Cl)CBr,le15
13720,BromomethylTrimethylSilane,289.15,1,C[Si](C)(C)CBr,le15
13721,Bromopentafluorobenzene,360.15,1,Fc1c(F)c(F)c(Br)c(F)c1F,le15
13722,Butylacetate,297.15,1,CCCCOC(C)=O,le15
13723,Butylacrylate,312.0,1,C=CC(=O)OCCCC,le15
13724,Butylamine,272.15,1,CCCCN,le15
13725,Butylchloride,263.75,1,CCCCCl,le15
13726,ButylDimethylAmine-,270.15,1,CCCCN(C)C,le15
13727,Butylethylether,277.55,1,CCCCOCC,le15
13728,Butylformate,291.15,1,CCCCOC=O,le15
13729,ButylIsocyanate,299.85,1,CCCCN=C=O,le15
13730,ButylIsothiocyanate,338.75,1,CCCCN=C=S,le15
13731,ButylIsovalerate,326.15,1,CCCCOC(=O)CC(C)C,le15
13732,butylnitrate,309.25,1,CCCCO[N+](=O)[O-],le15
13733,Butylpropionate,305.15,1,CCCCOC(=O)CC,le15
13734,Butyraldehyde,266.45,1,CCCC=O,le15
13735,Butyricacid,350.15,1,CCCC(=O)O,le15
13736,Butyronitrile,289.85,1,CCCC#N,le15
13737,Chlorobenzene,302.15,1,Clc1ccccc1,le15
13738,Chlorocyclohexane,305.15,1,ClC1CCCCC1,le15
13739,ChloromethylBenzene,333.15,1,ClCc1ccccc1,le15
13740,ChloromethylDimethylchlorosilane,294.15,1,C[Si](C)(Cl)CCl,le15
13741,ChloromethylDimethylEthoxySilane,299.15,1,CCO[Si](C)(C)CCl,le15
13742,ChloromethylDimethylPhenylSilane,326.15,1,C[Si](C)(CCl)c1ccccc1,le15
13743,Chloromethylmethyldichlorosilane,293.15,1,C[Si](Cl)(Cl)CCl,le15
13744,ChloromethylMethylDiethoxySilane,311.15,1,CCO[Si](C)(CCl)OCC,le15
13745,ChloromethylTriethoxySilane,320.15,1,CCO[Si](CCl)(OCC)OCC,le15
13746,ChloromethylTrimethoxySilane,299.15,1,CO[Si](CCl)(OC)OC,le15
13747,ChloromethylTrimethylSilane-,271.15,1,C[Si](C)(C)CCl,le15
13748,cisDecalin,331.15,1,C1CC[C@H]2CCCC[C@H]2C1,le15
13749,Crotonaldehyde,286.15,1,C/C=C/C=O,le15
13750,Cumene,309.15,1,CC(C)c1ccccc1,le15
13751,Cyclohexane,253.15,1,C1CCCCC1,le15
13752,Cyclohexanol,341.15,1,OC1CCCCC1,le15
13753,Cyclohexanone,317.15,1,O=C1CCCCC1,le15
13754,Cyclohexyl ,488.05,1,[CH]1CCCCC1,le15
13755,CyclohexylAcetate,331.15,1,O=C([O-])CC1CCCCC1,le15
13756,CyclohexylBenzene,372.15,1,c1ccc(C2CCCCC2)cc1,le15
13757,CyclohexylDimethylSilane,336.15,1,C[SiH](C)C1CCCCC1,le15
13758,CyclohexylIsocyanate,322.05,1,O=C=NC1CCCCC1,le15
13759,CyclohexylMethylDichloroSilane,339.15,1,Cl[SiH](Cl)CC1CCCCC1,le15
13760,CyclohexylMethylDimethoxySilane,339.15,1,CO[SiH](CC1CCCCC1)OC,le15
13761,CyclohexylTrichloroSilane,364.15,1,Cl[Si](Cl)(Cl)C1CCCCC1,le15
13762,CyclopentadienylTrimethylSilane,302.15,1,C[Si](C)(C)C1C=CC=C1,le15
13763,Cyclopentane,236.15,1,C1CCCC1,le15
13764,Cyclopentanol,324.15,1,OC1CCCC1,le15
13765,Cyclopentanone,299.15,1,O=C1CCCC1,le15
13766,CyclopentenyloxyTrimethylSilane,311.15,1,C[Si](C)(C)OC1=CCCC1,le15
13767,CyclopentylDichloroSilane,316.15,1,Cl[SiH](Cl)C1CCCC1,le15
13768,CyclopentylTrichloroSilane,350.15,1,Cl[Si](Cl)(Cl)C1CCCC1,le15
13769,Cyclopropanecarbonitrile,305.95,1,N#CC1CC1,le15
13770,DecamethylCyclopentasiloxane,350.15,1,C[Si]1(C)O[Si](C)(C)O[Si](C)(C)O[Si](C)(C)O[Si](C)(C)O1,le15
13771,DecamethylTetraSiloxane,335.15,1,C[Si](C)(C)O[Si](C)(C)O[Si](C)(C)O[Si](C)(C)C,le15
13772,Decane,321.15,1,CCCCCCCCCC,le15
13773,Decylamine,372.15,1,CCCCCCCCCCN,le15
13774,Diallylphthalate,438.75,1,C=CCOC(=O)c1ccccc1C(=O)OCC=C,le15
13775,DiallylSulfide,319.25,1,C=CCSCC=C,le15
13776,Dibenzylether,408.15,1,c1ccc(COCc2ccccc2)cc1,le15
13777,Dibutoxymethane,333.15,1,CCCCOCOCCCC,le15
13778,Dibutylamine,313.15,1,CCCCNCCCC,le15
13779,Dibutyldisulfide,366.45,1,CCCCSSCCCC,le15
13780,Dibutylether,298.15,1,CCCCOCCCC,le15
13781,Dibutylsebacate,440.0,1,CCCCOC(=O)CCCCCCCCC(=O)OCCCC,le15
13782,Dibutylsulfide,349.85,1,CCCCSCCCC,le15
13783,Dibutylsulfone,416.15,1,CCCCS(=O)(=O)CCCC,le15
13784,DichloroAcetaldehyde,333.15,1,O=CC(Cl)Cl,le15
13785,Dichloroacetylchloride,339.25,1,O=C(Cl)C(Cl)Cl,le15
13786,DichloromethylBenzene,353.15,1,ClC(Cl)c1ccccc1,le15
13787,DichloromethylMethylDichloroSilane,301.15,1,C[Si](Cl)(Cl)C(Cl)Cl,le15
13788,DichloroSilane-,236.15,1,Cl[SiH2]Cl,le15
13789,Diethylamine,250.15,1,CCNCC,le15
13790,DiethylaminoTrimethylSilane,283.15,1,CCN(CC)[Si](C)(C)C,le15
13791,DiethylDichloroSilane,300.15,1,CC[Si](Cl)(Cl)CC,le15
13792,DiethylDiethoxySilane,316.15,1,CCO[Si](CC)(CC)OCC,le15
13793,DiethyleneGlycol,397.15,1,OCCOCCO,le15
13794,Diethylenetriamine,371.15,1,NCCNCCN,le15
13795,Diethylether,228.15,1,CCOCC,le15
13796,DiethylMethylChloroSilane,288.15,1,CC[Si](C)(Cl)CC,le15
13797,DiethylPhosphate,364.15,1,CCOP(=O)([O-])OCC,le15
13798,DiethylSilane-,253.15,1,CC[SiH2]CC,le15
13799,Diethylsulfide,263.75,1,CCSCC,le15
13800,Dihexylether,350.15,1,CCCCCCOCCCCCC,le15
13801,Diisobutylamine,302.15,1,CC(C)CNCC(C)C,le15
13802,Diisopropylamine,272.15,1,CC(C)NC(C)C,le15
13803,DiisopropylaminoTrimethylSilane,301.15,1,CC(C)N(C(C)C)[Si](C)(C)C,le15
13804,Dimethoxymethane,255.0,1,COCOC,le15
13805,DimethylChloroSilane-,248.15,1,C[SiH](C)Cl,le15
13806,DimethylDiacetoxySilane,310.15,1,CC(=O)O[Si](C)(C)OC(C)=O,le15
13807,Dimethyldichlorosilane-,263.15,1,C[Si](C)(Cl)Cl,le15
13808,DimethylDiethoxySilane,284.15,1,CCO[Si](C)(C)OCC,le15
13809,DimethylDimethoxySilane-,265.15,1,CO[Si](C)(C)OC,le15
13810,Dimethylether,232.15,1,COC,le15
13811,DimethylolUrea,505.15,1,O=C(NCO)NCO,le15
13812,Dimethylsulfide,237.15,1,CSC,le15
13813,DimethylVinylChloroSilane-,268.15,1,CC(C)=C[SiH2]Cl,le15
13814,Dipentylamine,324.15,1,CCCCCNCCCCC,le15
13815,Diphenylamine,425.95,1,c1ccc(Nc2ccccc2)cc1,le15
13816,Diphenylether,388.15,1,c1ccc(Oc2ccccc2)cc1,le15
13817,DiphenylSilane,371.15,1,c1ccc([SiH2]c2ccccc2)cc1,le15
13818,Dipropylamine,290.15,1,CCCNCCC,le15
13819,Dipropylether,294.25,1,CCCOCCC,le15
13820,DipropylSulfone,399.15,1,CCCS(=O)(=O)CCC,le15
13821,Ditertbutylsulfide,321.15,1,CC(C)(C)SC(C)(C)C,le15
13822,DivinylDimethylSilane,281.15,1,C=C[Si](C)(C)C=C,le15
13823,DodecamethylCyclohexasiloxane,366.15,1,C[Si]1(C)O[Si](C)(C)O[Si](C)(C)O[Si](C)(C)O[Si](C)(C)O[Si](C)(C)O1,le15
13824,DodecamethylPentasiloxane,352.15,1,C[Si](C)(C)O[Si](C)(C)O[Si](C)(C)O[Si](C)(C)O[Si](C)(C)C,le15
13825,Dodecane,344.15,1,CCCCCCCCCCCC,le15
13826,Ethanethiol,256.15,1,CCS,le15
13827,ethanol,286.15,1,CCO,le15
13828,EthenylBenzene,305.15,1,C=Cc1ccccc1,le15
13829,EthoxyBenzene,325.15,1,CCOc1ccccc1,le15
13830,EthoxymethylBenzene,332.15,1,CCOCc1ccccc1,le15
13831,EthoxyTrimethylSilane-,246.15,1,CCO[Si](C)(C)C,le15
13832,Ethyl2trimethylsilylAcetate,308.15,1,CCOC(=O)C[Si](C)(C)C,le15
13833,Ethylacetate,270.15,1,CCOC(C)=O,le15
13834,Ethylacetoacetate,330.35,1,CCOC(=O)CC(C)=O,le15
13835,Ethylacetylglycolate,355.15,1,CCCC(=O)C(O)C(=O)[O-],le15
13836,Ethylacrylate,288.75,1,C=CC(=O)OCC,le15
13837,Ethylbenzene,288.15,1,CCc1ccccc1,le15
13838,Ethylbenzoate,361.15,1,CCOC(=O)c1ccccc1,le15
13839,Ethylbromoacetate,320.95,1,CCOC(=O)CBr,le15
13840,Ethylbutyrate,297.15,1,CCCC(=O)OCC,le15
13841,Ethylchloride,230.15,1,CCCl,le15
13842,EthylChloroformate,289.15,1,CCOC(=O)Cl,le15
13843,ethylcrotonate,275.35,1,C/C=C/C(=O)OCC,le15
13844,Ethylcyanoacetate,383.15,1,CCOC(=O)CC#N,le15
13845,ethylcyclohexane,308.15,1,CCC1CCCCC1,le15
13846,Ethyldichlorosilane-,264.15,1,CC[SiH](Cl)Cl,le15
13847,EthylDimethylChloroSilane-,269.15,1,CC[Si](C)(C)Cl,le15
13848,EthylDimethylSilane-,248.15,1,CC[SiH](C)C,le15
13849,Ethylformate,253.15,1,CCOC=O,le15
13850,EthylIsobutyrate,286.0,1,CCOC(=O)C(C)C,le15
13851,Ethyllactate,319.15,1,CCOC(=O)C(C)O,le15
13852,Ethylmethyldichlorosilane,275.15,1,CC[Si](C)(Cl)Cl,le15
13853,Ethylmethylether,235.95,1,CCOC,le15
13854,Ethylnitrate,283.15,1,CCO[N+](=O)[O-],le15
13855,Ethylpropionate,285.15,1,CCOC(=O)CC,le15
13856,EthylSilane-,213.15,1,CC[SiH3],le15
13857,Ethyltrichlorosilane,300.15,1,CC[Si](Cl)(Cl)Cl,le15
13858,EthylTriethoxySilane,313.15,1,CCO[Si](CC)(OCC)OCC,le15
13859,EthylTrimethoxySilane,300.15,1,CC[Si](OC)(OC)OC,le15
13860,EthylTrimethylSilane,300.15,1,CC[Si](C)(C)C,le15
13861,Ethylvinylether,255.15,1,C=COCC,le15
13862,Ethynylbenzene,304.15,1,C#Cc1ccccc1,le15
13863,Fluorobenzene,258.15,1,Fc1ccccc1,le15
13864,Furfurylacetate,358.15,1,O=C([O-])CCc1ccco1,le15
13865,Heptadecane,421.15,1,CCCCCCCCCCCCCCCCC,le15
13866,HeptamethylDisilazane,300.15,1,CN([Si](C)(C)C)[Si](C)(C)C,le15
13867,HeptamethylTrisiloxane,296.15,1,C[SiH](C)O[Si](C)(C)O[Si](C)(C)C,le15
13868,Heptane,272.15,1,CCCCCCC,le15
13869,Heptanoicacid,385.15,1,CCCCCCC(=O)O,le15
13870,HeptylAcetate,340.15,1,CCCCCCCOC(C)=O,le15
13871,Hexadecane,408.15,1,CCCCCCCCCCCCCCCC,le15
13872,HexaethylDisiloxane,349.15,1,CC[Si](CC)(CC)O[Si](CC)(CC)CC,le15
13873,HexafluoroBenzene,283.15,1,Fc1c(F)c(F)c(F)c(F)c1F,le15
13874,HexamethylCycloTrisiloxane,305.15,1,C[Si]1(C)O[Si](C)(C)O[Si](C)(C)O1,le15