compound,flashpoint,pure substance,smiles,source
"3-methylbuta-1,2-diene",261.0,1.0,C=C=C(C)C,Saldana11
3-methylcyclohex-1-ene,270.0,1.0,CC1CCCC=C1,Saldana11
3-methylhex-1-ene,255.0,1.0,CC(CCC)C=C,Saldana11
3-methylpent-1-ene,245.0,1.0,CC(CC)C=C,Saldana11
"3-methylpenta-1,3-diene",245.0,1.0,CC=C(C)C=C,Saldana11
"3,3-dimethylbut-1-ene",245.0,1.0,C=CC(C)(C)C,Saldana11
4-ethenylcyclohex-1-ene,289.0,1.0,C=CC1CCC=CC1,Saldana11
4-methylhept-1-ene,275.0,1.0,CCCC(C)CC=C,Saldana11
4-methylhex-1-ene,258.0,1.0,CC(CC=C)CC,Saldana11
4-methylpent-1-ene,242.0,1.0,C=CCC(C)C,Saldana11
"4-methylpenta-1,3-diene",255.0,1.0,C=CC=C(C)C,Saldana11
"4,4-dimethylpent-1-ene",261.0,1.0,C=CCC(C)(C)C,Saldana11
5-methylhex-1-ene,263.0,1.0,C=CCCC(C)C,Saldana11
7-methyloct-1-ene,291.0,1.0,C=CCCCCC(C)C,Saldana11
but-1-ene,193.0,1.0,CCC=C,Saldana11
"buta-1,3-diene",197.0,1.0,C=CC=C,Saldana11
cycloheptene,267.0,1.0,C1CCC=CCC1,Saldana11
cyclohexene,243.0,1.0,C1CCC=CC1,Saldana11
cyclooctene,298.0,1.0,C1CCCC=CCC1,Saldana11
cyclopentene,244.0,1.0,C1CC=CC1,Saldana11
dec-1-ene,311.0,1.0,CCCCCCCCC=C,Saldana11
dodec-1-ene,346.0,1.0,CCCCCCCCCCC=C,Saldana11
hept-1-ene,265.0,1.0,CCCCCC=C,Saldana11
"hepta-1,6-diene",263.0,1.0,C=CCCCC=C,Saldana11
heptadec-1-ene,408.0,1.0,CCCCCCCCCCCCCCCC=C,Saldana11
hex-1-ene,247.0,1.0,CCCCC=C,Saldana11
"hexa-1,5-diene",246.0,1.0,C=CCCC=C,Saldana11
hexadec-1-ene,405.0,1.0,CCCCCCCCCCCCCCC=C,Saldana11
isoprene,219.0,1.0,C=CC(=C)C,Saldana11
non-1-ene,298.0,1.0,CCCCCCCC=C,Saldana11
"nona-1,8-diene",299.0,1.0,C=CCCCCCC=C,Saldana11
oct-1-ene,281.0,1.0,CCCCCCC=C,Saldana11
"octa-1,7-diene",282.0,1.0,C=CCCCCC=C,Saldana11
octadec-1-ene,421.0,1.0,CCCCCCCCCCCCCCCCC=C,Saldana11
pent-1-ene,222.0,1.0,CCCC=C,Saldana11
pentadec-1-ene,385.0,1.0,CCCCCCCCCCCCCC=C,Saldana11
propylene,165.0,1.0,CC=C,Saldana11
tetradec-1-ene,370.0,1.0,CCCCCCCCCCCCC=C,Saldana11
tridec-1-ene,352.0,1.0,CCCCCCCCCCCC=C,Saldana11
undec-1-ene,327.0,1.0,CCCCCCCCCC=C,Saldana11
2-methylheptane,277.0,1.0,CCCCCC(C)C,Saldana11
2-methylhexane,255.0,1.0,CCCCC(C)C,Saldana11
2-methylnonane,314.0,1.0,CCCCCCCC(C)C,Saldana11
2-methyloctane,297.0,1.0,CCCCCCC(C)C,Saldana11
"2,2-dimethylbutane",225.0,1.0,CCC(C)(C)C,Saldana11
"2,2-dimethylheptane",297.0,1.0,CCCCCC(C)(C)C,Saldana11
"2,2-dimethylhexane",269.0,1.0,CCCCC(C)(C)C,Saldana11
"2,2-dimethyloctane",304.0,1.0,CCCCCCC(C)(C)C,Saldana11
"2,2-dimethylpentane",258.0,1.0,CCCC(C)(C)C,Saldana11
"2,2-dimethylpropane",208.0,1.0,CC(C)(C)C,Saldana11
"2,2,3-trimethylbutane",249.0,1.0,CC(C)C(C)(C)C,Saldana11
"2,2,3-trimethylhexane",288.0,1.0,CCCC(C)C(C)(C)C,Saldana11
"2,2,3-trimethylpentane",270.0,1.0,CCC(C)C(C)(C)C,Saldana11
"2,2,3,3-tetramethylbutane",278.0,1.0,CC(C)(C)C(C)(C)C,Saldana11
"2,2,3,3-tetramethylhexane",304.0,1.0,CCCC(C)(C)C(C)(C)C,Saldana11
"2,2,3,3-tetramethylpentane",289.0,1.0,CCC(C)(C)C(C)(C)C,Saldana11
"2,2,3,4-tetramethylhexane",304.0,1.0,CCC(C)C(C)C(C)(C)C,Saldana11
"2,2,3,4-tetramethylpentane",284.0,1.0,CC(C)C(C)C(C)(C)C,Saldana11
"2,2,4-trimethylhexane",288.0,1.0,CCC(C)CC(C)(C)C,Saldana11
"2,2,4-trimethylpentane",261.0,1.0,CC(C)CC(C)(C)C,Saldana11
"2,2,4,4-tetramethylhexane",304.0,1.0,CCC(C)(C)CC(C)(C)C,Saldana11
"2,2,4,4-tetramethylpentane",276.0,1.0,CC(C)(C)CC(C)(C)C,Saldana11
"2,2,4,4,6,8,8-heptamethylnonane",368.0,1.0,CC(CC(C)(C)C)CC(C)(C)CC(C)(C)C,Saldana11
"2,2,5-trimethylhexane",286.0,1.0,CC(C)CCC(C)(C)C,Saldana11
"2,2,5,5-tetramethylhexane",289.0,1.0,CC(C)(C)CCC(C)(C)C,Saldana11
"2,3-dimethylbutane",244.0,1.0,CC(C)C(C)C,Saldana11
"2,3-dimethylheptane",288.0,1.0,CCCCC(C)C(C)C,Saldana11
"2,3-dimethylhexane",278.0,1.0,CCCC(C)C(C)C,Saldana11
"2,3-dimethyloctane",309.0,1.0,CCCCCC(C)C(C)C,Saldana11
"2,3-dimethylpentane",258.0,1.0,CCC(C)C(C)C,Saldana11
"2,3,3-trimethylhexane",288.0,1.0,CCCC(C)(C)C(C)C,Saldana11
"2,3,3-trimethylpentane",273.0,1.0,CCC(C)(C)C(C)C,Saldana11
"2,3,3,4-tetramethylhexane",304.0,1.0,CCC(C)C(C)(C)C(C)C,Saldana11
"2,3,3,4-tetramethylpentane",284.0,1.0,CC(C)C(C)(C)C(C)C,Saldana11
"2,3,4-trimethylhexane",288.0,1.0,CCC(C)C(C)C(C)C,Saldana11
"2,3,4-trimethylpentane",273.0,1.0,CC(C)C(C)C(C)C,Saldana11
"2,3,4,4-tetramethylhexane",304.0,1.0,CCC(C)(C)C(C)C(C)C,Saldana11
"2,3,4,5-tetramethylhexane",304.0,1.0,CC(C)C(C)C(C)C(C)C,Saldana11
"2,3,5-trimethylheptane",304.0,1.0,CCC(C)CC(C)C(C)C,Saldana11
"2,3,5-trimethylhexane",288.0,1.0,CC(C)CC(C)C(C)C,Saldana11
"2,4-dimethylheptane",288.0,1.0,CCCC(C)CC(C)C,Saldana11
"2,4-dimethylhexane",283.0,1.0,CCC(C)CC(C)C,Saldana11
"2,4-dimethylpentane",261.0,1.0,CC(C)CC(C)C,Saldana11
"2,4,4-trimethylhexane",288.0,1.0,CCC(C)(C)CC(C)C,Saldana11
"2,4,5-trimethylheptane",304.0,1.0,CCC(C)C(C)CC(C)C,Saldana11
"2,4,6-trimethylheptane",304.0,1.0,CC(C)CC(C)CC(C)C,Saldana11
"2,5-dimethylheptane",288.0,1.0,CCC(C)CCC(C)C,Saldana11
"2,5-dimethylhexane",271.0,1.0,CC(C)CCC(C)C,Saldana11
"2,6-dimethylheptane",299.0,1.0,CC(C)CCCC(C)C,Saldana11
"2,6-dimethyloctane",307.0,1.0,CCC(C)CCCC(C)C,Saldana11
"2,6,10,15,19,23-hexamethyltetracosane",490.0,1.0,CC(CCCCC(C)CCCC(C)CCCC(C)C)CCCC(C)CCCC(C)C,Saldana11
"2,7-dimethyloctane",314.0,1.0,CC(C)CCCCC(C)C,Saldana11
3-ethyl-2-methylpentane,276.0,1.0,CCC(CC)C(C)C,Saldana11
"3-ethyl-2,2-dimethylhexane",311.0,1.0,CCCC(CC)C(C)(C)C,Saldana11
"3-ethyl-2,2-dimethylpentane",286.0,1.0,CCC(CC)C(C)(C)C,Saldana11
"3-ethyl-2,3-dimethylpentane",288.0,1.0,CCC(C)(CC)C(C)C,Saldana11
"3-ethyl-2,3,4-trimethylpentane",304.0,1.0,CCC(C)(C(C)C)C(C)C,Saldana11
"3-ethyl-2,4-dimethylpentane",288.0,1.0,CCC(C(C)C)C(C)C,Saldana11
3-ethyl-3-methylheptane,314.0,1.0,CCCCC(C)(CC)CC,Saldana11
3-ethyl-3-methylpentane,276.0,1.0,CCC(C)(CC)CC,Saldana11
3-ethyl-4-methylhexane,288.0,1.0,CCC(CC)C(C)CC,Saldana11
3-ethyl-5-methylheptane,304.0,1.0,CCC(C)CC(CC)CC,Saldana11
3-ethylhexane,278.0,1.0,CCCC(CC)CC,Saldana11
3-ethylpentane,261.0,1.0,CCC(CC)CC,Saldana11
3-methylheptane,279.0,1.0,CCCCC(C)CC,Saldana11
3-methylhexane,269.0,1.0,CCCC(C)CC,Saldana11
3-methylnonane,311.0,1.0,CCCCCCC(C)CC,Saldana11
3-methyloctane,297.0,1.0,CCCCCC(C)CC,Saldana11
3-methylpentane,241.0,1.0,CCC(C)CC,Saldana11
"3,3-diethylpentane",294.0,1.0,CCC(CC)(CC)CC,Saldana11
"3,3-dimethylhexane",272.0,1.0,CCCC(C)(C)CC,Saldana11
"3,3-dimethyloctane",314.0,1.0,CCCCCC(C)(C)CC,Saldana11
"3,3-dimethylpentane",254.0,1.0,CCC(C)(C)CC,Saldana11
"3,3,4-trimethylhexane",288.0,1.0,CCC(C)C(C)(C)CC,Saldana11
"3,3,4,4-tetramethylhexane",304.0,1.0,CCC(C)(C)C(C)(C)CC,Saldana11
"3,3,5-trimethylheptane",304.0,1.0,CCC(C)CC(C)(C)CC,Saldana11
"3,4-dimethylheptane",288.0,1.0,CCCC(C)C(C)CC,Saldana11
"3,4-dimethylhexane",277.0,1.0,CCC(C)C(C)CC,Saldana11
"3,4,5-trimethylheptane",304.0,1.0,CCC(C)C(C)C(C)CC,Saldana11
"3,5-dimethylheptane",288.0,1.0,CCC(C)CC(C)CC,Saldana11
"3,5-dimethyloctane",314.0,1.0,CCCC(C)CC(C)CC,Saldana11
4-ethyl-3-methylheptane,314.0,1.0,CCCC(CC)C(C)CC,Saldana11
4-ethylheptane,288.0,1.0,CCCC(CC)CCC,Saldana11
4-ethyloctane,314.0,1.0,CCCCC(CC)CCC,Saldana11
4-methylheptane,279.0,1.0,CCCC(C)CCC,Saldana11
4-methylnonane,311.0,1.0,CCCCCC(C)CCC,Saldana11
4-methyloctane,295.0,1.0,CCCCC(C)CCC,Saldana11
4-propylheptane,314.0,1.0,CCCC(CCC)CCC,Saldana11
"4,4-dimethylheptane",288.0,1.0,CCCC(C)(C)CCC,Saldana11
5-methylnonane,312.0,1.0,CCCCC(C)CCCC,Saldana11
isobutane,190.0,1.0,CC(C)C,Saldana11
isohexane,250.0,1.0,CCCC(C)C,Saldana11
isopentane,217.0,1.0,CCC(C)C,Saldana11
n-decane,319.0,1.0,CCCCCCCCCC,Saldana11
n-dodecane,347.0,1.0,CCCCCCCCCCCC,Saldana11
n-heptadecane,421.0,1.0,CCCCCCCCCCCCCCCCC,Saldana11
n-heptane,269.0,1.0,CCCCCCC,Saldana11
n-hexadecane,408.0,1.0,CCCCCCCCCCCCCCCC,Saldana11
n-hexane,252.0,1.0,CCCCCC,Saldana11
n-nonadecane,441.0,1.0,CCCCCCCCCCCCCCCCCCC,Saldana11
n-nonane,304.0,1.0,CCCCCCCCC,Saldana11
n-octadecane,438.0,1.0,CCCCCCCCCCCCCCCCCC,Saldana11
n-octane,286.0,1.0,CCCCCCCC,Saldana11
n-pentadecane,388.0,1.0,CCCCCCCCCCCCCCC,Saldana11
n-pentane,233.0,1.0,CCCCC,Saldana11
n-tetradecane,373.0,1.0,CCCCCCCCCCCCCC,Saldana11
n-tridecane,352.0,1.0,CCCCCCCCCCCCC,Saldana11
n-undecane,338.0,1.0,CCCCCCCCCCC,Saldana11
ALLYLTRICHLOROGERMANE,328.15,1.0,C=CC[Ge](Cl)(Cl)Cl,gelest_germanium
ALLYLTRIETHYLGERMANE,321.15,1.0,C=CC[Ge](CC)(CC)CC,gelest_germanium
ALLYLTRIMETHYLGERMANE,274.15,1.0,C=CC[Ge](C)(C)C,gelest_germanium
BIS(CHLOROMETHYL)DIMETHYLGERMANE,324.15,1.0,C[Ge](C)(CCl)CCl,gelest_germanium
t-BUTYLDIMETHYLCHLOROGERMANE,307.15,1.0,CC(C)(C)[Ge](C)(C)Cl,gelest_germanium
n-BUTYLTRICHLOROGERMANE,355.15,1.0,CCCC[Ge](Cl)(Cl)Cl,gelest_germanium
DI-n-BUTYLDICHLOROGERMANE,380.15,1.0,CCCC[Ge](Cl)(Cl)CCCC,gelest_germanium
DICHLOROMETHYLTRIMETHYLGERMANE,306.15,1.0,C[Ge](C)(C)C(Cl)Cl,gelest_germanium
DIETHYLDICHLOROGERMANE,325.15,1.0,CC[Ge](Cl)(Cl)CC,gelest_germanium
DIMETHYLAMINOTRIMETHYLGERMANE,263.15,1.0,CN(C)[Ge](C)(C)C,gelest_germanium
DIPHENYLDICHLOROGERMANE,433.15,1.0,Cl[Ge](Cl)(c1ccccc1)c1ccccc1,gelest_germanium
DIPHENYLGERMANE,377.15,1.0,c1ccc([GeH2]c2ccccc2)cc1,gelest_germanium
ETHYLTRICHLOROGERMANE,324.15,1.0,CC[Ge](Cl)(Cl)Cl,gelest_germanium
HEXAMETHYLDIGERMANE,287.15,1.0,C[Ge](C)(C)[Ge](C)(C)C,gelest_germanium
METHACRYLOXYMETHYLTRIMETHYLGERMANE,336.15,1.0,C=C(C)C(=O)OC[Ge](C)(C)C,gelest_germanium
METHYLTRICHLOROGERMANE,283.15,1.0,C[Ge](Cl)(Cl)Cl,gelest_germanium
METHYLTRIETHOXYGERMANE,313.15,1.0,CCO[Ge](C)(OCC)OCC,gelest_germanium
TETRAALLYLGERMANE,343.15,1.0,C=CC[Ge](CC=C)(CC=C)CC=C,gelest_germanium
TETRA-n-BUTOXYGERMANE,385.15,1.0,CCCCO[Ge](OCCCC)(OCCCC)OCCCC,gelest_germanium
TETRA-n-BUTYLGERMANE,363.15,1.0,CCCC[Ge](CCCC)(CCCC)CCCC,gelest_germanium
TETRAETHOXYGERMANE,335.15,1.0,CCO[Ge](OCC)(OCC)OCC,gelest_germanium
TETRAETHYLGERMANE,315.15,1.0,CC[Ge](CC)(CC)CC,gelest_germanium
TETRAKIS(DIMETHYLAMINO)GERMANE,307.15,1.0,CN(C)[Ge](N(C)C)(N(C)C)N(C)C,gelest_germanium
TETRAISOPROPOXYGERMANE,341.15,1.0,CC(C)O[Ge](OC(C)C)(OC(C)C)OC(C)C,gelest_germanium
TETRAMETHOXYGERMANE,307.15,1.0,CO[Ge](OC)(OC)OC,gelest_germanium
TETRAMETHYLGERMANE,254.15,1.0,C[Ge](C)(C)C,gelest_germanium
TRI-n-BUTYLCHLOROGERMANE,367.15,1.0,CCCC[Ge](Cl)(CCCC)CCCC,gelest_germanium
TRI-n-BUTYLGERMANE,351.15,1.0,CCCC[GeH](CCCC)CCCC,gelest_germanium
TRICHLOROGERMANE,285.15,1.0,Cl[GeH](Cl)Cl,gelest_germanium
TRIETHYLCHLOROGERMANE,311.15,1.0,CC[Ge](Cl)(CC)CC,gelest_germanium
TRIETHYLGERMANE,278.15,1.0,CC[GeH](CC)CC,gelest_germanium
TRIISOPROPYLCHLOROGERMANE,339.15,1.0,CC(C)[Ge](Cl)(C(C)C)C(C)C,gelest_germanium
TRIMETHYLBROMOGERMANE,310.15,1.0,C[Ge](C)(C)Br,gelest_germanium
TRIMETHYLCHLOROGERMANE,274.15,1.0,C[Ge](C)(C)Cl,gelest_germanium
VINYLTRIETHYLGERMANE,305.15,1.0,C=C[Ge](CC)(CC)CC,gelest_germanium
ALUMINUM DIISOPROPOXIDE ETHYLACETOACETATE,323.15,1.0,CC(C)[O-].CC(C)[O-].CCOC(=O)CC(C)=O.[Al+2],gelest_metal-organics
ANTIMONY(III) n-BUTOXIDE,341.15,1.0,CCCC[O-].CCCC[O-].CCCC[O-].[Sb+3],gelest_metal-organics
ARSENIC TRIETHOXIDE,322.15,1.0,CC[O-].CC[O-].CC[O-].[As+3],gelest_metal-organics
BORON ALLYLOXIDE,304.15,1.0,C=CCOCC=C.[B],gelest_metal-organics
BORON n-BUTOXIDE,366.15,1.0,CCCC[O-].CCCC[O-].CCCC[O-].[B+3],gelest_metal-organics
BORON ETHOXIDE,284.15,1.0,CC[O-].CC[O-].CC[O-].[B+3],gelest_metal-organics
BORON ISOPROPOXIDE,301.15,1.0,CC(C)[O-].CC(C)[O-].CC(C)[O-].[B+3],gelest_metal-organics
BORON METHOXIDE,272.15,1.0,C[O-].C[O-].C[O-].[B+3],gelest_metal-organics
BORON METHOXYETHOXIDE,386.15,1.0,COC(C)[O-].COC(C)[O-].COC(C)[O-].[B+3],gelest_metal-organics
NICKEL DI-n-BUTYLDITHIOCARBAMATE,533.15,1.0,CCCCN(CCCC)C(=S)[S-].CCCCN(CCCC)C(=S)[S-].[Ni+2],gelest_metal-organics
NIOBIUM(V) n-BUTOXIDE,363.15,1.0,CCCC[O-].CCCC[O-].CCCC[O-].CCCC[O-].CCCC[O-].[Nb+5],gelest_metal-organics
NIOBIUM(V) ETHOXIDE,347.15,1.0,CC[O-].CC[O-].CC[O-].CC[O-].CC[O-].[Nb+5],gelest_metal-organics
TANTALUM(V) n-BUTOXIDE,339.15,1.0,CCCC[O-].CCCC[O-].CCCC[O-].CCCC[O-].CCCC[O-].[Ta+5],gelest_metal-organics
TANTALUM(V) ETHOXIDE,313.15,1.0,CC[O-].CC[O-].CC[O-].CC[O-].CC[O-].[Ta+5],gelest_metal-organics
TITANIUM n-BUTOXIDE,349.15,1.0,CCCC[O-].CCCC[O-].CCCC[O-].CCCC[O-].[Ti+4],gelest_metal-organics
TITANIUM CHLORIDE TRIISOPROPOXIDE,295.15,1.0,CC(C)[O-].CC(C)[O-].CC(C)[O-].[Cl-].[Ti+4],gelest_metal-organics
TITANIUM ETHOXIDE,301.15,1.0,CC[O-].CC[O-].CC[O-].CC[O-].[Ti+4],gelest_metal-organics
TITANIUM ETHOXIDE,303.15,1.0,CC[O-].CC[O-].CC[O-].CC[O-].[Ti+4],gelest_metal-organics
TITANIUM DIISOPROPOXIDE BIS(ETHYLACETOACETATE),300.15,1.0,CC(C)[O-].CC(C)[O-].CCCC(=O)CC(=O)[O-].CCCC(=O)CC(=O)[O-].[Ti+4],gelest_metal-organics
TITANIUM ISOBUTOXIDE,350.15,1.0,CC(C)C[O-].CC(C)C[O-].CC(C)C[O-].CC(C)C[O-].[Ti+4],gelest_metal-organics
TITANIUM ISOPROPOXIDE,298.15,1.0,CC(C)[O-].CC(C)[O-].CC(C)[O-].CC(C)[O-].[Ti+4],gelest_metal-organics
TITANIUM METHOXIDE,321.15,1.0,C[O-].C[O-].C[O-].C[O-].[Ti+4],gelest_metal-organics
TITANIUM METHYLPHENOXIDE,339.15,1.0,Cc1ccccc1[O-].Cc1ccccc1[O-].Cc1ccccc1[O-].Cc1ccccc1[O-].[Ti+4],gelest_metal-organics
TITANIUM n-PROPOXIDE,318.15,1.0,CCC[O-].CCC[O-].CCC[O-].CCC[O-].[Ti+4],gelest_metal-organics
TITANIUM TRIISOSTEAROYLISOPROPOXIDE,366.15,1.0,CC(C)CCCCCCCCCCCCCCC(=O)C(C(=O)CCCCCCCCCCCCCCC(C)C)(C(=O)CCCCCCCCCCCCCCC(C)C)C(C)[O-].CC(C)CCCCCCCCCCCCCCC(=O)C(C(=O)CCCCCCCCCCCCCCC(C)C)(C(=O)CCCCCCCCCCCCCCC(C)C)C(C)[O-].CC(C)CCCCCCCCCCCCCCC(=O)C(C(=O)CCCCCCCCCCCCCCC(C)C)(C(=O)CCCCCCCCCCCCCCC(C)C)C(C)[O-].CC(C)CCCCCCCCCCCCCCC(=O)C(C(=O)CCCCCCCCCCCCCCC(C)C)(C(=O)CCCCCCCCCCCCCCC(C)C)C(C)[O-].[Ti+4],gelest_metal-organics
ZIRCONIUM t-BUTOXIDE,358.15,1.0,CC(C)(C)[O-].CC(C)(C)[O-].CC(C)(C)[O-].CC(C)(C)[O-].[Zr+4],gelest_metal-organics
CALCIUM 2-ETHYLHEXANOATE,400.15,1.0,CCCCC(CC)C(=O)[O-].CCCCC(CC)C(=O)[O-].[Ca+2],gelest_metal-organics
SILVER NEODECANOATE,375.15,1.0,CC(C)(C)CCCCCC(=O)[O-].[Ag+],gelest_metal-organics
ZINC 2-ETHYLHEXANOATE,400.15,1.0,CCCCC(CC)C(=O)[O-].CCCCC(CC)C(=O)[O-].[Zn+2],gelest_metal-organics
ZINC NEODECANOATE,375.15,1.0,CC(C)(C)CCCCCC(=O)[O-].CC(C)(C)CCCCCC(=O)[O-].[Zn+2],gelest_metal-organics
TITANIUM TETRACHLORIDE,377.15,1.0,Cl[Ti](Cl)(Cl)Cl,gelest_metal-organics
DIMETHYLALUMINUM CHLORIDE,255.15,1.0,C[Al](C)Cl,gelest_metal-organics
DIMETHYLISOPROPOXYALUMINUM,278.15,1.0,CC(C)O[Al](C)C,gelest_metal-organics
DIMETHYLCADMIUM,255.15,1.0,C[Cd]C,gelest_metal-organics
VINYLFERROCENE,335.15,1.0,C=C[c-]1cccc1.[Fe+2].c1cc[cH-]c1,gelest_metal-organics
TRIMETHYLGALLIUM,272.15,1.0,C[Ga](C)C,gelest_metal-organics
TRIS(DIMETHYLAMINO)GALLIUM,329.15,1.0,CN(C)[Ga](N(C)C)N(C)C,gelest_metal-organics
HAFNIUM TETRAKIS(ETHYLMETHYLAMIDE),283.15,1.0,CC[N-]C.CC[N-]C.CC[N-]C.CC[N-]C.[Hf+4],gelest_metal-organics
DICYCLOHEXYLPHOSPHINE,383.15,1.0,C1CCC(PC2CCCCC2)CC1,gelest_metal-organics
DIETHYLPHOSPHITE,363.15,1.0,CCOP([O-])OCC,gelest_metal-organics
DIPHENYLPHOSPHINE,383.15,1.0,c1ccc(Pc2ccccc2)cc1,gelest_metal-organics
DIPHENYLPHOSPHORYL AZIDE,385.15,1.0,[N-]=[N+]=NP(=O)(c1ccccc1)c1ccccc1,gelest_metal-organics
TETRADECYL(TRIHEXYL)PHOSPHONIUM CHLORIDE,391.15,1.0,CCCCCCCCCCCCCC[P+](CCCCCC)(CCCCCC)CCCCCC.[Cl-],gelest_metal-organics
TRIETHYLPHOSPHATE,389.15,1.0,CCOP(=O)(OCC)OCC,gelest_metal-organics
TRIETHYLPHOSPHITE,327.15,1.0,CCOP(OCC)OCC,gelest_metal-organics
TRIMETHYLPHOSPHITE,300.15,1.0,COP(OC)OC,gelest_metal-organics
TRIOCTYLPHOSPHINE,420.15,1.0,CCCCCCCCP(CCCCCCCC)CCCCCCCC,gelest_metal-organics
TRIPHENYLPHOSPHINE,455.15,1.0,c1ccc(P(c2ccccc2)c2ccccc2)cc1,gelest_metal-organics
TRIS(DIETHYLAMINO)(t-BUTYLIMINO) TANTALUM,319.15,1.0,CCN(CC)[Ta](=NC(C)(C)C)(N(CC)CC)N(CC)CC,gelest_metal-organics
TITANIUM TETRAKIS(DIETHYLAMIDE),310.15,1.0,CC[N-]CC.CC[N-]CC.CC[N-]CC.CC[N-]CC.[Ti+4],gelest_metal-organics
TITANIUM TETRAKIS(DIMETHYLAMIDE),281.15,1.0,C[N-]C.C[N-]C.C[N-]C.C[N-]C.[Ti+4],gelest_metal-organics
TITANIUM TETRAKIS(ETHYLMETHYLAMIDE),283.15,1.0,CC[N-]C.CC[N-]C.CC[N-]C.CC[N-]C.[Ti+4],gelest_metal-organics
ZIRCONIUM TETRAKIS(ETHYLMETHYLAMIDE),283.15,1.0,CC[N-]C.CC[N-]C.CC[N-]C.CC[N-]C.[Zr+4],gelest_metal-organics
TETRAETHYLLEAD,346.15,1.0,CC[Pb](CC)(CC)CC,gelest_metal-organics
TRIS(TRIMETHYLSILOXY)BORON,315.15,1.0,C[Si](C)(C)OB(O[Si](C)(C)C)O[Si](C)(C)C,gelest_metal-organics
Trichlorosilane,245.0,1.0,Cl[SiH](Cl)Cl,pan12
Dichlorosilane,236.0,1.0,Cl[SiH2]Cl,pan12
Methyltrichlorosilane,276.0,1.0,C[Si](Cl)(Cl)Cl,pan12
Methyldichlorosilane,241.0,1.0,C[SiH](Cl)Cl,pan12
Dichloromethylmethyldichlorosilane,301.0,1.0,ClC(Cl)[Si](Cl)(Cl)C,pan12
Ethyltrichlorosilane,295.0,1.0,C(C)[Si](Cl)(Cl)Cl,pan12
Dimethyldichlorosilane,257.0,1.0,C[Si](Cl)(Cl)C,pan12
Dimethylchlorosilane,245.0,1.0,C[SiH](Cl)C,pan12
"1,1,1-Trifluoropropyltrichlorosilane",288.0,1.0,FC(C(C)[Si](Cl)(Cl)Cl)(F)F,pan12
Allyltrichlorosilane,304.0,1.0,C(C=C)[Si](Cl)(Cl)Cl,pan12
Methylvinyldichlorosilane,272.0,1.0,CC=C[SiH](Cl)Cl,pan12
3-Chloropropyltrichlorosilane,357.0,1.0,ClCCC[Si](Cl)(Cl)Cl,pan12
Bromomethyldimethylchlorosilane,314.0,1.0,BrC[Si](Cl)(C)C,pan12
Chloromethyldimethylchlorosilane,295.0,1.0,ClC[Si](Cl)(C)C,pan12
Trimethylbromosilane,270.0,1.0,C[Si](Br)(C)C,pan12
Trimethylchlorosilane,255.0,1.0,C[Si](Cl)(C)C,pan12
Trimethoxysilane,264.0,1.0,CO[SiH](OC)OC,pan12
Trimethylsilane,204.0,1.0,C[SiH](C)C,pan12
Cyanoethylmethyldichlorosilane,333.0,1.0,C(#N)CC[Si](Cl)(Cl)C,pan12
Allylmethyldichlorosilane,300.0,1.0,C(C=C)C[SiH](Cl)Cl,pan12
3-Chloropropylmethyldichlorosilane,359.0,1.0,ClCCC[Si](Cl)(Cl)C,pan12
t-Butyltrichlorosilane,294.0,1.0,C(C)(C)(C)[Si](Cl)(Cl)Cl,pan12
Isobutyltrichlorosilane,310.0,1.0,C(C(C)C)[Si](Cl)(Cl)Cl,pan12
n-Butyltrichlorosilane,327.0,1.0,C(CCC)[Si](Cl)(Cl)Cl,pan12
n-Propylmethyldichlorosilane,300.0,1.0,C(CC)[Si](Cl)(Cl)C,pan12
Bromomethyltrimethylsilane,289.0,1.0,BrC[Si](C)(C)C,pan12
Ethyldimethylchlorosilane,269.0,1.0,C(C)[Si](Cl)(C)C,pan12
"1,3-Dichlorotetramethyldisiloxane",288.0,1.0,Cl[Si](O[Si](Cl)(C)C)(C)C,pan12
Dimethyldimethoxysilane,265.0,1.0,C[Si](OC)(OC)C,pan12
Methyltrimethoxysilane,284.0,1.0,C[Si](OC)(OC)OC,pan12
Tetramethoxysilane,294.0,1.0,CO[Si](OC)(OC)OC,pan12
Tetramethylsilane,245.0,1.0,C[Si](C)(C)C,pan12
"(N,N-Dimethylamino)dimethylsilane",260.0,1.0,CN(C)[SiH](C)C,pan12
"1,1,3,3-Tetramethyldisiloxane",251.0,1.0,C[SiH](O[SiH](C)C)C,pan12
Tetramethyldisilazane,284.0,1.0,CN([Si](C)(C)C)[SiH3],pan12
Cyclopentyltrichlorosilane,350.0,1.0,C1(CCCC1)[Si](Cl)(Cl)Cl,pan12
Trimethylsilyltrifluoroacetate,273.0,1.0,C[Si](C)(C)OC(C(F)(F)F)=O,pan12
Cyclopentyldichlorosilane,316.0,1.0,C1(CCCC1)[SiH](Cl)Cl,pan12
Allyldimethylchlorosilane,278.0,1.0,C(C=C)[Si](Cl)(C)C,pan12
3-Chloro-2-methylpropylmethyldichlorosilane,363.0,1.0,ClCC(C[Si](Cl)(Cl)C)C,pan12
n-Butylmethyldichlorosilane,303.0,1.0,C(CCC)[Si](Cl)(Cl)C,pan12
Methylvinyldimethoxysilane,277.0,1.0,CC=C[SiH](OC)OC,pan12
Trimethylvinylsilane,239.0,1.0,CC(=C(C)C)[SiH3],pan12
Diethylmethylchlorosilane,288.0,1.0,C(C)[Si](Cl)(C)CC,pan12
Chloromethyldimethylethoxysilane,299.0,1.0,ClC[Si](OCC)(C)C,pan12
Ethyltrimethoxysilane,300.0,1.0,C(C)[Si](OC)(OC)OC,pan12
"(N,N-Dimethylamino)trimethylsilane",254.0,1.0,CN(C)[Si](C)(C)C,pan12
Bis(dimethylamino)methylsilane,270.0,1.0,CN(C)C(N(C)C)[SiH3],pan12
Pentamethyldisiloxane,254.0,1.0,C[SiH](O[Si](C)(C)C)C,pan12
Phenyldichlorosilane,333.0,1.0,C1(=CC=CC=C1)[SiH](Cl)Cl,pan12
Phenylsilane,281.0,1.0,C1(=CC=CC=C1)[SiH3],pan12
1-Hexenyltrichlorosilane,333.0,1.0,C(=CCCCC)[Si](Cl)(Cl)Cl,pan12
Bis(chloromethyl)tetramethyldisiloxane,346.0,1.0,ClC[Si](O[Si](C)(C)C)(C)CCl,pan12
N-Methyl-N-trimethylsilyltrifluoroacetamide,298.0,1.0,CN(C(C(F)(F)F)=O)[Si](C)(C)C,pan12
Propargyloxytrimethylsilane,300.0,1.0,C(C#C)O[Si](C)(C)C,pan12
Dimethyldiacetoxysilane,310.0,1.0,C[Si](OC(C)=O)(OC(C)=O)C,pan12
Divinyldimethylsilane,281.0,1.0,C(=C)[Si](C)(C)C=C,pan12
n-Hexyltrichlorosilane,358.0,1.0,C(CCCCC)[Si](Cl)(Cl)Cl,pan12
Vinyldimethylethoxysilane,277.0,1.0,C(=C)[Si](OCC)(C)C,pan12
"1,1-Dimethyl-1-sila-2-oxacyclohexane",287.0,1.0,C[Si]1(OCCCC1)C,pan12
Allyloxytrimethylsilane,273.0,1.0,C(C=C)O[Si](C)(C)C,pan12
Acetoxymethyltrimethylsilane,293.0,1.0,C(C)(=O)OC[Si](C)(C)C,pan12
Allyltrimethylsilane,280.0,1.0,C(C=C)[Si](C)(C)C,pan12
Triethylchlorosilane,303.0,1.0,C(C)[Si](Cl)(CC)CC,pan12
t-Butyldimethylchlorosilane,295.0,1.0,C(C)(C)(C)[Si](Cl)(C)C,pan12
3-Chloropropyltrimethoxysilane,348.0,1.0,ClCCC[Si](OC)(OC)OC,pan12
Trimethyl-n-propoxysilane,283.0,1.0,C[Si](OCCC)(C)C,pan12
t-Butyldimethylsilanol,318.0,1.0,C(C)(C)(C)[Si](O)(C)C,pan12
Dimethyldiethoxysilane,284.0,1.0,C[Si](OCC)(OCC)C,pan12