compound,flashpoint,pure substance,smiles,source
1-nitronaphthalene,437.15,1.0,C1=CC=C2C(=C1)C=CC=C2[N+](=O)[O-],pubchem
9H-fluorene,424.15,1.0,C1C2=CC=CC=C2C3=CC=CC=C31,pubchem
9H-carbazole,493.15,1.0,C1=CC=C2C(=C1)C3=CC=CC=C3N2,pubchem
"(1R,9S)-4,11,11-trimethyl-8-methylidenebicyclo[7.2.0]undec-4-ene",374.15,1.0,CC1=CCCC(=C)C2CC(C2CC1)(C)C,pubchem
"2,3-dimethylaniline",370.15,1.0,CC1=C(C(=CC=C1)N)C,pubchem
"1,2,3-trichlorobenzene",385.15,1.0,C1=CC(=C(C(=C1)Cl)Cl)Cl,pubchem
"2,6-dimethylaniline",364.15,1.0,CC1=C(C(=CC=C1)C)N,pubchem
"1,1,2,3,4,4-hexachlorobuta-1,3-diene",363.15,1.0,C(=C(Cl)Cl)(C(=C(Cl)Cl)Cl)Cl,pubchem
"2,4,6-trichlorophenol",372.15,1.0,C1=C(C=C(C(=C1Cl)O)Cl)Cl,pubchem
1-ethenylpyrrolidin-2-one,366.15,1.0,C=CN1CCCC1=O,pubchem
2-tert-butylphenol,383.15,1.0,CC(C)(C)C1=CC=CC=C1O,pubchem
2-propan-2-ylphenol,377.15,1.0,CC(C)C1=CC=CC=C1O,pubchem
1-methyl-2-nitrobenzene,379.15,1.0,CC1=CC=CC=C1[N+](=O)[O-],pubchem
1-chloro-2-nitrobenzene,400.15,1.0,C1=CC=C(C(=C1)[N+](=O)[O-])Cl,pubchem
2-nitroaniline,441.15,1.0,C1=CC=C(C(=C1)N)[N+](=O)[O-],pubchem
2-nitrophenol,381.15,1.0,C1=CC=C(C(=C1)[N+](=O)[O-])O,pubchem
"2,4,6-trinitrophenol",423.15,1.0,C1=C(C=C(C(=C1[N+](=O)[O-])O)[N+](=O)[O-])[N+](=O)[O-],pubchem
"1,4-dichloro-2-nitrobenzene",408.15,1.0,C1=CC(=C(C=C1Cl)[N+](=O)[O-])Cl,pubchem
4-methyl-2-nitroaniline,430.15,1.0,CC1=CC(=C(C=C1)N)[N+](=O)[O-],pubchem
2-butan-2-ylphenol,385.15,1.0,CCC(C)C1=CC=CC=C1O,pubchem
5-methyl-2-propan-2-ylphenol,383.15,1.0,CC1=CC(=C(C=C1)C(C)C)O,pubchem
"2,4-dimethyl-1-nitrobenzene",380.15,1.0,CC1=CC(=C(C=C1)[N+](=O)[O-])C,pubchem
1-(bromomethyl)-2-methylbenzene,355.15,1.0,CC1=CC=CC=C1CBr,pubchem
2-chlorobenzaldehyde,361.15,1.0,C1=CC=C(C(=C1)C=O)Cl,pubchem
2-ethylphenol,351.15,1.0,CCC1=CC=CC=C1O,pubchem
2-hydroxybenzaldehyde,351.15,1.0,C1=CC=C(C(=C1)C=O)O,pubchem
2-methoxyaniline,372.15,1.0,COC1=CC=CC=C1N,pubchem
1-chloronaphthalene,394.15,1.0,C1=CC=C2C(=C1)C=CC=C2Cl,pubchem
naphthalen-1-ol,426.15,1.0,C1=CC=C2C(=C1)C=CC=C2O,pubchem
2-phenylphenol,397.15,1.0,C1=CC=C(C=C1)C2=CC=CC=C2O,pubchem
"2,4,6-tris[(dimethylamino)methyl]phenol",397.15,1.0,CN(C)CC1=CC(=C(C(=C1)CN(C)C)O)CN(C)C,pubchem
"1,3-diisocyanato-2-methylbenzene",405.15,1.0,CC1=C(C=CC=C1N=C=O)N=C=O,pubchem
"benzene-1,2-dicarbonitrile",435.15,1.0,C1=CC=C(C(=C1)C#N)C#N,pubchem
"1,2,3,4,4a,5,6,7,8,8a-decahydronaphthalene",330.15,1.0,C1CCC2CCCCC2C1,pubchem
quinoline,332.15,1.0,C1=CC=C2C(=C1)C=CC=N2,pubchem
1-methoxy-2-nitrobenzene,415.15,1.0,COC1=CC=CC=C1[N+](=O)[O-],pubchem
N-butyl-N-phenylacetamide,414.15,1.0,CCCCN(C1=CC=CC=C1)C(=O)C,pubchem
2-methylnaphthalene,371.15,1.0,CC1=CC2=CC=CC=C2C=C1,pubchem
2-chloronaphthalene,398.15,1.0,C1=CC=C2C=C(C=CC2=C1)Cl,pubchem
naphthalen-2-amine,430.15,1.0,C1=CC=C2C=C(C=CC2=C1)N,pubchem
2-methylquinoline,352.15,1.0,CC1=NC2=CC=CC=C2C=C1,pubchem
"N,N-diethylaniline",358.15,1.0,CCN(CC)C1=CC=CC=C1,pubchem
"1,3-diphenylbenzene",464.15,1.0,C1=CC=C(C=C1)C2=CC(=CC=C2)C3=CC=CC=C3,pubchem
6-methylchromen-2-one,403.15,1.0,CC1=CC2=C(C=C1)OC(=O)C=C2,pubchem
"1,1'-biphenyl",386.15,1.0,C1=CC=C(C=C1)C2=CC=CC=C2,pubchem
1-bromo-4-phenylbenzene,416.15,1.0,C1=CC=C(C=C1)C2=CC=C(C=C2)Br,pubchem
4-phenylphenol,439.15,1.0,C1=CC=C(C=C1)C2=CC=C(C=C2)O,pubchem
10H-phenothiazine,475.15,1.0,C1=CC=C2C(=C1)NC3=CC=CC=C3S2,pubchem
1-nitro-4-phenylbenzene,416.15,1.0,C1=CC=C(C=C1)C2=CC=C(C=C2)[N+](=O)[O-],pubchem
"1,4-diphenylbenzene",480.15,1.0,C1=CC=C(C=C1)C2=CC=C(C=C2)C3=CC=CC=C3,pubchem
"1,2-dimethoxy-4-prop-2-enylbenzene",372.15,1.0,COC1=C(C=C(C=C1)CC=C)OC,pubchem
methyl benzoate,356.15,1.0,COC(=O)C1=CC=CC=C1,pubchem
"2-chloro-N,N-bis(prop-2-enyl)acetamide",459.15,1.0,C=CCN(CC=C)C(=O)CCl,pubchem
butyl 4-hydroxybenzoate,454.15,1.0,CCCCOC(=O)C1=CC=C(C=C1)O,pubchem
benzoyl benzenecarboperoxoate,353.15,1.0,C1=CC=C(C=C1)C(=O)OOC(=O)C2=CC=CC=C2,pubchem
"2-ethylhexane-1,3-diol",400.15,1.0,CCCC(C(CC)CO)O,pubchem
2-[2-[2-(2-ethylbutanoyloxy)ethoxy]ethoxy]ethyl 2-ethylbutanoate,469.15,1.0,CCC(CC)C(=O)OCCOCCOCCOC(=O)C(CC)CC,pubchem
1H-indene,351.15,1.0,C1C=CC2=CC=CC=C21,pubchem
2H-benzotriazole,443.15,1.0,C1=CC2=NNN=C2C=C1,pubchem
1-bromo-2-methylbenzene,352.15,1.0,CC1=CC=CC=C1Br,pubchem
"1,2-xylene",290.15,1.0,CC1=CC=CC=C1C,pubchem
1-chloro-2-methylbenzene,325.15,1.0,CC1=CC=CC=C1Cl,pubchem
"1,2-dichlorobenzene",339.15,1.0,C1=CC=C(C(=C1)Cl)Cl,pubchem
2-chloroaniline,371.15,1.0,C1=CC=C(C(=C1)N)Cl,pubchem
1-fluoro-2-methylbenzene,286.15,1.0,CC1=CC=CC=C1F,pubchem
2-methylaniline,358.15,1.0,CC1=CC=CC=C1N,pubchem
"benzene-1,2-diamine",429.15,1.0,C1=CC=C(C(=C1)N)N,pubchem
2-bromophenol,315.15,1.0,C1=CC=C(C(=C1)O)Br,pubchem
2-chlorophenol,337.15,1.0,C1=CC=C(C(=C1)O)Cl,pubchem
"1,2,4-trimethylbenzene",317.15,1.0,CC1=CC(=C(C=C1)C)C,pubchem
"3,4-dimethylaniline",371.15,1.0,CC1=C(C=C(C=C1)N)C,pubchem
"2,4-dimethylaniline",369.15,1.0,CC1=CC(=C(C=C1)N)C,pubchem
4-chloro-2-methylaniline,433.15,1.0,CC1=C(C=CC(=C1)Cl)N,pubchem
"2,4-dichloro-1-methylbenzene",472.15,1.0,CC1=C(C=C(C=C1)Cl)Cl,pubchem
3-chloro-4-methylaniline,373.15,1.0,CC1=C(C=C(C=C1)N)Cl,pubchem
"3,4-dichloroaniline",439.15,1.0,C1=CC(=C(C=C1N)Cl)Cl,pubchem
"2,5-dimethylaniline",367.15,1.0,CC1=CC(=C(C=C1)C)N,pubchem
"4-methylbenzene-1,3-diamine",422.15,1.0,CC1=C(C=C(C=C1)N)N,pubchem
"2,5-dichloroaniline",386.15,1.0,C1=CC(=C(C=C1Cl)N)Cl,pubchem
2-amino-4-chlorophenol,443.15,1.0,C1=CC(=C(C=C1Cl)N)O,pubchem
diethyl oxalate,349.15,1.0,CCOC(=O)C(=O)OCC,pubchem
"1,2,4,5-tetramethylbenzene",327.15,1.0,CC1=CC(=C(C=C1C)C)C,pubchem
"1,2,4,5-tetrachlorobenzene",428.15,1.0,C1=C(C(=CC(=C1Cl)Cl)Cl)Cl,pubchem
"2,4,5-trichlorophenol",406.15,1.0,C1=C(C(=CC(=C1Cl)Cl)Cl)O,pubchem
2-phenyloxirane,352.15,1.0,C1C(O1)C2=CC=CC=C2,pubchem
chloro(diethyl)alumane,250.15,1.0,CC[Al](CC)Cl,pubchem
"1,2-dibromo-3-chloropropane",350.15,1.0,C(C(CBr)Br)Cl,pubchem
"1,2,3-trichloropropane",355.15,1.0,C(C(CCl)Cl)Cl,pubchem
"1,2,3-trichloroprop-1-ene",358.15,1.0,C(C(=CCl)Cl)Cl,pubchem
pentan-3-one,286.15,1.0,CCC(=O)CC,pubchem
"1,3-dichloropropan-2-ol",347.15,1.0,C(C(CCl)O)Cl,pubchem
"3-chloropropane-1,2-diol",332.15,1.0,C(C(CCl)O)O,pubchem
N-butan-2-ylidenehydroxylamine,332.15,1.0,CCC(=NO)C,pubchem
"1,3-dimethylurea",427.15,1.0,CNC(=O)NC,pubchem
methyl prop-2-enoate,280.15,1.0,COC(=O)C=C,pubchem
methyl 2-chloroacetate,325.15,1.0,COC(=O)CCl,pubchem
methylcyclopentane,249.15,1.0,CC1CCCC1,pubchem
cyclopentanol,324.15,1.0,C1CCC(C1)O,pubchem
oxolan-2-one,371.15,1.0,C1CC(=O)OC1,pubchem
"1,3-dioxolan-2-one",416.15,1.0,C1COC(=O)O1,pubchem
2-tert-butyl-4-(5-tert-butyl-4-hydroxy-2-methylphenyl)sulfanyl-5-methylphenol,489.15,1.0,CC1=CC(=C(C=C1SC2=CC(=C(C=C2C)O)C(C)(C)C)C(C)(C)C)O,pubchem
2-[di(propan-2-yl)amino]ethanol,352.15,1.0,CC(C)N(CCO)C(C)C,pubchem
"2,4-dinitroaniline",497.15,1.0,C1=CC(=C(C=C1[N+](=O)[O-])[N+](=O)[O-])N,pubchem
(2-methyl-5-prop-1-en-2-ylcyclohex-2-en-1-yl) acetate,370.15,1.0,CC1=CCC(CC1OC(=O)C)C(=C)C,pubchem
ethyl 2-methylprop-2-enoate,289.15,1.0,CCOC(=O)C(=C)C,pubchem
ethyl 2-hydroxypropanoate,319.15,1.0,CCOC(=O)C(C)O,pubchem
2-methylpropanoyl 2-methylpropanoate,332.15,1.0,CC(C)C(=O)OC(=O)C(C)C,pubchem
"1-N,1-N,3-N,3-N-tetramethylbutane-1,3-diamine",319.15,1.0,CC(CCN(C)C)N(C)C,pubchem
2-methylpropyl 2-methylpropanoate,310.15,1.0,CC(C)COC(=O)C(C)C,pubchem
2-methylpropyl 2-methylprop-2-enoate,322.15,1.0,CC(C)COC(=O)C(=C)C,pubchem
butyl 2-methylprop-2-enoate,325.15,1.0,CCCCOC(=O)C(=C)C,pubchem
2-(2-methylprop-2-enoyloxy)ethyl 2-methylprop-2-enoate,374.15,1.0,CC(=C)C(=O)OCCOC(=O)C(=C)C,pubchem
triethylborane,237.15,1.0,B(CC)(CC)CC,pubchem
2-ethylbutan-1-ol,326.15,1.0,CCC(CC)CO,pubchem
2-ethylbutanal,294.15,1.0,CCC(CC)C=O,pubchem
oxolan-2-ylmethanol,348.15,1.0,C1CC(OC1)CO,pubchem
furan-2-ylmethanol,348.15,1.0,C1=COC(=C1)CO,pubchem
furan-2-carbaldehyde,333.15,1.0,C1=COC(=C1)C=O,pubchem
tert-butylbenzene,333.15,1.0,CC(C)(C)C1=CC=CC=C1,pubchem
trichloromethylbenzene,400.15,1.0,C1=CC=C(C=C1)C(Cl)(Cl)Cl,pubchem
trifluoromethylbenzene,285.15,1.0,C1=CC=C(C=C1)C(F)(F)F,pubchem
benzenesulfonic acid,386.15,1.0,C1=CC=C(C=C1)S(=O)(=O)O,pubchem
trichloro(phenyl)silane,364.15,1.0,C1=CC=C(C=C1)[Si](Cl)(Cl)Cl,pubchem
1-chloro-3-(trifluoromethyl)benzene,320.15,1.0,C1=CC(=CC(=C1)Cl)C(F)(F)F,pubchem
3-(trifluoromethyl)aniline,358.15,1.0,C1=CC(=CC(=C1)N)C(F)(F)F,pubchem
1-nitro-3-(trifluoromethyl)benzene,374.15,1.0,C1=CC(=CC(=C1)[N+](=O)[O-])C(F)(F)F,pubchem
1-tert-butyl-4-methylbenzene,331.15,1.0,CC1=CC=C(C=C1)C(C)(C)C,pubchem
4-tert-butylphenol,386.15,1.0,CC(C)(C)C1=CC=C(C=C1)O,pubchem
1-chloro-4-(trifluoromethyl)benzene,320.15,1.0,C1=CC(=CC=C1C(F)(F)F)Cl,pubchem
4-methylbenzenesulfonyl chloride,401.15,1.0,CC1=CC=C(C=C1)S(=O)(=O)Cl,pubchem
cumene,309.15,1.0,CC(C)C1=CC=CC=C1,pubchem
prop-1-en-2-ylbenzene,327.15,1.0,CC(=C)C1=CC=CC=C1,pubchem
1-phenylethanamine,352.15,1.0,CC(C1=CC=CC=C1)N,pubchem
1-phenylethanol,358.15,1.0,CC(C1=CC=CC=C1)O,pubchem
1-phenylethanone,355.15,1.0,CC(=O)C1=CC=CC=C1,pubchem
dichloromethylbenzene,365.15,1.0,C1=CC=C(C=C1)C(Cl)Cl,pubchem
benzoyl chloride,345.15,1.0,C1=CC=C(C=C1)C(=O)Cl,pubchem
"N,N-dimethylcyclohexanamine",315.15,1.0,CN(C)C1CCCCC1,pubchem
nitrobenzene,361.15,1.0,C1=CC=C(C=C1)[N+](=O)[O-],pubchem
1-methyl-3-nitrobenzene,379.15,1.0,CC1=CC(=CC=C1)[N+](=O)[O-],pubchem
"1,2-dimethyl-4-nitrobenzene",380.15,1.0,CC1=C(C=C(C=C1)[N+](=O)[O-])C,pubchem
"1,2-dichloro-4-nitrobenzene",397.15,1.0,C1=CC(=C(C=C1[N+](=O)[O-])Cl)Cl,pubchem
"benzene-1,3-dicarbonyl chloride",453.15,1.0,C1=CC(=CC(=C1)C(=O)Cl)C(=O)Cl,pubchem
"1,3-dinitrobenzene",423.15,1.0,C1=CC(=CC(=C1)[N+](=O)[O-])[N+](=O)[O-],pubchem
methyl 4-methylbenzoate,369.15,1.0,CC1=CC=C(C=C1)C(=O)OC,pubchem
1-methyl-4-propan-2-ylbenzene,320.15,1.0,CC1=CC=C(C=C1)C(C)C,pubchem
"N,N,4-trimethylaniline",349.15,1.0,CC1=CC=C(C=C1)N(C)C,pubchem
"4-N,4-N-dimethylbenzene-1,4-diamine",364.15,1.0,CN(C)C1=CC=C(C=C1)N,pubchem
1-methyl-4-nitrobenzene,379.15,1.0,CC1=CC=C(C=C1)[N+](=O)[O-],pubchem
1-chloro-4-nitrobenzene,383.15,1.0,C1=CC(=CC=C1[N+](=O)[O-])Cl,pubchem
4-nitroaniline,472.15,1.0,C1=CC(=CC=C1N)[N+](=O)[O-],pubchem
1-(4-methoxyphenyl)ethanone,411.15,1.0,CC(=O)C1=CC=C(C=C1)OC,pubchem
"benzene-1,4-dicarbonyl chloride",453.15,1.0,C1=CC(=CC=C1C(=O)Cl)C(=O)Cl,pubchem
terephthalic acid,533.15,1.0,C1=CC(=CC=C1C(=O)O)C(=O)O,pubchem
"1,4-dinitrobenzene",423.15,1.0,C1=CC(=CC=C1[N+](=O)[O-])[N+](=O)[O-],pubchem
2-(diethylamino)ethanol,333.15,1.0,CCN(CC)CCO,pubchem
bromomethylbenzene,360.15,1.0,C1=CC=C(C=C1)CBr,pubchem
4-ethenylcyclohexene,289.15,1.0,C=CC1CCC=CC1,pubchem
ethylbenzene,288.15,1.0,CCC1=CC=CC=C1,pubchem
styrene,304.15,1.0,C=CC1=CC=CC=C1,pubchem
chloromethylbenzene,340.15,1.0,C1=CC=C(C=C1)CCl,pubchem
phenylmethanamine,349.15,1.0,C1=CC=C(C=C1)CN,pubchem
benzonitrile,345.15,1.0,C1=CC=C(C=C1)C#N,pubchem
cyclohex-3-ene-1-carbaldehyde,330.15,1.0,C1CC(CC=C1)C=O,pubchem
phenylmethanethiol,343.15,1.0,C1=CC=C(C=C1)CS,pubchem
N-methylaniline,352.15,1.0,CNC1=CC=CC=C1,pubchem
phenylhydrazine,361.15,1.0,C1=CC=C(C=C1)NN,pubchem
anisole,325.15,1.0,COC1=CC=CC=C1,pubchem
2-ethenylpyridine,315.15,1.0,C=CC1=CC=CC=N1,pubchem
4-ethylmorpholine,301.15,1.0,CCN1CCOCC1,pubchem
"(2,2-dimethyl-1,3-dioxolan-4-yl)methanol",353.15,1.0,CC1(OCC(O1)CO)C,pubchem
1-ethenyl-3-methylbenzene,333.15,1.0,CC1=CC=CC(=C1)C=C,pubchem
triphenyl phosphite,491.15,1.0,C1=CC=C(C=C1)OP(OC2=CC=CC=C2)OC3=CC=CC=C3,pubchem
4-[(4-amino-3-chlorophenyl)methyl]-2-chloroaniline,386.15,1.0,C1=CC(=C(C=C1CC2=CC(=C(C=C2)N)Cl)Cl)N,pubchem
4-chlorobut-2-ynyl N-(3-chlorophenyl)carbamate,323.15,1.0,C1=CC(=CC(=C1)Cl)NC(=O)OCC#CCCl,pubchem
2-methyl-3-phenylprop-2-enal,352.15,1.0,CC(=CC1=CC=CC=C1)C=O,pubchem
"4-N-phenylbenzene-1,4-diamine",466.15,1.0,C1=CC=C(C=C1)NC2=CC=C(C=C2)N,pubchem
"4-[[4-(dimethylamino)phenyl]methyl]-N,N-dimethylaniline",484.15,1.0,CN(C)C1=CC=C(C=C1)CC2=CC=C(C=C2)N(C)C,pubchem
4-octyl-N-(4-octylphenyl)aniline,486.15,1.0,CCCCCCCCC1=CC=C(C=C1)NC2=CC=C(C=C2)CCCCCCCC,pubchem
1-isocyanato-4-[(4-isocyanatophenyl)methyl]benzene,491.15,1.0,C1=CC(=CC=C1CC2=CC=C(C=C2)N=C=O)N=C=O,pubchem
"1-N-phenyl-4-N-propan-2-ylbenzene-1,4-diamine",424.15,1.0,CC(C)NC1=CC=C(C=C1)NC2=CC=CC=C2,pubchem
4-[(4-aminophenyl)methyl]aniline,494.15,1.0,C1=CC(=CC=C1CC2=CC=C(C=C2)N)N,pubchem
4-(4-aminophenoxy)aniline,492.15,1.0,C1=CC(=CC=C1N)OC2=CC=C(C=C2)N,pubchem
benzylbenzene,403.15,1.0,C1=CC=C(C=C1)CC2=CC=CC=C2,pubchem
phenoxybenzene,388.15,1.0,C1=CC=C(C=C1)OC2=CC=CC=C2,pubchem
2-[[3-(oxiran-2-ylmethoxy)phenoxy]methyl]oxirane,450.15,1.0,C1C(O1)COC2=CC(=CC=C2)OCC3CO3,pubchem
"1-N,4-N-di(butan-2-yl)benzene-1,4-diamine",414.15,1.0,CCC(C)NC1=CC=C(C=C1)NC(C)CC,pubchem
ethyl 2-phenylacetate,372.15,1.0,CCOC(=O)CC1=CC=CC=C1,pubchem
3-oxo-N-phenylbutanamide,436.15,1.0,CC(=O)CC(=O)NC1=CC=CC=C1,pubchem
"1,2-diphenylguanidine",471.15,1.0,C1=CC=C(C=C1)NC(=NC2=CC=CC=C2)N,pubchem
"InChI=1S/C5H6/c1-2-4-5-3-1/h1-4H,5H2",298.15,1.0,C1C=CC=C1,pubchem
"N,N-dipropylpropan-1-amine",310.15,1.0,CCCN(CCC)CCC,pubchem
"N,N-bis(prop-2-enyl)prop-2-en-1-amine",312.15,1.0,C=CCN(CC=C)CC=C,pubchem
2-[bis(2-hydroxyethyl)amino]ethanol,458.15,1.0,C(CO)N(CCO)CCO,pubchem
2-(dibutylamino)ethanol,372.15,1.0,CCCCN(CCCC)CCO,pubchem
"N,N-dibutylbutan-1-amine",358.15,1.0,CCCCN(CCCC)CCCC,pubchem
2-ethylhexyl acetate,361.15,1.0,CCCCC(CC)COC(=O)C,pubchem
2-ethylhexyl prop-2-enoate,355.15,1.0,CCCCC(CC)COC(=O)C=C,pubchem
bis(2-ethylhexyl) hexanedioate,469.15,1.0,CCCCC(CC)COC(=O)CCCCC(=O)OCC(CC)CCCC,pubchem
4-(morpholin-4-yldisulfanyl)morpholine,394.15,1.0,C1COCCN1SSN2CCOCC2,pubchem
phenylmethoxymethylbenzene,408.15,1.0,C1=CC=C(C=C1)COCC2=CC=CC=C2,pubchem
propylbenzene,321.15,1.0,CCCC1=CC=CC=C1,pubchem
N-ethylaniline,358.15,1.0,CCNC1=CC=CC=C1,pubchem
isocyanatobenzene,329.15,1.0,C1=CC=C(C=C1)N=C=O,pubchem
ethoxybenzene,336.15,1.0,CCOC1=CC=CC=C1,pubchem
"2-ethoxy-3,4-dihydro-2H-pyran",310.15,1.0,CCOC1CCC=CO1,pubchem
"N,N-dimethyl-1-phenylmethanamine",330.15,1.0,CN(C)CC1=CC=CC=C1,pubchem
N-(4-methylphenyl)acetamide,441.15,1.0,CC1=CC=C(C=C1)NC(=O)C,pubchem
1-chloro-4-isocyanatobenzene,383.15,1.0,C1=CC(=CC=C1N=C=O)Cl,pubchem
butylbenzene,344.15,1.0,CCCCC1=CC=CC=C1,pubchem
decylbenzene,380.15,1.0,CCCCCCCCCCC1=CC=CC=C1,pubchem
2-ethylhexan-1-amine,333.15,1.0,CCCCC(CC)CN,pubchem
2-ethylhexan-1-ol,354.15,1.0,CCCCC(CC)CO,pubchem
1-(bromomethyl)-4-methylbenzene,371.15,1.0,CC1=CC=C(C=C1)CBr,pubchem
4-methylbenzonitrile,358.15,1.0,CC1=CC=C(C=C1)C#N,pubchem
4-chlorobenzaldehyde,361.15,1.0,C1=CC(=CC=C1C=O)Cl,pubchem
5-ethyl-2-methylpyridine,341.15,1.0,CCC1=CN=C(C=C1)C,pubchem
4-methoxyaniline,278.15,1.0,COC1=CC=C(C=C1)N,pubchem
"1,4-diethylbenzene",329.15,1.0,CCC1=CC=C(C=C1)CC,pubchem
[4-(hydroxymethyl)cyclohexyl]methanol,439.15,1.0,C1CC(CCC1CO)CO,pubchem
2-methylpentan-1-ol,327.15,1.0,CCCC(C)CO,pubchem
ethyl 2-bromoacetate,321.15,1.0,CCOC(=O)CBr,pubchem
ethyl propanoate,285.15,1.0,CCC(=O)OCC,pubchem
ethyl 2-chloroacetate,311.15,1.0,CCOC(=O)CCl,pubchem
ethyl N-methylcarbamate,346.15,1.0,CCOC(=O)NC,pubchem
methyl 3-oxobutanoate,343.15,1.0,CC(=O)CC(=O)OC,pubchem
butan-2-yl acetate,290.15,1.0,CCC(C)OC(=O)C,pubchem
diethyl propanedioate,366.15,1.0,CCOC(=O)CC(=O)OCC,pubchem
ethyl butanoate,297.15,1.0,CCCC(=O)OCC,pubchem
ethyl 2-cyanoacetate,383.15,1.0,CCOC(=O)CC#N,pubchem
"1,1-diethoxyethane",252.15,1.0,CCOC(C)OCC,pubchem
diethyl carbonate,298.15,1.0,CCOC(=O)OCC,pubchem
2-[2-hydroxyethyl(methyl)amino]ethanol,400.15,1.0,CN(CCO)CCO,pubchem
azepan-2-one,398.15,1.0,C1CCC(=O)NCC1,pubchem
dibutyl hexanedioate,386.15,1.0,CCCCOC(=O)CCCCC(=O)OCCCC,pubchem
2-ethyl-N-(2-ethylhexyl)hexan-1-amine,405.15,1.0,CCCCC(CC)CNCC(CC)CCCC,pubchem
"3,7-dimethyloct-6-enal",347.15,1.0,CC(CCC=C(C)C)CC=O,pubchem
butanoyl butanoate,355.15,1.0,CCCC(=O)OC(=O)CCC,pubchem
heptan-3-one,319.15,1.0,CCCCC(=O)CC,pubchem
1-bromo-4-methylbenzene,358.15,1.0,CC1=CC=C(C=C1)Br,pubchem
"1,4-xylene",300.15,1.0,CC1=CC=C(C=C1)C,pubchem
1-chloro-4-methylbenzene,413.15,1.0,CC1=CC=C(C=C1)Cl,pubchem
4-chloroaniline,386.15,1.0,C1=CC(=CC=C1N)Cl,pubchem
4-methylaniline,360.15,1.0,CC1=CC=C(C=C1)N,pubchem
"benzene-1,4-diamine",428.15,1.0,C1=CC(=CC=C1N)N,pubchem
2-methylpropyl prop-2-enoate,303.15,1.0,CC(C)COC(=O)C=C,pubchem
dimethyl butanedioate,358.15,1.0,COC(=O)CCC(=O)OC,pubchem
5-methylheptan-3-one,316.15,1.0,CCC(C)CC(=O)CC,pubchem
methyl hexanoate,346.15,1.0,CCCCCC(=O)OC,pubchem
2-cyanoethyl prop-2-enoate,397.15,1.0,C=CC(=O)OCCC#N,pubchem
2-(2-carbonochloridoyloxyethoxy)ethyl carbonochloridate,568.15,1.0,C(COC(=O)Cl)OCCOC(=O)Cl,pubchem
octyl 8-(3-octyloxiran-2-yl)octanoate,490.15,1.0,CCCCCCCCC1C(O1)CCCCCCCC(=O)OCCCCCCCC,pubchem
3-(oxiran-2-yl)-7-oxabicyclo[4.1.0]heptane,383.15,1.0,C1CC2C(O2)CC1C3CO3,pubchem
2-ethyloxirane,261.15,1.0,CCC1CO1,pubchem
2-(chloromethyl)oxirane,307.15,1.0,C1C(O1)CCl,pubchem
oxiran-2-ylmethyl prop-2-enoate,334.15,1.0,C=CC(=O)OCC1CO1,pubchem
oxiran-2-ylmethyl 2-methylprop-2-enoate,356.15,1.0,CC(=C)C(=O)OCC1CO1,pubchem
2-(prop-2-enoxymethyl)oxirane,330.15,1.0,C=CCOCC1CO1,pubchem
1-bromopropane,299.15,1.0,CCCBr,pubchem
3-bromoprop-1-ene,271.15,1.0,C=CCBr,pubchem
3-bromoprop-1-yne,283.15,1.0,C#CCBr,pubchem
butane,213.15,1.0,CCCC,pubchem
but-1-ene,194.15,1.0,CCC=C,pubchem
"buta-1,3-diene",197.15,1.0,C=CC=C,pubchem
prop-2-enal,247.15,1.0,C=CC=O,pubchem
propane-1-thiol,258.15,1.0,CCCS,pubchem
3-chloroprop-1-ene,241.15,1.0,C=CCCl,pubchem
propan-1-amine,236.15,1.0,CCCN,pubchem
prop-2-en-1-amine,244.15,1.0,C=CCN,pubchem
propanenitrile,275.15,1.0,CCC#N,pubchem
prop-2-enenitrile,273.15,1.0,C=CC#N,pubchem
2-chloroacetonitrile,321.15,1.0,C(C#N)Cl,pubchem
prop-2-en-1-ol,295.15,1.0,C=CCO,pubchem
prop-2-yn-1-ol,306.15,1.0,C#CCO,pubchem
oxaldehyde,493.15,1.0,C(=O)C=O,pubchem
methoxyethene,217.15,1.0,COC=C,pubchem
chloro(methoxy)methane,273.15,1.0,COCCl,pubchem
methyl formate,241.15,1.0,COC=O,pubchem
trichloro(prop-2-enyl)silane,308.15,1.0,C=CC[Si](Cl)(Cl)Cl,pubchem
"2,4,4-trimethylpent-1-ene",275.15,1.0,CC(=C)CC(C)(C)C,pubchem
"2,4,4-trimethylpent-2-ene",275.15,1.0,CC(=CC(C)(C)C)C,pubchem
"2-methylpentane-2,4-diol",366.15,1.0,CC(CC(C)(C)O)O,pubchem
dibutyl hydrogen phosphate,461.15,1.0,CCCCOP(=O)(O)OCCCC,pubchem
4-methoxy-4-methylpentan-2-one,334.15,1.0,CC(=O)CC(C)(C)OC,pubchem
trichloro(pentyl)silane,336.15,1.0,CCCCC[Si](Cl)(Cl)Cl,pubchem
2-bromopentane,294.15,1.0,CCCC(C)Br,pubchem
2-methylpentane,244.15,1.0,CCCC(C)C,pubchem
pentan-2-one,280.15,1.0,CCCC(=O)C,pubchem
"butane-1,3-diol",394.15,1.0,CC(CCO)O,pubchem
3-hydroxybutanal,339.15,1.0,CC(CC=O)O,pubchem
1-methoxypropan-2-ol,309.15,1.0,CC(COC)O,pubchem
2-(dimethylamino)ethanol,314.15,1.0,CN(C)CCO,pubchem
1-nitropropane,307.15,1.0,CCC[N+](=O)[O-],pubchem
ethenyl acetate,265.15,1.0,CC(=O)OC=C,pubchem
4-methylpentan-2-amine,286.15,1.0,CC(C)CC(C)N,pubchem
4-methylpentan-2-one,296.15,1.0,CC(C)CC(=O)C,pubchem
4-methylpentan-2-ol,314.15,1.0,CC(C)CC(C)O,pubchem
N-propan-2-ylpropan-2-amine,272.15,1.0,CC(C)NC(C)C,pubchem
2-propan-2-yloxypropane,245.15,1.0,CC(C)OC(C)C,pubchem
propan-2-yl acetate,275.15,1.0,CC(C)OC(=O)C,pubchem
prop-1-en-2-yl acetate,289.15,1.0,CC(=C)OC(=O)C,pubchem
propan-2-yl carbonochloridate,289.15,1.0,CC(C)OC(=O)Cl,pubchem
acetyl acetate,322.15,1.0,CC(=O)OC(=O)C,pubchem
5-methyloxolan-2-one,354.15,1.0,CC1CCC(=O)O1,pubchem
"oxolane-2,5-dione",430.15,1.0,C1CC(=O)OC1=O,pubchem
"furan-2,5-dione",376.15,1.0,C1=CC(=O)OC1=O,pubchem
"4-methyl-1,3-dioxolan-2-one",389.15,1.0,CC1COC(=O)O1,pubchem
"1,3-xylene",302.15,1.0,CC1=CC(=CC=C1)C,pubchem
1-chloro-3-methylbenzene,325.15,1.0,CC1=CC(=CC=C1)Cl,pubchem
3-chloroaniline,397.15,1.0,C1=CC(=CC(=C1)Cl)N,pubchem
3-methylaniline,359.15,1.0,CC1=CC(=CC=C1)N,pubchem
"benzene-1,3-diamine",411.15,1.0,C1=CC(=CC(=C1)N)N,pubchem
1-chloro-2-(1-chloropropan-2-yloxy)propane,358.15,1.0,CC(CCl)OC(C)CCl,pubchem
1-methoxypropan-2-yl acetate,319.15,1.0,CC(COC)OC(=O)C,pubchem
"1,3,5-trimethylbenzene",323.15,1.0,CC1=CC(=CC(=C1)C)C,pubchem
"3,5-dimethylphenol",353.15,1.0,CC1=CC(=CC(=C1)O)C,pubchem
"3,5-dimethylaniline",366.15,1.0,CC1=CC(=CC(=C1)N)C,pubchem
"1,3,5-trichlorobenzene",380.15,1.0,C1=C(C=C(C=C1Cl)Cl)Cl,pubchem
"2,4,6-trimethylpyridine",331.15,1.0,CC1=CC(=NC(=C1)C)C,pubchem
"2,6-dimethylheptan-4-ol",347.15,1.0,CC(C)CC(CC(C)C)O,pubchem