,compound,flashpoint,pure substance,smiles,source
8304,10-Undecen-1-al,349.15,1,C=CCCCCCCCCC=O,le15
8305,"Hexane, 1-cyclohexyl- (8CI)",353.35,1,CCCCCCC1CCCCC1,le15
8306,"3-Heptene, 2,2,4,6,6-pentamethyl-",320.25,1,CC(=CC(C)(C)C)CC(C)(C)C,le15
8307,Cyclododecane,360.75,1,C1CCCCCCCCCCC1,le15
8308,1dodecene,350.0,1,C=CCCCCCCCCCC,le15
8309,"2-Benzoxazolamine, 5-chloro- (9CI)",418.55,1,Nc1nc2cc(Cl)ccc2o1,le15
8310,3-Phenylpropionyl chloride,381.15,1,O=C(Cl)CCc1ccccc1,le15
8311,2-(4-Chlorophenyl)-2-methyloxirane,370.05,1,CC1(c2ccc(Cl)cc2)CO1,le15
8312,(1-chloro-2-methylpropan-2-yl)benzene,365.35,1,CC(C)(CCl)c1ccccc1,le15
8313,1-tert-butyl-4-chlorobenzene,358.15,1,CC(C)(C)c1ccc(Cl)cc1,le15
8314,2-chloro-1-methyl-4-propan-2-ylbenzene,358.35,1,Cc1ccc(C(C)C)cc1Cl,le15
8315,"2-Butenoic acid, 2,3-dichloro-4-oxo-, (Z)- (9CI)",459.15,1,O=C/C(Cl)=C(/Cl)C(=O)O,le15
8316,"3,4-Dichloro-5-hydroxyfuran-2(5H)-one",373.15,1,O=C1OC(O)C(Cl)=C1Cl,le15
8317,"Glutaryl chloride (7CI,8CI)",379.85,1,O=C(Cl)CCCC(=O)Cl,le15
8318,"2-bromo-1,1-dimethoxyethane",327.05,1,COC(CBr)OC,le15
8319,"Glycine, N-(phosphonomethyl)-",508.65,1,O=C(O)CNCP(=O)(O)O,le15
8320,"1,1-dichloroheptane",339.15,1,CCCCCCC(Cl)Cl,le15
8321,1-isocyanatonaphthalene,408.15,1,O=C=Nc1cccc2ccccc12,le15
8322,"1,2,4-Benzenetriol, 5-(2-aminoethyl)-",472.45,1,NCCc1cc(O)c(O)cc1O,le15
8323,"Pyridine, 2-(phenylmethyl)-",398.15,1,c1ccc(Cc2ccccn2)cc1,le15
8324,"Benzenamine, N-phenyl-",425.95,1,c1ccc(Nc2ccccc2)cc1,le15
8325,3-Benzylpyridine,391.75,1,c1ccc(Cc2cccnc2)cc1,le15
8326,"(1,1'-Biphenyl)-3-amine (9CI)",450.15,1,Nc1cccc(-c2ccccc2)c1,le15
8327,ethyl 2-cyano-2-ethylbutanoate,363.35,1,CCOC(=O)C(C#N)(CC)CC,le15
8328,"[(1R,9aR)-2,3,4,6,7,8,9,9a-octahydro-1H-quinolizin-1-yl]methanol",372.25,1,OC[C@@H]1CCCN2CCCC[C@H]12,le15
8329,"Morpholine, 4-cyclohexyl-",342.75,1,C1CCC(N2CCOCC2)CC1,le15
8330,"2(3H)-Benzoxazolone, 5-chloro-",430.65,1,O=c1[nH]c2cc(Cl)ccc2o1,le15
8331,N-methyl-N-phenylcarbamoyl chloride,396.25,1,CN(C(=O)Cl)c1ccccc1,le15
8332,1-chloro-4-isothiocyanatobenzene,378.25,1,S=C=Nc1ccc(Cl)cc1,le15
8333,1-chloro-3-isothiocyanatobenzene,390.55,1,S=C=Nc1cccc(Cl)c1,le15
8334,"2-chloro-1,3-benzothiazole",376.95,1,Clc1nc2ccccc2s1,le15
8335,acetyl iodide,290.75,1,CC(=O)I,le15
8336,"Propane, 2-iodo-",315.15,1,CC(C)I,le15
8337,"Propane, 1-iodo-",307.15,1,CCCI,le15
8338,"Benzoic acid, 3,4,5-trihydroxy-",544.15,1,O=C(O)c1cc(O)c(O)c(O)c1,le15
8339,"2,5-Hexadienoic acid, 3-methoxy-5-methyl-4-oxo-",386.65,1,C=C(C)C(=O)C(=CC(=O)O)OC,le15
8340,"(1,1'-Biphenyl)-2-ol",396.15,1,Oc1ccccc1-c1ccccc1,le15
8341,"(1,1'-Biphenyl)-4-ol",420.35,1,Oc1ccc(-c2ccccc2)cc1,le15
8342,"Ethanone, 1-(2-naphthalenyl)-",441.15,1,CC(=O)c1ccc2ccccc2c1,le15
8343,"Methacrylic acid, tetrahydrofurfuryl ester (8CI)",364.15,1,C=C(C)C(=O)OCC1CCCO1,le15
8344,2-(diethoxymethyl)furan,337.15,1,CCOC(OCC)c1ccco1,le15
8345,Cyclo(L-leucylglycyl),480.55,1,CC(C)C[C@@H]1NC(=O)CNC1=O,le15
8346,(Ethylsulphonyl)benzene,448.25,1,CCS(=O)(=O)c1ccccc1,le15
8347,"4(1H)-Pyrimidinone, 2,3-dihydro-6-propyl-2-thioxo-",441.75,1,CCCc1cc(=O)[nH]c(=S)[nH]1,le15
8348,1-propylnaphthalene,392.05,1,CCCc1cccc2ccccc12,le15
8349,"Naphthalene, 2-(1-methylethyl)-",382.85,1,CC(C)c1ccc2ccccc2c1,le15
8350,"Naphthalene, 1,6,7-trimethyl- (8CI)(9CI)",400.95,1,Cc1cc2cccc(C)c2cc1C,le15
8351,"Hexanoic acid, 2-ethyl-, ethenyl ester",338.15,1,C=COC(=O)C(CC)CCCC,le15
8352,"Methacrylic acid, hexyl ester (8CI)",345.25,1,C=C(C)C(=O)OCCCCCC,le15
8353,"Heptanoic acid, 2-propenyl ester",355.35,1,C=CCOC(=O)CCCCCC,le15
8354,"6-Octenoic acid, 3,7-dimethyl-",436.35,1,CC(C)=CCCC(C)CC(=O)O,le15
8355,"2H-Pyran-2-one, tetrahydro-6-pentyl-",379.25,1,CCCCCC1CCCC(=O)O1,le15
8356,"2(3H)-Furanone, 5-hexyldihydro-",419.15,1,CCCCCCC1CCC(=O)O1,le15
8357,cyclohexyl 2-methylpropanoate,348.05,1,CC(C)C(=O)OC1CCCCC1,le15
8358,"Butanoic acid, cyclohexyl ester",351.15,1,CCCC(=O)OC1CCCCC1,le15
8359,"1-Octen-3-ol, acetate",347.05,1,C=CC(CCCCC)OC(C)=O,le15
8360,"2-Propenoic acid, heptyl ester",341.05,1,C=CC(=O)OCCCCCCC,le15
8361,10-Undecen-1-ol,366.45,1,C=CCCCCCCCCCO,le15
8362,1-Undecanal,369.25,1,CCCCCCCCCCC=O,le15
8363,undecan-3-one,346.35,1,CCCCCCCCC(=O)CC,le15
8364,undecan-5-one,345.95,1,CCCCCCC(=O)CCCC,le15
8365,"Furan, tetrahydro-2-heptyl-",347.05,1,CCCCCCCC1CCCO1,le15
8366,2undecanone,362.0,1,CCCCCCCCCC(C)=O,le15
8367,6undecanone,361.0,1,CCCCCC(=O)CCCCC,le15
8368,"Cyclohexanemethanamine, 4-amino-alpha,alpha,4-trimethyl-",366.45,1,CC1(N)CCC(C(C)(C)N)CC1,le15
8369,"Cyclohexanemethanamine, 5-amino-1,3,3-trimethyl-",371.85,1,CC1(C)CC(N)CC(C)(CN)C1,le15
8370,3-methylundecane,334.95,1,CCCCCCCCC(C)CC,le15
8371,"Heptane, 2,2,4,6,6-pentamethyl-",331.55,1,CC(CC(C)(C)C)CC(C)(C)C,le15
8372,trimethyl(2-trimethylsilylethynyl)silane,290.25,1,C[Si](C)(C)C#C[Si](C)(C)C,le15
8373,4-methoxybenzoyl chloride,360.95,1,COc1ccc(C(=O)Cl)cc1,le15
8374,"Benzoic acid, p-chloro-, methyl ester (8CI)",379.85,1,COC(=O)c1ccc(Cl)cc1,le15
8375,"Benzeneacetic acid, 2-chloro- (9CI)",404.85,1,O=C(O)Cc1ccccc1Cl,le15
8376,methyl 3-chlorobenzoate,377.15,1,COC(=O)c1cccc(Cl)c1,le15
8377,"Acetophenone, 2-chloro-4'-hydroxy- (6CI,7CI)",430.85,1,O=C(CCl)c1ccc(O)cc1,le15
8378,"Carbonochloridic acid, phenylmethyl ester",280.15,1,O=C(Cl)OCc1ccccc1,le15
8379,"Acetic acid, (p-chlorophenyl)-",404.85,1,O=C(O)Cc1ccc(Cl)cc1,le15
8380,"Urea, (p-chlorophenyl)- (8CI)",391.25,1,NC(=O)Nc1ccc(Cl)cc1,le15
8381,3-chloropropoxybenzene,448.35,1,ClCCCOc1ccccc1,le15
8382,(2-chloroacetyl) 2-chloroacetate,355.95,1,O=C(CCl)OC(=O)CCl,le15
8383,"propan-2-yl 2,2-dichloroacetate",333.25,1,CC(C)OC(=O)C(Cl)Cl,le15
8384,"Benzene, 1-bromo-2-methyl-",351.15,1,Cc1ccccc1Br,le15
8385,"Benzene, (bromomethyl)-",359.81699999999995,1,BrCc1ccccc1,le15
8386,"Benzene, 1-bromo-3-methyl-",333.15,1,Cc1cccc(Br)c1,le15
8387,Benzylbromide,352.0,1,BrCc1ccccc1,le15
8388,"Ether, bis(2-chloro-1-methylethyl)",309.55,1,CC(CCl)OC(C)CCl,le15
8389,"alpha,alpha,alpha-Trifluoro-m-toluonitrile",345.35,1,N#Cc1cccc(C(F)(F)F)c1,le15
8390,"alpha,alpha,alpha-Trifluoro-2-toluonitrile",363.15,1,N#Cc1ccccc1C(F)(F)F,le15
8391,"2-Furancarboximidamide, N-hydroxy-5-nitro-",465.35,1,N=C(NO)c1ccc([N+](=O)[O-])o1,le15
8392,4-Fluoro-2-(methyloxy)-1-nitrobenzene,375.65,1,COc1cc(F)ccc1[N+](=O)[O-],le15
8393,"1H-Imidazole-1-ethanol, 2-methyl-5-nitro-",472.15,1,Cc1ncc([N+](=O)[O-])n1CCO,le15
8394,"Benzenesulfonamide, 2-methyl-",326.65,1,Cc1ccccc1S(N)(=O)=O,le15
8395,"1H-Carbazole, 2,3,4,9-tetrahydro- (9CI)",415.25,1,c1ccc2c3c([nH]c2c1)CCCC3,le15
8396,"2,4,6-trimethylquinoline",389.05,1,Cc1ccc2nc(C)cc(C)c2c1,le15
8397,"N,N-dimethylnaphthalen-2-amine",396.55,1,CN(C)c1ccc2ccccc2c1,le15
8398,N-ethylnaphthalen-2-amine,430.15,1,CCNc1ccc2ccccc2c1,le15
8399,"2-Propenoic acid, 2-(diethylamino)ethyl ester",347.05,1,C=CC(=O)OCCN(CC)CC,le15
8400,"Pentanamide, N,N-diethyl-4-oxo- (9CI)",383.85,1,CCN(CC)C(=O)CCC(C)=O,le15
8401,"3-(aminomethyl)-3,5,5-trimethylcyclohexan-1-ol",375.35,1,CC1(C)CC(O)CC(C)(CN)C1,le15
8402,"Piperazine, 1-(2-(dimethylamino)ethyl)-4-methyl-",347.65,1,CN(C)CCN1CCN(C)CC1,le15
8403,"4,5-dimethyl-2-(2-methylpropyl)-2,5-dihydro-1,3-thiazole",368.15,1,CC1=NC(CC(C)C)SC1C,le15
8404,1-Undecanamine,365.35,1,CCCCCCCCCCCN,le15
8405,2-bromopropanoyl chloride,324.15,1,CC(Br)C(=O)Cl,le15
8406,1-bromo-4-chlorobutane,333.15,1,ClCCCCBr,le15
8407,1-bromo-3-chloro-2-methylpropane,328.95,1,CC(CCl)CBr,le15
8408,1-chloro-4-methyl-2-nitrobenzene,387.05,1,Cc1ccc(Cl)c([N+](=O)[O-])c1,le15
8409,"Benzene, 1-(chloromethyl)-4-nitro-",403.85,1,O=[N+]([O-])c1ccc(CCl)cc1,le15
8410,2-chloro-1-methyl-4-nitrobenzene,382.25,1,Cc1ccc([N+](=O)[O-])cc1Cl,le15
8411,"Benzene, 1-(chloromethyl)-2-nitro- (9CI)",385.85,1,O=[N+]([O-])c1ccccc1CCl,le15
8412,"Benzene, 1-(chloromethyl)-3-nitro-",401.85,1,O=[N+]([O-])c1cccc(CCl)c1,le15
8413,1-chloro-2-methyl-4-nitrobenzene,383.75,1,Cc1cc([N+](=O)[O-])ccc1Cl,le15
8414,"Benzene, 1-chloro-2-methyl-3-nitro-",398.15,1,Cc1c(Cl)cccc1[N+](=O)[O-],le15
8415,"Toluene, 4-chloro-2-nitro- (8CI)",393.15,1,Cc1ccc(Cl)cc1[N+](=O)[O-],le15
8416,"Pyrimidine, 2-chloro-4-(dimethylamino)-6-methyl-",403.05,1,Cc1cc(N(C)C)nc(Cl)n1,le15
8417,"Ethanol, 2-iodo-",338.15,1,OCCI,le15
8418,"Benzonitrile, 2,6-dichloro-",399.95,1,N#Cc1c(Cl)cccc1Cl,le15
8419,"Benzenamine, 4-bromo-",363.55,1,Nc1ccc(Br)cc1,le15
8420,"Aniline, m-bromo- (8CI)",374.35,1,Nc1cccc(Br)c1,le15
8421,"Aniline, o-bromo- (8CI)",364.25,1,Nc1ccccc1Br,le15
8422,"1,4-Naphthalenedione, 2-methyl-",386.95,1,CC1=CC(=O)c2ccccc2C1=O,le15
8423,2-Naphthalenecarboxylic acid,424.45,1,O=C(O)c1ccc2ccccc2c1,le15
8424,"1-Naphthalenecarboxaldehyde, 2-hydroxy-",407.45,1,O=Cc1c(O)ccc2ccccc12,le15
8425,naphthalene-1-carboxylic acid,437.75,1,O=C(O)c1cccc2ccccc12,le15
8426,ethyl 2-acetyl-3-oxobutanoate,358.15,1,CCOC(=O)C(C(C)=O)C(C)=O,le15
8427,"1,2-Cyclohexanedicarboxylic acid, cis-",473.45,1,O=C(O)[C@H]1CCCC[C@H]1C(=O)O,le15
8428,"cyclohexane-1,4-dicarboxylic acid",508.15,1,O=C(O)C1CCC(C(=O)O)CC1,le15
8429,"2-Propene-1,1-diol, 2-methyl-, diacetate",356.45,1,C=C(C)C(OC(C)=O)OC(C)=O,le15
8430,DiethylFumarate,364.0,1,CC/C(C(=O)[O-])=C(/CC)C(=O)[O-],le15
8431,"1,1'-Biphenyl, 2-fluoro-",521.15,1,Fc1ccccc1-c1ccccc1,le15
8432,"Benzenesulfonic acid, methyl ester",416.15,1,COS(=O)(=O)c1ccccc1,le15
8433,"Benzenesulfonamide, 4-amino-",469.15,1,Nc1ccc(S(N)(=O)=O)cc1,le15
8434,Ethyl 2-naphthyl ether,400.15,1,CCOc1ccc2ccccc2c1,le15
8435,1-ethoxynaphthalene,382.55,1,CCOc1cccc2ccccc12,le15
8436,"3,5-dimethyl-1-phenylpyrazole",391.75,1,Cc1cc(C)n(-c2ccccc2)n1,le15
8437,ethyl 2-acetylpentanoate,355.55,1,CCCC(C(C)=O)C(=O)OCC,le15
8438,"Pentanoic acid, 4-oxo-, butyl ester",364.15,1,CCCCOC(=O)CCC(C)=O,le15
8439,2-methylpropyl 4-oxopentanoate,367.65,1,CC(=O)CCC(=O)OCC(C)C,le15
8440,"Acrylic acid, 2-butoxyethyl ester (8CI)",468.15,1,C=CC(=O)OCCOCCCC,le15
8441,ethyl 2-acetyl-3-methylbutanoate,352.05,1,CCOC(=O)C(C(C)=O)C(C)C,le15
8442,"Acetic acid, 2-ethylhexyl ester",344.55,1,CCCCC(CC)COC(C)=O,le15
8443,"Octanoic acid, ethyl ester",348.15,1,CCCCCCCC(=O)OCC,le15
8444,"1-Octanal, 3,7-dimethyl-7-hydroxy-",376.95,1,CC(CC=O)CCCC(C)(C)O,le15
8445,"Hexanoic acid, butyl ester",354.25,1,CCCCCC(=O)OCCCC,le15
8446,"Nonanoic acid, methyl ester",357.55,1,CCCCCCCCC(=O)OC,le15
8447,"Valeric acid, pentyl ester (8CI)",349.65,1,CCCCCOC(=O)CCCC,le15
8448,heptyl propanoate,352.95,1,CCCCCCCOC(=O)CC,le15
8449,"Propanoic acid, 2-methyl-, hexyl ester",346.45,1,CCCCCCOC(=O)C(C)C,le15
8450,"p-Menth-8-yl hydroperoxide (7CI,8CI)",326.15,1,CC1CCC(C(C)(C)OO)CC1,le15
8451,Decanoic acid,394.95,1,CCCCCCCCCC(=O)O,le15
8452,4-(2-hydroxypropan-2-yl)-1-methylcyclohexan-1-ol,392.15,1,CC1(O)CCC(C(C)(C)O)CC1,le15
8453,"Butanoic acid, 3-methyl-, 3-methylbutyl ester",339.85,1,CC(C)CCOC(=O)CC(C)C,le15
8454,"Butanoic acid, hexyl ester",354.25,1,CCCCCCOC(=O)CCC,le15
8455,"Nonylalcohol, formate (6CI)",360.65,1,CCCCCCCCCOC=O,le15
8456,propyl heptanoate,349.85,1,CCCCCCC(=O)OCCC,le15
8457,6-methylheptan-2-yl acetate,338.35,1,CC(=O)OC(C)CCCC(C)C,le15
8458,"1,1,3,3-tetraethylurea",360.15,1,CCN(CC)C(=O)N(CC)CC,le15
8459,Undecyl alcohol,386.15,1,CCCCCCCCCCCO,le15
8460,"Ether, decyl methyl",346.05,1,CCCCCCCCCCOC,le15
8461,undecan-6-ol,367.15,1,CCCCCC(O)CCCCC,le15
8462,undecan-5-ol,367.15,1,CCCCCCC(O)CCCC,le15
8463,2undecanol,380.0,1,CCCCCCCCCC(C)O,le15
8464,"N,N'-ditert-butylethane-1,2-diamine",349.85,1,CC(C)(C)NCCNC(C)(C)C,le15
8465,"Phosphorochloridic acid, diethyl ester",323.05,1,CCOP(=O)(Cl)OCC,le15
8466,"Benzoic acid, 5-chloro-2-hydroxy-",420.75,1,O=C(O)c1cc(Cl)ccc1O,le15
8467,"Benzenamine, 4-chloro-2-nitro-",413.65,1,Nc1ccc(Cl)cc1[N+](=O)[O-],le15
8468,"Benzenamine, 2-chloro-4-nitro-",424.25,1,Nc1ccc([N+](=O)[O-])cc1Cl,le15
8469,"Benzenamine, 4-chloro-3-nitro-",435.35,1,Nc1ccc(Cl)c([N+](=O)[O-])c1,le15
8470,"Benzenamine, 5-chloro-2-nitro- (9CI)",422.55,1,Nc1cc(Cl)ccc1[N+](=O)[O-],le15
8471,"Benzenamine, 2-chloro-5-nitro-",417.25,1,Nc1cc([N+](=O)[O-])ccc1Cl,le15
8472,"1-chloro-3,5-dimethoxybenzene",365.85,1,COc1cc(Cl)cc(OC)c1,le15
8473,"3-chloro-4,7,7-trimethylbicyclo[2.2.1]heptane",341.15,1,CC1(C)C2CCC1(C)C(Cl)C2,le15
8474,"Phenol, 2-bromo-",315.15,1,Oc1ccccc1Br,le15
8475,"Phenol, 4-bromo-",363.95,1,Oc1ccc(Br)cc1,le15
8476,"Phenol, 3-bromo-",364.25,1,Oc1cccc(Br)c1,le15
8477,5-Bromo-2-pyridylamine,366.55,1,Nc1ccc(Br)cn1,le15
8478,"1,3-Propanediol, 2,2-bis(chloromethyl)-",429.45,1,OCC(CO)(CCl)CCl,le15
8479,"Ethane, 1,1'-(methylenebis(oxy))bis(2-chloro-",350.05,1,ClCCOCOCCCl,le15
8480,"Naphthalene, 1-nitro-",437.15,1,O=[N+]([O-])c1cccc2ccccc12,le15
8481,8-Quinolinecarboxylic acid,460.65,1,O=C(O)c1cccc2cccnc12,le15
8482,"2-Naphthalenol, 1-nitroso-",443.25,1,O=Nc1c(O)ccc2ccccc12,le15
8483,"1H-Pyrrole-2,5-dione, 1-phenyl-",409.95,1,O=C1C=CC(=O)N1c1ccccc1,le15
8484,"4-Amino-1,2-naphthoquinone",433.15,1,NC1=CC(=O)C(=O)c2ccccc21,le15
8485,"Naphthalene, 2-nitro-",431.85,1,O=[N+]([O-])c1ccc2ccccc2c1,le15
8486,8-Ethoxyquinoline,381.15,1,CCOc1cccc2cccnc12,le15
8487,"1H-Pyrazole-5-amine, 3-methyl-1-phenyl-",428.35,1,Cc1cc(N)n(-c2ccccc2)n1,le15
8488,"6-Quinoxalinamine, 2,3-dimethyl-",457.05,1,Cc1nc2ccc(N)cc2nc1C,le15
8489,"1,3,3-trimethyl-2-methylideneindole",367.15,1,C=C1N(C)c2ccccc2C1(C)C,le15
8490,"Quinoline, 1,2-dihydro-2,2,4-trimethyl-",388.15,1,CC1=CC(C)(C)Nc2ccccc21,le15
8491,"Carbamic acid, 2-ethylhexyl ester",373.85,1,CCCCC(CC)COC(N)=O,le15
8492,"Ethanol, 2-(dibutylamino)-",364.85,1,CCCCN(CCO)CCCC,le15
8493,"1,2-Ethanediamine, N-(2-(dimethylamino)ethyl)-N,N',N'-trimethyl-",326.45,1,CN(C)CCN(C)CCN(C)C,le15
8494,"Acetic acid, bromochloro-",356.85,1,O=C(O)C(Cl)Br,le15
8495,"Phenol, 4-chloro-3-nitro-",413.65,1,O=[N+]([O-])c1cc(O)ccc1Cl,le15
8496,"Phenol, 4-chloro-2-nitro-",373.55,1,O=[N+]([O-])c1cc(Cl)ccc1O,le15
8497,"Phenol, 2-chloro-4-nitro-",402.75,1,O=[N+]([O-])c1ccc(O)c(Cl)c1,le15
8498,"s-Triazine, 2-amino-4-chloro-6-(ethylamino)- (8CI)",284.15,1,CCNc1nc(N)nc(Cl)n1,le15
8499,"Acetamide, 2-chloro-N,N-di-2-propenyl-",372.95,1,C=CCN(CC=C)C(=O)CCl,le15
8500,"Methane, dibromo-",370.15,1,BrCBr,le15
8501,"3-Pyridinol, 2-bromo-",421.55,1,Oc1cccnc1Br,le15
8502,"2,2,2-trifluoro-1-phenylethanone",314.85,1,O=C(c1ccccc1)C(F)(F)F,le15
8503,"alpha,alpha,alpha-Trifluoro-3-tolualdehyde",341.45,1,O=Cc1cccc(C(F)(F)F)c1,le15
8504,"Ethanediamide, N,N'-dimethyl-N,N'-dinitroso- (9CI)",366.05,1,CN(N=O)C(=O)C(=O)N(C)N=O,le15
8505,"1,4-Naphthoquinone, 5-hydroxy- (8CI)",474.45,1,O=C1C=CC(=O)c2c(O)cccc21,le15
8506,"Quinoline, 8-nitro-",422.35,1,O=[N+]([O-])c1cccc2cccnc12,le15
8507,diethyl 2-oxopropanedioate,363.35,1,CCOC(=O)C(=O)C(=O)OCC,le15
8508,"Quinoline, 4-nitro-",422.35,1,O=[N+]([O-])c1ccnc2ccccc12,le15
8509,"Isocyanic acid, 4-methyl-m-phenylene ester (8CI)",383.65,1,Cc1ccc(N=C=O)cc1N=C=O,le15
8510,"2-Propynoic acid, 3-phenyl-, ethyl ester (9CI)",398.05,1,CCOC(=O)C#Cc1ccccc1,le15
8511,"3H-Pyrazol-3-one, 2,4-dihydro-5-methyl-2-phenyl-",428.35,1,CC1=NN(c2ccccc2)C(=O)C1,le15
8512,"Butanedioic acid, diethyl ester",372.65,1,CCOC(=O)CCC(=O)OCC,le15
8513,"Malonic acid, methyl-, diethyl ester (8CI)",349.85,1,CCOC(=O)C(C)C(=O)OCC,le15
8514,4-acetyloxybutyl acetate,378.35,1,CC(=O)OCCCCOC(C)=O,le15
8515,3-ethyl-3-methylpentanedioic acid,430.45,1,CCC(C)(CC(=O)O)CC(=O)O,le15
8516,"1,3-Dioxolane-2-acetic acid, 2-methyl-, ethyl ester",353.95,1,CCOC(=O)CC1(C)OCCO1,le15
8517,2-propanoyloxyethyl propanoate,371.45,1,CCC(=O)OCCOC(=O)CC,le15
8518,Octanedioic acid,459.65,1,O=C(O)CCCCCCC(=O)O,le15
8519,"Hexanedioic acid, 1,6-dimethyl ester",380.35,1,COC(=O)CCCCC(=O)OC,le15
8520,N-Ethyl-L-glutamine,485.25,1,CCN[C@@H](CCC(N)=O)C(=O)O,le15
8521,"Adipic acid, dihydrazide (8CI)",541.05,1,NNC(=O)CCCCC(=O)NN,le15
8522,"Phenol, p-(1-cyclohexen-1-yl)-",410.25,1,Oc1ccc(C2=CCCCC2)cc1,le15
8523,"Propionitrile, 3-(N-ethylanilino)- (6CI,7CI,8CI)",405.95,1,CCN(CCC#N)c1ccccc1,le15
8524,"1H-Indole-3-ethanamine, alpha-methyl- (9CI)",462.15,1,CC(N)Cc1c[nH]c2ccccc12,le15
8525,"Propaneperoxoic acid, 2,2-dimethyl-, 1,1-dimethylethyl ester",326.65,1,CC(C)(C)OOC(=O)C(C)(C)C,le15
8526,bis(2-methylpropyl) carbonate,344.65,1,CC(C)COC(=O)OCC(C)C,le15
8527,dibutyl carbonate,349.15,1,CCCCOC(=O)OCCCC,le15
8528,"Naphthalene, 1,2,3,4-tetrahydro-1,1,6-trimethyl-",370.95,1,Cc1ccc2c(c1)CCCC2(C)C,le15
8529,"Bicyclo(2.2.1)hept-5-ene, 2-(4-cyclohexenyl)-",352.95,1,C1=CCC(C2CC3C=CC2C3)CC1,le15
8530,"1,7-Octanediol, 3,7-dimethyl-",381.65,1,CC(CCO)CCCC(C)(C)O,le15
8531,"Decane-1,2-diol",386.15,1,CCCCCCCCC(O)CO,le15
8532,"Ethanol, 2-((2-ethylhexyl)oxy)-",337.15,1,CCCCC(CC)COCCO,le15
8533,2-methyl-1-[1-(2-methylpropoxy)ethoxy]propane,309.05,1,CC(C)COC(C)OCC(C)C,le15
8534,diethoxy-methyl-prop-2-enylsilane,315.65,1,C=CC[Si](C)(OCC)OCC,le15
8535,3-methyl-1-(3-methylbutylsulfanyl)butane,349.55,1,CC(C)CCSCCC(C)C,le15
8536,1-ethylsulfanyloctane,370.45,1,CCCCCCCCSCC,le15
8537,1decanethiol,371.0,1,CCCCCCCCCCS,le15
8538,"Benzene, 1-chloro-4-(methylsulfinyl)-",408.65,1,CS(=O)c1ccc(Cl)cc1,le15
8539,"Benzene, 1-bromo-4-fluoro-",326.15,1,Fc1ccc(Br)cc1,le15
8540,1-bromo-3-fluorobenzene,312.05,1,Fc1cccc(Br)c1,le15
8541,"Benzaldehyde, 2,6-dichloro-",370.55,1,O=Cc1c(Cl)cccc1Cl,le15
8542,"Benzoyl chloride, 4-chloro-",378.15,1,O=C(Cl)c1ccc(Cl)cc1,le15
8543,"Benzoyl chloride, m-chloro- (8CI)",383.15,1,O=C(Cl)c1cccc(Cl)c1,le15
8544,"Benzaldehyde, 2,4-dichloro-",373.35,1,O=Cc1ccc(Cl)cc1Cl,le15
8545,"Benzaldehyde, 2,3-dichloro-",372.35,1,O=Cc1cccc(Cl)c1Cl,le15
8546,"2,5-dichlorobenzaldehyde",369.75,1,O=Cc1cc(Cl)ccc1Cl,le15
8547,"3,5-dichlorobenzaldehyde",371.45,1,O=Cc1cc(Cl)cc(Cl)c1,le15
8548,"Benzaldehyde, 3,4-dichloro-",375.15,1,O=Cc1ccc(Cl)c(Cl)c1,le15
8549,"o-Xylene, alpha,alpha'-dichloro-",380.15,1,ClCc1ccccc1CCl,le15
8550,"m-Xylene, alpha,alpha'-dichloro-",385.15,1,ClCc1cccc(CCl)c1,le15
8551,"1,4-dichloro-2,5-dimethylbenzene",359.25,1,Cc1cc(Cl)c(C)cc1Cl,le15
8552,"2,3,4,5-Tetrafluorobenzonitrile",343.15,1,N#Cc1cc(F)c(F)c(F)c1F,le15
8553,"1-phenylpyrrolidine-2,5-dione",476.75,1,O=C1CCC(=O)N1c1ccccc1,le15
8554,Ethyl 4-cyanobenzoate,412.05,1,CCOC(=O)c1ccc(C#N)cc1,le15
8555,Indole-3-acetic acid (8CI),477.95,1,O=C(O)Cc1c[nH]c2ccccc12,le15
8556,"2-ethylisoindole-1,3-dione",394.95,1,CCN1C(=O)c2ccccc2C1=O,le15
8557,"2-Propenal, 3-(4-(dimethylamino)phenyl)-",404.35,1,CN(C)c1ccc(C=CC=O)cc1,le15
8558,N-cyclohexylaniline,408.65,1,c1ccc(NC2CCCCC2)cc1,le15
8559,1-benzylpiperidine,367.15,1,c1ccc(CN2CCCCC2)cc1,le15
8560,4-benzylpiperidine,398.55,1,c1ccc(CC2CCNCC2)cc1,le15
8561,2-benzylpiperidine,389.25,1,c1ccc(CC2CCCCN2)cc1,le15
8562,"2,3,3-trichloroprop-2-enoic acid",397.55,1,O=C(O)C(Cl)=C(Cl)Cl,le15
8563,"Butane, 1,2-epoxy-4,4,4-trichloro-",348.95,1,ClC(Cl)(Cl)CC1CO1,le15
8564,"Benzene, 2-chloro-1-fluoro-4-nitro-",343.15,1,O=[N+]([O-])c1ccc(F)c(Cl)c1,le15
8565,"2-bromo-1,1-dichloroethene",292.55,1,ClC(Cl)=CBr,le15
8566,L-Ascorbic acid,453.55,1,O=C1O[C@H]([C@@H](O)CO)C(O)=C1O,le15
8567,"2,3-Didehydro-D-erythro-hexono-1,4-lactone",511.35,1,O=C1O[C@H]([C@H](O)CO)C(=O)C1=O,le15
8568,"Fumaric acid, dihydroxy-, dimethyl ester",383.95,1,COC(=O)/C(O)=C(\O)C(=O)OC,le15
8569,"Toluene-3,5-diamine, alpha,alpha,alpha-trifluoro- (8CI)",395.65,1,Nc1cc(N)cc(C(F)(F)F)c1,le15
8570,"2H-1-Benzopyran-2-one, 7-methoxy-",411.75,1,COc1ccc2ccc(=O)oc2c1,le15
8571,"4(5H)-Oxazolone, 2-amino-5-phenyl-",416.55,1,NC1=NC(=O)C(c2ccccc2)O1,le15
8572,"Quinoline, 4-(hydroxyamino)-, 1-oxide",433.95,1,[O-][n+]1ccc(NO)c2ccccc21,le15
8573,(2-acetyloxy-3-hydroxypropyl) acetate,373.35,1,CC(=O)OCC(CO)OC(C)=O,le15
8574,"Butane, 2,3-dimethyl-2,3-dinitro-",353.35,1,CC(C)([N+](=O)[O-])C(C)(C)[N+](=O)[O-],le15
8575,"2-Propenoic acid, 3-phenyl-, ethyl ester",421.75,1,CCOC(=O)C=Cc1ccccc1,le15
8576,"2-Propen-1-ol, 3-phenyl-, acetate",403.65,1,CC(=O)OCC=Cc1ccccc1,le15
8577,"3-Buten-2-one, 4-(p-methoxyphenyl)- (8CI)",421.45,1,COc1ccc(C=CC(C)=O)cc1,le15
8578,"Benzeneacetic acid, 2-propenyl ester",386.15,1,C=CCOC(=O)Cc1ccccc1,le15
8579,"Methanone, cyclopropyl(4-methoxyphenyl)-",413.15,1,COc1ccc(C(=O)C2CC2)cc1,le15
8580,"3-Butyne-1,2-diol, 2-methyl-1-phenyl-",436.25,1,C#CC(C)(O)C(O)c1ccccc1,le15
8581,"2-Propenoic acid, 2-methyl-, phenylmethyl ester",380.35,1,C=C(C)C(=O)OCc1ccccc1,le15