,compound,flashpoint,pure substance,smiles,source
12848,BISPHENOL A,480.1,1,CC(C)(c1ccc(O)cc1)c1ccc(O)cc1,didier14
12849,CUMENE HYDROPEROXIDE,322.0,1,CC(C)c1ccccc1.[O-]O,didier14
12850,p-MENTHANE HYDROPEROXIDE,404.0,1,CC1CCC(C(C)C)CC1.[O-]O,didier14
12851,2-HYDROXYETHYL ACRYLATE,371.1,1,C=CC(=O)OCCO,didier14
12852,"trans-2-BUTENE-1,4-DIOL",401.1,1,OC/C=C/CO,didier14
12853,2-NONANONE,337.1,1,CCCCCCCC(C)=O,didier14
12854,"2,6-DIAMINOTOLUENE",419.0,1,Cc1c(N)cccc1N,didier14
12855,CYCLOHEXYLBENZENE,372.0,1,c1ccc(C2CCCCC2)cc1,didier14
12856,"DIMETHYL-2,6-NAPHTHALENEDICARBOXYLATE",479.0,1,COC(=O)c1ccc2cc(C(=O)OC)ccc2c1,didier14
12857,o-TERPHENYL,436.0,1,c1ccc(-c2ccccc2-c2ccccc2)cc1,didier14
12858,ANTHRAQUINONE,458.1,1,O=C1c2ccccc2C(=O)c2ccccc21,didier14
12859,DIETHYL PHTHALATE,390.1,1,CCOC(=O)c1ccccc1C(=O)OCC,didier14
12860,DIISOBUTYL PHTHALATE,434.1,1,CC(C)COC(=O)c1ccccc1C(=O)OCC(C)C,didier14
12861,DI-n-BUTYL PHTHALATE,430.1,1,CCCCOC(=O)c1ccccc1C(=O)OCCCC,didier14
12862,DI-n-HEXYL PHTHALATE,466.1,1,CCCCCCOC(=O)c1ccccc1C(=O)OCCCCCC,didier14
12863,DI-n-NONYL PHTHALATE,489.1,1,CCCCCCCCCOC(=O)c1ccccc1C(=O)OCCCCCCCCC,didier14
12864,DI-n-DECYL PHTHALATE,505.0,1,CCCCCCCCCCOC(=O)c1ccccc1C(=O)OCCCCCCCCCC,didier14
12865,PHENANTHRENE,444.0,1,c1ccc2c(c1)ccc1ccccc12,didier14
12866,2-HYDROXYETHYL METHACRYLATE,370.1,1,C=C(C)C(=O)OCCO,didier14
12867,1-n-PENTYLNAPHTHALENE,413.0,1,CCCCCc1cccc2ccccc12,didier14
12868,2-METHYLNONANE,314.0,1,CCCCCCCC(C)C,didier14
12869,1-DECENE,311.0,1,C=CCCCCCCCC,didier14
12870,"1,2,3-TRICHLOROBENZENE",386.0,1,Clc1cccc(Cl)c1Cl,didier14
12871,"1,2,3-BENZENETRIOL",458.0,1,Oc1cccc(O)c1O,didier14
12872,"HEXACHLORO-1,3-BUTADIENE",395.0,1,ClC(Cl)=C(Cl)C(Cl)=C(Cl)Cl,didier14
12873,o-NITROTOLUENE,379.0,1,Cc1ccccc1[N+](=O)[O-],didier14
12874,o-CHLORONITROBENZENE,400.1,1,O=[N+]([O-])c1ccccc1Cl,didier14
12875,o-NITROANILINE,441.1,1,Nc1ccccc1[N+](=O)[O-],didier14
12876,DIPROPYLENE GLYCOL MONOMETHYL ETHER ACETATE,359.0,1,COC(C)COC(C)COC(C)=O,didier14
12877,PHTHALIC ACID,477.0,1,O=C(O)c1ccccc1C(=O)O,didier14
12878,PYROMELLITIC ACID,597.0,1,O=C(O)c1cc(C(=O)O)c(C(=O)O)cc1C(=O)O,didier14
12879,o-ETHYLPHENOL,351.1,1,CCc1ccccc1O,didier14
12880,SALICYLALDEHYDE,349.1,1,O=Cc1ccccc1O,didier14
12881,GUAIACOL,355.0,1,COc1ccccc1O,didier14
12882,1-METHYLNAPHTHALENE,355.1,1,Cc1cccc2ccccc12,didier14
12883,1-CHLORONAPHTHALENE,394.1,1,Clc1cccc2ccccc12,didier14
12884,NAPHTHALENE,352.0,1,c1ccc2ccccc2c1,didier14
12885,QUINOLINE,374.0,1,c1ccc2ncccc2c1,didier14
12886,2-METHYLNAPHTHALENE,370.1,1,Cc1ccc2ccccc2c1,didier14
12887,QUINALDINE,352.6,1,Cc1ccc2ccccc2n1,didier14
12888,"N,N-DIETHYLANILINE",358.1,1,CCN(CC)c1ccccc1,didier14
12889,2-HYDROXYPROPYL METHACRYLATE,369.1,1,C=C(C)C(=O)OCC(C)O,didier14
12890,BICYCLOHEXYL,347.1,1,C1CCC(C2CCCCC2)CC1,didier14
12891,3-NONANONE,339.1,1,CCCCCCC(=O)CC,didier14
12892,DIAMYL KETONE,361.5,1,CCCCCC(=O)CCCCC,didier14
12893,MALEONITRILE,389.0,1,N#C/C=C\C#N,didier14
12894,BENZIDINE,521.0,1,Nc1ccc(-c2ccc(N)cc2)cc1,didier14
12895,2-AMINOETHOXYETHANOL,397.0,1,CC(O)OCCN,didier14
12896,p-TERPHENYL,480.0,1,c1ccc(-c2ccc(-c3ccccc3)cc2)cc1,didier14
12897,2-ETHYLNAPHTHALENE,377.1,1,CCc1ccc2ccccc2c1,didier14
12898,"DIMETHYL-1,4-CYCLOHEXANEDICARBOXYLATE",383.1,1,COC(=O)C1CCC(C(=O)OC)CC1,didier14
12899,o-XYLENE,290.0,1,Cc1ccccc1C,didier14
12900,o-CRESOL,354.0,1,Cc1ccccc1O,didier14
12901,o-DICHLOROBENZENE,339.0,1,Clc1ccccc1Cl,didier14
12902,o-CHLOROANILINE,363.7,1,Nc1ccccc1Cl,didier14
12903,o-TOLUIDINE,358.1,1,Cc1ccccc1N,didier14
12904,o-CHLOROPHENOL,337.0,1,Oc1ccccc1Cl,didier14
12905,"1,2,4-TRIMETHYLBENZENE",318.6,1,Cc1ccc(C)c(C)c1,didier14
12906,"2,4-DICHLOROTOLUENE",369.3,1,Cc1ccc(Cl)cc1Cl,didier14
12907,"3,4-DICHLOROANILINE",439.0,1,Nc1ccc(Cl)c(Cl)c1,didier14
12908,"2,5-XYLENOL",360.0,1,Cc1ccc(C)c(O)c1,didier14
12909,DIETHYL OXALATE,339.2,1,CCOC(=O)C(=O)OCC,didier14
12910,BIS-(2-HYDROXYETHYL) TEREPHTHALATE,545.0,1,O=C(OCCO)c1ccc(C(=O)OCCO)cc1,didier14
12911,"1,2,4,5-TETRAMETHYLBENZENE",328.0,1,Cc1cc(C)c(C)cc1C,didier14
12912,"1,2,3-TRICHLOROPROPANE",347.0,1,ClCC(Cl)CCl,didier14
12913,3-PENTANONE,286.0,1,CCC(=O)CC,didier14
12914,"1,3-DICHLORO-2-PROPANOL",358.1,1,OC(CCl)CCl,didier14
12915,"3-CHLORO-1,2-PROPANEDIOL",408.1,1,OCC(O)CCl,didier14
12916,METHYL CHLOROACETATE,324.8,1,COC(=O)CCl,didier14
12917,METHYL GLYCOLATE,339.1,1,COC(=O)CO,didier14
12918,METHYLCYCLOPENTANE,246.0,1,CC1CCCC1,didier14
12919,"1-CHLORO-2,4-DINITROBENZENE",467.0,1,O=[N+]([O-])c1ccc(Cl)c([N+](=O)[O-])c1,didier14
12920,ETHYL ISOBUTYRATE,287.0,1,CCOC(=O)C(C)C,didier14
12921,ETHYL LACTATE,319.1,1,CCOC(=O)C(C)O,didier14
12922,ITACONIC ACID,488.0,1,C=C(CC(=O)O)C(=O)O,didier14
12923,2-ETHYL-1-BUTANOL,330.0,1,CCC(CC)CO,didier14
12924,tert-BUTYLBENZENE,333.1,1,CC(C)(C)c1ccccc1,didier14
12925,p-tert-BUTYLCATECHOL,403.0,1,CC(C)(C)c1ccc(O)c(O)c1,didier14
12926,p-DIISOPROPYLBENZENE HYDROPEROXIDE,465.0,1,CC(C)c1ccc(C(C)C)cc1.[O-]O,didier14
12927,NITROBENZENE,361.0,1,O=[N+]([O-])c1ccccc1,didier14
12928,m-NITROTOLUENE,375.0,1,Cc1cccc([N+](=O)[O-])c1,didier14
12929,METHYL tert-PENTYL ETHER,262.1,1,CCC(C)(C)OC,didier14
12930,"1,2-DICHLORO-4-NITROBENZENE",396.1,1,O=[N+]([O-])c1ccc(Cl)c(Cl)c1,didier14
12931,m-DINITROBENZENE,423.1,1,O=[N+]([O-])c1cccc([N+](=O)[O-])c1,didier14
12932,DIALLYL MALEATE,393.0,1,C=CCOC(=O)/C=C\C(=O)OCC=C,didier14
12933,2-HYDROXYPROPYL ACRYLATE,372.1,1,C=CC(=O)OCC(C)O,didier14
12934,p-NITROTOLUENE,379.0,1,Cc1ccc([N+](=O)[O-])cc1,didier14
12935,Propane,169.0,1,CCC,pan07
12936,Butane,213.0,1,CCCC,pan07
12937,Pentane,224.0,1,CCCCC,pan07
12938,"2,2-Dimethylpropane",208.0,1,CC(C)(C)C,pan07
12939,Hexane,250.0,1,CCCCCC,pan07
12940,"2,2-Dimethylbutane",225.0,1,CCC(C)(C)C,pan07
12941,"2,3-Dimethylbutane",244.0,1,CC(C)C(C)C,pan07
12942,Heptane,269.0,1,CCCCCCC,pan07
12943,"3,3-Dimethylpentane",254.0,1,CCC(C)(C)CC,pan07
12944,"2,4-Dimethylpentane",261.0,1,CC(C)CC(C)C,pan07
12945,3-Ethylpentane,255.0,1,CCC(CC)CC,pan07
12946,"2,2-Dimethylpentane",250.0,1,CCCC(C)(C)C,pan07
12947,"2,2,4-Trimethylpentane",261.0,1,CC(C)CC(C)(C)C,pan07
12948,"2,2,3-Trimethylpentane",270.0,1,CCC(C)C(C)(C)C,pan07
12949,3-Methyl-3-ethylpentane,276.0,1,CCC(C)(CC)CC,pan07
12950,3-Ethylhexane,278.0,1,CCCC(CC)CC,pan07
12951,3-Methylheptane,279.0,1,CCCCC(C)CC,pan07
12952,"3,3-Dimethylhexane",272.0,1,CCCC(C)(C)CC,pan07
12953,"2,3-Dimethylhexane",283.0,1,CCCC(C)C(C)C,pan07
12954,"2,4-Dimethylhexane",283.0,1,CCC(C)CC(C)C,pan07
12955,"2,5-Dimethylhexane",271.0,1,CC(C)CCC(C)C,pan07
12956,Nonane,304.0,1,CCCCCCCCC,pan07
12957,"3,4-Dimethylheptane",288.0,1,CCCC(C)C(C)CC,pan07
12958,"2,3-Dimethylheptane",288.0,1,CCCCC(C)C(C)C,pan07
12959,"2,6-Dimethylheptane",299.0,1,CC(C)CCCC(C)C,pan07
12960,"2,3-Dimethyl-3-ethylpentane",288.0,1,CCC(C)(CC)C(C)C,pan07
12961,"2,2,5-Trimethylhexane",286.0,1,CC(C)CCC(C)(C)C,pan07
12962,3-Methyloctane,297.0,1,CCCCCC(C)CC,pan07
12963,"2,2,3,4-Tetramethylpentane",284.0,1,CC(C)C(C)C(C)(C)C,pan07
12964,"2,2,4,4-Tetramethylpentane",276.0,1,CC(C)(C)CC(C)(C)C,pan07
12965,4-Ethylheptane,288.0,1,CCCC(CC)CCC,pan07
12966,"2,2-Dimethylheptane",297.0,1,CCCCCC(C)(C)C,pan07
12967,"2,4-Dimethylheptane",288.0,1,CCCC(C)CC(C)C,pan07
12968,"2,3,4-Trimethylhexane",288.0,1,CCC(C)C(C)C(C)C,pan07
12969,"3,3,4-Trimethylhexane",288.0,1,CCC(C)C(C)(C)CC,pan07
12970,"2,3,5-Trimethylhexane",288.0,1,CC(C)CC(C)C(C)C,pan07
12971,"2,2,3-Trimethylhexane",288.0,1,CCCC(C)C(C)(C)C,pan07
12972,"3,5-Dimethylheptane",288.0,1,CCC(C)CC(C)CC,pan07
12973,Tetraethylmethane,294.0,1,CCC(CC)(CC)CC,pan07
12974,Decane,319.0,1,CCCCCCCCCC,pan07
12975,4-Ethyloctane,314.0,1,CCCCC(CC)CCC,pan07
12976,"2,4,5-Trimethylheptane",304.0,1,CCC(C)C(C)CC(C)C,pan07
12977,"2,3-Dimethyloctane",314.0,1,CCCCCC(C)C(C)C,pan07
12978,"3,3-Dimethyloctane",314.0,1,CCCCCC(C)(C)CC,pan07
12979,"3,5-Dimethyloctane",314.0,1,CCCC(C)CC(C)CC,pan07
12980,"2,6-Dimethyloctane",314.0,1,CCC(C)CCCC(C)C,pan07
12981,"3-Ethyl-2,2-dimethylhexane",311.0,1,CCCC(CC)C(C)(C)C,pan07
12982,"3,3,4,4-Tetramethylhexane",304.0,1,CCC(C)(C)C(C)(C)CC,pan07
12983,"2,2,5,5-Tetramethylhexane",304.0,1,CC(C)(C)CCC(C)(C)C,pan07
12984,"2,3,3,4-Tetramethylhexane",304.0,1,CCC(C)C(C)(C)C(C)C,pan07
12985,"2,3,4,5-Tetramethylhexane",304.0,1,CC(C)C(C)C(C)C(C)C,pan07
12986,"2,2,4,4-Tetramethylhexane",304.0,1,CCC(C)(C)CC(C)(C)C,pan07
12987,"3,3,5-Trimethylheptane",304.0,1,CCC(C)CC(C)(C)CC,pan07
12988,"2,3,5-Trimethylheptane",304.0,1,CCC(C)CC(C)C(C)C,pan07
12989,3-Ethyl-3-methylheptane,314.0,1,CCCCC(C)(CC)CC,pan07
12990,4-Ethyl-3-methylheptane,314.0,1,CCCC(CC)C(C)CC,pan07
12991,2-Methylnonane,314.0,1,CCCCCCCC(C)C,pan07
12992,Undecane,333.0,1,CCCCCCCCCCC,pan07
12993,Dodecane,344.0,1,CCCCCCCCCCCC,pan07
12994,Tetradecane,372.0,1,CCCCCCCCCCCCCC,pan07
12995,Hexadecane,408.0,1,CCCCCCCCCCCCCCCC,pan07
12996,"2,2,4,4,6,8,8-Heptamethylnonane",368.0,1,CC(CC(C)(C)C)CC(C)(C)CC(C)(C)C,pan07
12997,2-Methylbutane,216.0,1,CCC(C)C,pan07
12998,2-Methylpentane,250.0,1,CCCC(C)C,pan07
12999,"2,3,3-Trimethylpentane",273.0,1,CCC(C)(C)C(C)C,pan07
13000,2-Methylheptane,277.0,1,CCCCCC(C)C,pan07
13001,"2,2-Dimethylhexane",269.0,1,CCCCC(C)(C)C,pan07
13002,"3-Ethyl-2,2-dimethylpentane",286.0,1,CCC(CC)C(C)(C)C,pan07
13003,"2,4,4-Trimethylhexane",288.0,1,CCC(C)(C)CC(C)C,pan07
13004,"4,4-Dimethylheptane",288.0,1,CCCC(C)(C)CCC,pan07
13005,"2,3,3-Trimethylhexane",288.0,1,CCCC(C)(C)C(C)C,pan07
13006,"2,4,6-Trimethylheptane",304.0,1,CC(C)CC(C)CC(C)C,pan07
13007,"3-Ethyl-2,3,4-trimethylpentane",304.0,1,CCC(C)(C(C)C)C(C)C,pan07
13008,"2,3,4,4-Tetramethylhexane",304.0,1,CCC(C)(C)C(C)C(C)C,pan07
13009,"3,4,5-Trimethylheptane",304.0,1,CCC(C)C(C)C(C)CC,pan07
13010,3-Ethyl-5-methylheptane,304.0,1,CCC(C)CC(CC)CC,pan07
13011,5-Methylnonane,312.0,1,CCCCC(C)CCCC,pan07
13012,2-Methylpropane,186.0,1,CC(C)C,pan07
13013,3-Methylpentane,241.0,1,CCC(C)CC,pan07
13014,"2,3-Dimethylpentane",258.0,1,CCC(C)C(C)C,pan07
13015,3-Methylhexane,258.0,1,CCCC(C)CC,pan07
13016,"2,2,3-Trimethylbutane",247.0,1,CC(C)C(C)(C)C,pan07
13017,Octane,286.0,1,CCCCCCCC,pan07
13018,"2,2,3,3-Tetramethylbutane",273.0,1,CC(C)(C)C(C)(C)C,pan07
13019,"2,3,4-Trimethylpentane",273.0,1,CC(C)C(C)C(C)C,pan07
13020,"3,4-Dimethylhexane",277.0,1,CCC(C)C(C)CC,pan07
13021,3-Ethyl-4-methylhexane,288.0,1,CCC(C)C(CC)CC,pan07
13022,"2,2,4-Trimethylhexane",288.0,1,CCC(C)CC(C)(C)C,pan07
13023,"2,7-Dimethyloctane",314.0,1,CC(C)CCCCC(C)C,pan07
13024,"2,2,3,4-Tetramethylhexane",304.0,1,CCC(C)C(C)C(C)(C)C,pan07
13025,Tridecane,352.0,1,CCCCCCCCCCCCC,pan07
13026,Pentadecane,388.0,1,CCCCCCCCCCCCCCC,pan07
13027,1-Chlorobutane,262.1,1,CCCCCl,carroll15
13028,1-Chloro-3-methylbutane,289.2,1,CC(C)CCCl,carroll15
13029,1-Chloro-2-methylbutane,283.0,1,CCC(C)CCl,carroll15
13030,1-Chloropentane,284.3,1,CCCCCCl,carroll15
13031,"1-Chloro-3,3-dimethylbutane",292.2,1,CC(C)(C)CCCl,carroll15
13032,"1-Chloro-2,2-dimethylbutane",292.2,1,CCC(C)(C)CCl,carroll15
13033,3-(Chloromethyl)pentane,298.2,1,CCC(CC)CCl,carroll15
13034,1-Chloro-2-ethylbutane,298.2,1,CCC(CC)CCl,carroll15
13035,1-Chloro-2-methylpentane,298.2,1,CCCC(C)CCl,carroll15
13036,1-Chloro-3-methylpentane,298.2,1,CCC(C)CCCl,carroll15
13037,1-Chlorohexane,299.9,1,CCCCCCCl,carroll15
13038,1-Chloro-3-methylhexane,312.4,1,CCCC(C)CCCl,carroll15
13039,1-Chloroheptane,314.9,1,CCCCCCCCl,carroll15
13040,1-Chloro-5-methylheptane,325.7,1,CCC(C)CCCCCl,carroll15
13041,1-Chlorooctane,334.2,1,CCCCCCCCCl,carroll15
13042,1-Chlorodecane,356.2,1,CCCCCCCCCCCl,carroll15
13043,1-Chloroundecane,367.6,1,CCCCCCCCCCCCl,carroll15
13044,1-Chlorododecane,377.7,1,CCCCCCCCCCCCCl,carroll15
13045,1-Chlorotetradecane,403.2,1,CCCCCCCCCCCCCCCl,carroll15
13046,1-Chlorohexadecane,411.3,1,CCCCCCCCCCCCCCCCCl,carroll15
13047,1-Chloroheptadecane,418.4,1,CCCCCCCCCCCCCCCCCCl,carroll15
13048,1-Chlorooctadecane,457.2,1,CCCCCCCCCCCCCCCCCCCl,carroll15
13049,3-Chloropentane,283.0,1,CCC(Cl)CC,carroll15
13050,3-Chloro-2-methylpentane,294.0,1,CCC(Cl)C(C)C,carroll15
13051,2-Chloro-4-methylpentane,294.0,1,CC(C)CC(C)Cl,carroll15
13052,2-Chlorohexane,298.2,1,CCCCC(C)Cl,carroll15
13053,3-Chlorohexane,298.2,1,CCCC(Cl)CC,carroll15
13054,2-Chloro-5-methylhexane,308.4,1,CC(C)CCC(C)Cl,carroll15
13055,4-Chloroheptane,312.4,1,CCCC(Cl)CCC,carroll15
13056,3-Chloroheptane,312.4,1,CCCCC(Cl)CC,carroll15
13057,2-Chloroheptane,312.4,1,CCCCCC(C)Cl,carroll15
13058,3-Chlorooctane,325.7,1,CCCCCC(Cl)CC,carroll15
13059,2-Chlorononane,338.3,1,CCCCCCCC(C)Cl,carroll15
13060,5-Chlorononane,338.3,1,CCCCC(Cl)CCCC,carroll15
13061,(S)-6-Chloro-2-methylnonane,346.9,1,CCC[C@H](Cl)CCCC(C)C,carroll15
13062,2-Chlorodecane,350.2,1,CCCCCCCCC(C)Cl,carroll15
13063,2-Chlorododecane,372.7,1,CCCCCCCCCCC(C)Cl,carroll15
13064,5-Chlorododecane,372.6,1,CCCCCCCC(Cl)CCCC,carroll15
13065,5-Chlorotridecane,383.2,1,CCCCCCCCC(Cl)CCCC,carroll15
13066,"2-Chloro-2,3-dimethylbutane",288.1,1,CC(C)C(C)(C)Cl,carroll15
13067,3-Chloro-3-methylpentane,282.6,1,CCC(C)(Cl)CC,carroll15
13068,2-Chloro-2-methylpentane,294.0,1,CCCC(C)(C)Cl,carroll15
13069,"2-Chloro-2,4-dimethylpentane",302.9,1,CC(C)CC(C)(C)Cl,carroll15
13070,3-Chloro-3-methylhexane,306.7,1,CCCC(C)(Cl)CC,carroll15
13071,"2-Chloro-2,3-dimethylpentane",302.9,1,CCC(C)C(C)(C)Cl,carroll15
13072,"2-Chloro-2,3,3-trimethylbutane",297.5,1,CC(C)(C)C(C)(C)Cl,carroll15
13073,3-Chloro-3-ethylpentane,306.7,1,CCC(Cl)(CC)CC,carroll15
13074,"2-Chloro-2,4,4-trimethylpentane",311.5,1,CC(C)(C)CC(C)(C)Cl,carroll15
13075,"3-Chloro-2,3-dimethylhexane",316.7,1,CCCC(C)(Cl)C(C)C,carroll15
13076,3-Chloro-3-methylheptane,320.3,1,CCCCC(C)(Cl)CC,carroll15
13077,2-Chloro-2-methylheptane,320.3,1,CCCCCC(C)(C)Cl,carroll15
13078,"3-Chloro-2,2,3-trimethylhexane",324.8,1,CCCC(C)(Cl)C(C)(C)C,carroll15
13079,3-Chloro-3-ethylheptane,333.1,1,CCCCC(Cl)(CC)CC,carroll15
13080,3-Chloro-3-methyloctane,333.1,1,CCCCCC(C)(Cl)CC,carroll15
13081,"6-Chloro-2,6-dimethyloctane",342.0,1,CCC(C)(Cl)CCCC(C)C,carroll15
13082,2-Chloro-2-methylnonane,345.3,1,CCCCCCCC(C)(C)Cl,carroll15
13083,3-Chloro-3-methylnonane,345.3,1,CCCCCCC(C)(Cl)CC,carroll15
13084,"1-Chloro-2,3-dimethylbutane",294.0,1,CC(C)C(C)CCl,carroll15
13085,1-Chloro-4-methylpentane,298.2,1,CC(C)CCCCl,carroll15
13086,3-(Chloromethyl)heptane,325.7,1,CCCCC(CC)CCl,carroll15
13087,1-Chlorononane,347.2,1,CCCCCCCCCCl,carroll15
13088,"1-Chloro-3,7-dimethyloctane",346.9,1,CC(C)CCCC(C)CCCl,carroll15
13089,1-Chlorotridecane,387.0,1,CCCCCCCCCCCCCCl,carroll15
13090,1-Chloropentadecane,403.8,1,CCCCCCCCCCCCCCCCl,carroll15
13091,1-Chloroeicosane,437.2,1,CCCCCCCCCCCCCCCCCCCCCl,carroll15
13092,2-Chlorobutane,258.2,1,CCC(C)Cl,carroll15
13093,2-Chloro-3-methylbutane,278.6,1,CC(C)C(C)Cl,carroll15
13094,2-Chloropentane,274.2,1,CCCC(C)Cl,carroll15
13095,"3-Chloro-2,2-dimethylbutane",288.1,1,CC(Cl)C(C)(C)C,carroll15
13096,"4-Chloro-2,2-dimethylpentane",302.9,1,CC(Cl)CC(C)(C)C,carroll15
13097,2-Chloro-6-methylheptane,322.0,1,CC(C)CCCC(C)Cl,carroll15
13098,2-Chlorooctane,325.7,1,CCCCCCC(C)Cl,carroll15
13099,5-Chloroundecane,361.7,1,CCCCCCC(Cl)CCCC,carroll15
13100,2-Chloro-2-methylbutane,276.5,1,CCC(C)(C)Cl,carroll15
13101,"3-Chloro-2,3-dimethylpentane",302.9,1,CCC(C)(Cl)C(C)C,carroll15
13102,2-Chloro-2-methylhexane,306.7,1,CCCCC(C)(C)Cl,carroll15
13103,"2-Chloro-2,5-dimethylhexane",316.7,1,CC(C)CCC(C)(C)Cl,carroll15
13104,4-Chloro-4-methylheptane,320.3,1,CCCC(C)(Cl)CCC,carroll15
13105,"3-Chloro-3-ethyl-2,2-dimethylpentane",324.8,1,CCC(Cl)(CC)C(C)(C)C,carroll15
13106,2-Chloro-2-methyloctane,333.1,1,CCCCCCC(C)(C)Cl,carroll15
13107,4-Chloro-4-methyloctane,333.1,1,CCCCC(C)(Cl)CCC,carroll15
13108,Methyltrichlorosilane,276.15,1,C[Si](Cl)(Cl)Cl,didier12
13109,Vinyltrichlorosilane,294.15,1,C=C[Si](Cl)(Cl)Cl,didier12
13110,Dichloromethylmethyldichlorosilane,301.15,1,C[Si](Cl)(Cl)C(Cl)Cl,didier12
13111,Ethyltrichlorosilane,263.15,1,CC[Si](Cl)(Cl)Cl,didier12
13112,Dimethylchlorosilane,245.15,1,C[SiH](C)Cl,didier12
13113,Ethylsilane,213.15,1,CC[SiH3],didier12
13114,"1,1,1-Trifluoropropyltrichlorosilane",288.15,1,CC(C(F)(F)F)[Si](Cl)(Cl)Cl,didier12
13115,Allyltrichlorosilane,304.15,1,C=CC[Si](Cl)(Cl)Cl,didier12
13116,Methylvinyldichlorosilane,272.15,1,CC=C[SiH](Cl)Cl,didier12
13117,3-Chloropropyltrichlorosilane,357.15,1,ClCCC[Si](Cl)(Cl)Cl,didier12
13118,n-Propyltrichlorosilane,310.15,1,CCC[Si](Cl)(Cl)Cl,didier12
13119,Chloromethyldimethylchlorosilane,295.15,1,C[Si](C)(Cl)CCl,didier12
13120,Trimethylbromosilane,270.15,1,C[Si](C)(C)Br,didier12
13121,Trimethylchlorosilane,255.15,1,C[Si](C)(C)Cl,didier12
13122,Trimethylfluorosilane,238.15,1,C[Si](C)(C)F,didier12
13123,Trimethoxysilane,264.15,1,CO[SiH](OC)OC,didier12
13124,Cyanoethylmethyldichlorosilane,333.15,1,C[Si](Cl)(Cl)CCC#N,didier12
13125,Allylmethyldichlorosilane,300.15,1,C=CCC[SiH](Cl)Cl,didier12
13126,3-Chloropropylmethyldichlorosilane,359.15,1,C[Si](Cl)(Cl)CCCCl,didier12
13127,t-Butyltrichlorosilane,294.15,1,CC(C)(C)[Si](Cl)(Cl)Cl,didier12
13128,Isobutyltrichlorosilane,310.15,1,CC(C)C[Si](Cl)(Cl)Cl,didier12
13129,n-Butyltrichlorosilane,327.15,1,CCCC[Si](Cl)(Cl)Cl,didier12
13130,Trimethylsilylisothiocyanate,308.15,1,C[Si](C)(C)N=C=S,didier12
13131,n-Propylmethyldichlorosilane,300.15,1,CCC[Si](C)(Cl)Cl,didier12
13132,Bromomethyltrimethylsilane,289.15,1,C[Si](C)(C)CBr,didier12
13133,Ethyldimethylchlorosilane,269.15,1,CC[Si](C)(C)Cl,didier12
13134,Methoxytrimethylsilane,243.15,1,CO[Si](C)(C)C,didier12
13135,Dimethyldimethoxysilane,265.15,1,CO[Si](C)(C)OC,didier12
13136,Methyltrimethoxysilane,284.15,1,CO[Si](C)(OC)OC,didier12
13137,Tetramethoxysilane,294.15,1,CO[Si](OC)(OC)OC,didier12
13138,Tetramethylsilane,245.15,1,C[Si](C)(C)C,didier12
13139,Diethylsilane,253.15,1,CC[SiH2]CC,didier12
13140,"(N,N-Dimethylamino)dimethylsilane",260.15,1,CN(C)[SiH](C)C,didier12
13141,Tetraisocyanatosilane,323.15,1,O=C=N[Si](N=C=O)(N=C=O)N=C=O,didier12
13142,Cyclopentyltrichlorosilane,350.15,1,Cl[Si](Cl)(Cl)C1CCCC1,didier12
13143,Trimethylsilyltrifluoroacetate,273.15,1,C[Si](C)(C)OC(=O)C(F)(F)F,didier12
13144,Cyclopentyldichlorosilane,316.15,1,Cl[SiH](Cl)C1CCCC1,didier12
13145,3-Chloro-2-methylpropylmethyldichlorosilane,363.15,1,CC(CCl)C[Si](C)(Cl)Cl,didier12
13146,Methylvinyldimethoxysilane,277.15,1,CC=C[SiH](OC)OC,didier12
13147,Vinyltrimethoxysilane,296.15,1,C=C[Si](OC)(OC)OC,didier12
13148,Trimethylvinylsilane,239.15,1,CC(C)=C(C)[SiH3],didier12
13149,Diethylmethylchlorosilane,288.15,1,CC[Si](C)(Cl)CC,didier12
13150,Chloromethyldimethylethoxysilane,299.15,1,CCO[Si](C)(C)CCl,didier12
13151,Ethoxytrimethylsilane,246.15,1,CCO[Si](C)(C)C,didier12
13152,Ethyltrimethoxysilane,300.15,1,CC[Si](OC)(OC)OC,didier12
13153,"(N,N-Dimethylamino)trimethylsilane",254.15,1,CN(C)[Si](C)(C)C,didier12
13154,Pentamethyldisiloxane,254.15,1,C[SiH](C)O[Si](C)(C)C,didier12
13155,Phenyldichlorosilane,333.15,1,Cl[SiH](Cl)c1ccccc1,didier12
13156,Phenylsilane,281.15,1,[SiH3]c1ccccc1,didier12
13157,1-Hexenyltrichlorosilane,333.15,1,CCCCC=C[Si](Cl)(Cl)Cl,didier12
13158,Cyclohexyltrichlorosilane,358.15,1,Cl[Si](Cl)(Cl)C1CCCCC1,didier12
13159,Bis(chloromethyl)tetramethyldisiloxane,346.15,1,C[Si](C)(C)O[Si](C)(CCl)CCl,didier12
13160,Propargyloxytrimethylsilane,300.15,1,C#CCO[Si](C)(C)C,didier12
13161,Divinyldimethylsilane,281.15,1,C=C[Si](C)(C)C=C,didier12
13162,n-Hexyltrichlorosilane,358.15,1,CCCCCC[Si](Cl)(Cl)Cl,didier12
13163,Hexyldichlorosilane,337.15,1,CCCCCC[SiH](Cl)Cl,didier12
13164,"1,1-Dimethyl-1-sila-2-oxacyclohexane",287.15,1,C[Si]1(C)CCCCO1,didier12
13165,Acetoxymethyltrimethylsilane,293.15,1,CC(=O)OC[Si](C)(C)C,didier12
13166,Allyltrimethylsilane,280.15,1,C=CC[Si](C)(C)C,didier12
13167,Triethylchlorosilane,303.15,1,CC[Si](Cl)(CC)CC,didier12
13168,t-Butyldimethylchlorosilane,295.15,1,CC(C)(C)[Si](C)(C)Cl,didier12
13169,3-Chloropropylmethyldimethoxysilane,318.15,1,CO[Si](C)(CCCCl)OC,didier12
13170,Trimethyl-n-propoxysilane,283.15,1,CCCO[Si](C)(C)C,didier12
13171,t-Butyldimethylsilanol,318.15,1,CC(C)(C)[Si](C)(C)O,didier12
13172,Dimethyldiethoxysilane,284.15,1,CCO[Si](C)(C)OCC,didier12
13173,Triethylsilane,270.15,1,CC[SiH](CC)CC,didier12
13174,Hexylsilane,285.15,1,CCCCCC[SiH3],didier12
13175,t-Butyldimethylsilane,251.15,1,C[SiH](C)C(C)(C)C,didier12
13176,Bis(dimethylamino)dimethylsilane,266.15,1,CN(C)[Si](C)(C)N(C)C,didier12