smiles,compound,flashpoint,source,pure substance,canonical smiles
C1(CCCCC1)O,cyclohexanol,336.0,carroll11,1,CCCCC/C=C/C(=O)OC
C1(CCCC1)CO,cyclopentylmethanol,335.0,carroll11,1,C=C/C=C/C(=O)OC
C[C@@H]1[C@@H](CCCC1)O,cis-2-methylcyclohexanol,332.0,carroll11,1,C=C/C=C\C(=O)OC
C[C@H]1[C@@H](CCCC1)O,trans-2-methylcyclohexanol,332.0,carroll11,1,CC/C=C/CC(=O)OC
C[C@@H]1CC[C@H](CC1)O,trans-4-methylcyclohexanol,343.0,carroll11,1,CCCCC/C=C/CC(=O)OC
C(C)C(CO)CCCC,2-ethyl-1-hexanol,347.0,carroll11,1,C/C=C/CC(=O)OC
C1(CCCCCC1)O,cycloheptanol,344.0,carroll11,1,CCCCC/C=C\CC(=O)OC
CC(CCO)CC(C)(C)C,"3,5,5-trimethyl-1-hexanol",353.0,carroll11,1,C/C=C\C/C=C\C/C=C\C/C=C\C/C=C\C/C=C\CCCC(=O)OC
CC(C(C)O)O,"2,3-butanediol",358.0,carroll11,1,CC/C=C\C/C=C\C/C=C\C/C=C\C/C=C\CCCC(=O)OC
C(C(C)O)O,"1,2-propanediol",372.0,carroll11,1,CCCCC/C=C/C/C=C/C/C=C/CCCCC(=O)OC
C(C(CC)O)O,"1,2-butanediol",366.0,carroll11,1,CCCCC/C=C\C/C=C/C/C=C/CCCCC(=O)OC
C(CO)O,"1,2-ethanediol",381.0,carroll11,1,CCCCC/C=C/C/C=C\C/C=C/CCCCC(=O)OC
C(C(CCC)O)O,"1,2-pentanediol",378.0,carroll11,1,CCCCC/C=C\C/C=C\C/C=C/CCCCC(=O)OC
C(CC(C)O)O,"1,3-butanediol",382.0,carroll11,1,CCCCC/C=C/C/C=C/C/C=C\CCCCC(=O)OC
C(C(CCCC)O)O,"1,2-hexanediol",395.0,carroll11,1,CCCCC/C=C\C/C=C/C/C=C\CCCCC(=O)OC
C(CCCO)O,"1,4-butanediol",394.0,carroll11,1,CCCCC/C=C/C/C=C\C/C=C\CCCCC(=O)OC
C(CCCCO)O,"1,5-pentanediol",402.0,carroll11,1,CCCCC/C=C\C/C=C\C/C=C\CCCCC(=O)OC
C1(CCCCCCC1)O,cyclooctanol,361.0,carroll11,1,CC/C=C\C/C=C\C/C=C\CCCCCCCC(=O)OC
C(C)(=O)O,aceticacid,313.0,carroll11,1,CCCCC/C=C\C/C=C\CCCCCCCC(=O)OC
C(CC)(=O)O,propionicacid,331.0,carroll11,1,CCCCCC/C=C\CCCCCCCC(=O)OC
C(CCC)(=O)O,butanoicacid,342.0,carroll11,1,CCCCCCCC/C=C\CCCCCCCC(=O)OC
C(CCCC)(=O)O,pentanoicacid,358.0,carroll11,1,C=CCCCCCCCCC(=O)OC
C(CCCCC)(=O)O,hexanoicacid,375.0,carroll11,1,C=C(C)C(=O)OC
C(CCCCCC)(=O)O,heptanoicacid,382.0,carroll11,1,COC(=O)C(C)C
CC(C(=O)O)C,2-methylpropanoicacid,332.0,carroll11,1,C=CCC(=O)OC
CC(CC(=O)O)C,3-methylbutanoicacid,347.0,carroll11,1,CCCC(=O)OC
CC(C(=O)O)CC,2-methylbutanoicacid,350.0,carroll11,1,CCCCCCCCCC(=O)OC
C(C)C(C(=O)O)CC,2-ethylbutanoicacid,360.0,carroll11,1,CCCCCCCCCCCC(=O)OC
CC(CC(=O)O)(C)C,"3,3-dimethylbutanoicacid",361.0,carroll11,1,CCCCCCCCCCCCCCCCCCCC(=O)OC
CC(CCC(=O)O)C,4-methylpentanoicacid,370.0,carroll11,1,COC(C)=O
CC(C(=O)O)CCC,2-methylpentanoicacid,364.0,carroll11,1,CCCCCCCCCCCCCCCCCCCCC(=O)OC
CC(C(=O)O)CCCC,2-methylhexanoicacid,378.0,carroll11,1,CCCCCCCCCCCCCCCCC(=O)OC
CC(CC(=O)O)CCC,3-methylhexanoicacid,376.0,carroll11,1,CCCCCCC(=O)OC
CC(CCC(=O)O)CC,4-methylhexanoicacid,376.0,carroll11,1,C=CCCCC(=O)OC
C(C)(=O)OC(C)=O,aceticanhydride,322.0,carroll11,1,CCCCCCCCCCCCCCCC(=O)OC
C(CCC)(=O)OC(CCC)=O,butanoicanhydride,355.0,carroll11,1,CCCCCC(=O)OC
C(CCCC)(=O)OC(CCCC)=O,pentanoicanhydride,374.0,carroll11,1,COC=O
C(CCCCC)(=O)OC(CCCCC)=O,hexanoicanhydride,386.0,carroll11,1,CCCCCCCCCCCCCCCCCCC(=O)OC
C(CCCCCC)(=O)OC(CCCCCC)=O,heptanoicanhydride,403.0,carroll11,1,CCCCCCCCC(=O)OC
C(C(C)C)(=O)OC(C(C)C)=O,isobutanoicanhydride,340.0,carroll11,1,CCCCCCCCCCCCCCCCCC(=O)OC
C(C(C)(C)C)(=O)OC(C(C)(C)C)=O,pivalicanhydride,336.0,carroll11,1,CCCCCCCC(=O)OC
CC(CC(=O)OC(CC(C)C)=O)C,3-methylbutanoicanhydride,364.0,carroll11,1,C=CCCC(=O)OC
C(C)(C)N,isopropylamine,241.0,carroll11,1,CCCCCCCCCCCCCCC(=O)OC
C(C)(C)(C)N,tert-butylamine,235.0,carroll11,1,C=CC(=O)OC
C(CC)N,propylamine,243.0,carroll11,1,CCC(=O)OC
C1(CC1)N,cyclopropylamine,248.0,carroll11,1,CCCCCCCCCCCCCC(=O)OC
CNC(C)C,N-methylisopropylamine,253.0,carroll11,1,CCCCCCCCCCCCC(=O)OC
C(C)NCC,diethylamine,250.0,carroll11,1,CCCCCCCCCCC(=O)OC
C(C)(CC)N,sec-butylamine,254.0,carroll11,1,CCCCCCCCCCCCCCCCCC(=O)OCCCC
C(C=C)CN,allylmethylamine,265.0,carroll11,1,CCCOC(C)=O
C(C(C)C)N,isobutylamine,263.0,carroll11,1,CCCOC=O
C(CCC)N,butylamine,266.0,carroll11,1,CCCOC(=O)CC
C1(CCC1)N,cyclobutylamine,269.0,carroll11,1,CC(=O)OCC(C)(C)C
C(C)(C)NC(C)C,diisopropylamine,266.0,carroll11,1,CCCCCCCCCOC(C)=O
CCC(CC)N,3-pentanamine,275.0,carroll11,1,CCCCCCCCCOC=O
CNCCCC,N-methylbutylamine,275.0,carroll11,1,CCCCCCCCCCCCCCCCCC(=O)O
C(CCCC)N,pentylamine,277.0,carroll11,1,CCCCCCCCCCCCCCCCCCOC(C)=O
C1(CCCC1)N,cyclopentylamine,285.0,carroll11,1,CCCCCCCC/C=C\CCCCCCCC(=O)OCCCCCCCC
C(CC)NCCC,dipropylamine,280.0,carroll11,1,CCCCCCCCOC(=O)CCC
C(CCCCC)N,hexylamine,300.0,carroll11,1,CCCCCCCCCCCC(=O)OCCCCCCCC
C(C(C)C)NCC(C)C,diisobutylamine,303.0,carroll11,1,CCCCCCCCOC(C)=O
C(CCCCCC)N,heptylamine,317.0,carroll11,1,CCCCCCCCCCCCCCCC(=O)OCCCCCCCC
C(CCC)NCCCC,dibutylamine,320.0,carroll11,1,CCCCCCCCOC=O
C(C)C(CN)CCCC,2-ethyl-1-hexanamine,323.0,carroll11,1,CCCCCCCCOC(=O)CCCC
C(CCCCCCC)N,octylamine,333.0,carroll11,1,CCCCCCCCCCCCCC(=O)OCCCCCCCC
C(CCCCCCCC)N,nonylamine,347.0,carroll11,1,CC/C=C\C/C=C\C/C=C\CCCCCCCC(=O)OCCCCC
C(CCCCCCCCC)N,1-decanamine,358.0,carroll11,1,CCCCC/C=C\C/C=C\CCCCCCCC(=O)OCCCCC
C(C)NC1CCCCC1,N-ethylcyclohexanamine,318.0,carroll11,1,CCCCCC/C=C\CCCCCCCC(=O)OCCCCC
C(C)(CC)NC(C)CC,di-sec-butylamine,297.0,carroll11,1,CCCCCCCC/C=C\CCCCCCCC(=O)OCCCCC
NCC1CCCCC1,(aminomethyl)cyclohexane,316.0,carroll11,1,CCCCCOC(=O)CCC
C(C)N(CC)C,N-ethyl-N-methylethanamine,250.0,carroll11,1,CCCCCCCCCC(=O)OCCCCC
C(C)N(CC)CC,triethylamine,264.0,carroll11,1,CCCCCCCCCCCC(=O)OCCCCC
C(CC)N(CCC)CCC,tripropylamine,308.0,carroll11,1,CCCCCCCCCCCCCCCCCCCC(=O)OCCCCC
C(CCC)N(CCCC)CCCC,tributylamine,344.0,carroll11,1,CCCCCOC(C)=O
C(C)N(C)C,N-ethyldimethylamine,237.0,carroll11,1,CCCCCCCCCCCCCCCC(=O)OCCCCC
C(C)N1CCCCC1,1-ethylpiperidine,291.0,carroll11,1,CCCCCOC=O
NCCNCCN,diethylenetriamine,363.0,carroll11,1,CCCCCCCCC(=O)OCCCCC
CN(C)C1CCCCC1,"N,N-dimethylcyclohexylamine",314.0,carroll11,1,CCCCCCCCCCCCCCCCCC(=O)OCCCCC
C(CN)N,"1,2-ethanediamine",307.0,carroll11,1,CCCCCOC(=O)CC
C(CCN)N,"1,3-propanediamine",321.0,carroll11,1,CCCCCCCCCCCCCC(=O)OCCCCC
CN(CCCN)C,"N,N-dimethyl-1,3-propanediamine",305.0,carroll11,1,CCCCCCCCCCCCC(=O)OCCCCC
CN(C=O)C,"N,N-dimethylformamide",330.0,carroll11,1,CCCCCCCCCCC(=O)OCCCCC
CN(C(C)=O)C,"N,N-dimethylacetamide",339.0,carroll11,1,CC/C=C\C/C=C\C/C=C\CCCCCCCC(=O)OCCC
C(C)N(C=O)CC,"N,N-diethylformamide",338.0,carroll11,1,CCCCC/C=C\C/C=C\CCCCCCCC(=O)OCCC
C(C)N(C(C)=O)CC,"N,N-diethylacetamide",349.0,carroll11,1,CCCCCC/C=C\CCCCCCCC(=O)OCCC
C(C)NC=O,N-ethylformamide,359.0,carroll11,1,CCCCCCCC/C=C\CCCCCCCC(=O)OCCC
CNC=O,N-methylformamide,371.0,carroll11,1,C=C(C)C(=O)OCCC
C(C)NC(C)=O,N-ethylacetamide,379.0,carroll11,1,CCCCCCCCCC(=O)OCCC
C(CCC)NC(C)=O,N-butylacetamide,388.0,carroll11,1,CCCCCCCCCCCC(=O)OCCC
C(C)(C)N(C=O)C(C)C,"N,N-diisopropylformamide",348.0,carroll11,1,CCCCCCCCCCCCCCCCCCCC(=O)OCCC
C(C)#N,acetonitrile,275.0,carroll11,1,CCCCCCCCCCCCCCCC(=O)OCCC
C(CC)#N,propionitrile,279.0,carroll11,1,CCCCCCCCC(=O)OCCC
C(CCC)#N,butyronitrile,291.0,carroll11,1,CCCCCCCCCCCCCCCCCC(=O)OCCC
C(CCCC)#N,pentanenitrile,305.0,carroll11,1,C=CC(=O)OCCC
C(CCCCC)#N,hexanenitrile,320.0,carroll11,1,CCCCCCCCCCCCCC(=O)OCCC
C(CCCCCC)#N,heptanenitrile,331.0,carroll11,1,CCCCCCCCCCCCC(=O)OCCC
C(CCCCCCC)#N,octanenitrile,347.0,carroll11,1,CCCCCCCCCCC(=O)OCCC
C(CCCCCCCC)#N,nonanenitrile,355.0,carroll11,1,CCCCCCCC/C=C\CCCCCCCC(=O)OC(C)CC
C(CCCCCCCCC)#N,decanenitrile,365.0,carroll11,1,CCC(C)OC(C)=O
CC(C#N)(C)C,"2,2-dimethylpropanenitrile",277.0,carroll11,1,CCCCCCCCCCCCCCCC(=O)OC(C)CC
C(C(C)C)#N,isobutyronitrile,281.0,carroll11,1,CCC(C)OC=O
C1(CC1)C#N,cyclopropanecarbonitrile,305.0,carroll11,1,CCCCCCCCCCCCCCCCCC(=O)OC(C)CC
CC(CC#N)C,3-methylbutanenitrile,301.0,carroll11,1,C=C(C)C(=O)OC(C)(C)C
C(#N)CCCCC#N,"1,4-dicyanobutane",432.0,carroll11,1,CCCC(=O)OC(C)(C)C
C(CC)S,1-propanethiol,259.0,carroll11,1,CC(=O)OC(C)(C)C
C(CCC)S,1-butanethiol,275.0,carroll11,1,CC(C)(C)OC=O
C(CCCC)S,1-pentanethiol,291.0,carroll11,1,CCCCCCCCCCCCCCOC(C)=O
C(CCCCC)S,1-hexanethiol,303.0,carroll11,1,CCCCCCCCCCCCCCOC=O
C(CCCCCC)S,1-heptanethiol,319.0,carroll11,1,CCCCCCCCCCCCCCOC(=O)CCCC
C(CCCCCCC)S,1-octanethiol,341.0,carroll11,1,CCCCCCCCCCCOC(=O)CCC
C(CCCCCCCC)S,1-nonanethiol,352.0,carroll11,1,CCCCCCCCCCCOC(C)=O
C(CCCCCCCCC)S,1-decanethiol,372.0,carroll11,1,CCCCCCCCCCCOC=O
C(CCCCCCCCCC)S,1-undecanethiol,382.0,carroll11,1,CCCCCCCCCCCOC(=O)CC
CC(CC)S,2-butanethiol,250.0,carroll11,1,CCCCCCCCCCCCC1CCCC(C)C1
CC(CCC)S,2-pentanethiol,288.0,carroll11,1,CCCCCCCC1CCCC(C)C1
CC(C)(C)S,2-methyl-2-propanethiol,249.0,carroll11,1,CCCCCCCCCC1CCCC(C)C1
CC(CS)CC,2-methyl-1-butanethiol,292.0,carroll11,1,CCCCCC1CCCC(C)C1
CC(C(C)S)C,3-methyl-2-butanethiol,282.0,carroll11,1,CCCC1CCCC(C)C1
C1(CCCC1)S,cyclopentanethiol,298.0,carroll11,1,CCCCCCCCCCCC1CCCC(C)C1
C1(CCCCC1)S,cyclohexanethiol,314.0,carroll11,1,C=C(C)C1CC=C(C)CC1
C(C)C(CC)(CC)S,3-ethyl-3-pentanethiol,307.0,carroll11,1,CC1=CC=C(C(C)C)CC1
CC(C)(CCC)S,2-methyl-2-pentanethiol,293.0,carroll11,1,CC1=CCC(C(C)C)=CC1
CCC(CCC)S,3-hexanethiol,303.0,carroll11,1,C[C@H]1C[C@H](C)C[C@@H](C)C1
CSC,dimethylsulfide,237.0,carroll11,1,CCC1(CC)CCCCC1
C(C)SCC,diethylsulfide,263.0,carroll11,1,CC1(C)CCCCC1
C(CC)SCCC,dipropylsulfide,301.0,carroll11,1,CC1(C)CCCC1
C(CCC)SCCCC,dibutylsulfide,333.0,carroll11,1,CCCCCCCCCCCCCCCCC1CC(C)C(C)CC1C
C(C)SC,ethylmethylsulfide,255.0,carroll11,1,CCCC(CC)C1CC(C)CC(C)C1
C(C)(C)(C)SC,tert-butylmethylsulfide,270.0,carroll11,1,CCCCCC(CC)C1CC(C)CC(C)C1
S1CCCC1,thiacyclopentane,286.0,carroll11,1,CC12CC3CC(C1)CC(C)(C3)C2
S1CCCCC1,thiacyclohexane,294.0,carroll11,1,CC1CC(C)CC(C)C1
C(C)(C)(C)SC(C)(C)C,di-tert-butylsulfide,300.0,carroll11,1,C1CCC2CC3CCCCC3CC2C1
C(C)(CC)SC(C)CC,di-sec-butylsulfide,312.0,carroll11,1,C1CC2CCC3CCCC4CCC(C1)C2C34
C(CC(C)C)SCCC(C)C,diisopentylsulfide,350.0,carroll11,1,CCCCCCCCCCC1CCC2CCCCC2C1
C(C=C)SCC=C,diallylsulfide,296.0,carroll11,1,CCCCC1CCC2CCC(CC)CC2C1
C(C=C)SCC,allylethylsulfide,289.0,carroll11,1,CCCCCCC1CCC2CCCCC2C1
C(C=C)SCCC,allylpropylsulfide,302.0,carroll11,1,CCCCCCCCCCCCCC(C)(C)C1CCCCC1
ClCCCCCC,1-chlorohexane,299.0,carroll11,1,CCCCCCCCC(C)(C)C1CCCC2CCCCC21
ClCCCCCCC,1-chloroheptane,314.0,carroll11,1,CCCCCC[C@@H](C(C)C)C1CCCCC1
ClCCCCCCCC,1-chlorooctane,331.0,carroll11,1,CCCCCC[C@H](C(C)C)C1CCCCC1
ClCCCCCCCCC,1-chlorononane,347.0,carroll11,1,CC1=CCC(C(C)C)C=C1
ClCCCCCCCCCC,1-chlorodecane,356.0,carroll11,1,CC1CCC2CCCCC2C1
ClC(C)C,2-chloropropane,241.0,carroll11,1,C1=CC2CCC1C2
ClC(C)CC,2-chlorobutane,258.0,carroll11,1,CC1CC(C)C2CCCCC2C1
ClC(C)CCC,2-chloropentane,274.0,carroll11,1,CCCCCCCCCCCC[C@@H](C)C1CCCCC1
ClCC=C,3-chloropropene,245.0,carroll11,1,CCCCCCCCCCCC[C@H](C)C1CCCCC1
ClC(C)(C)C,2-chloro-2-methylpropane,250.0,carroll11,1,C=C1C=CC(C(C)C)CC1
ClCC(C)C,1-chloro-2-methylpropane,256.0,carroll11,1,C=C1C2CCC(C2)C1(C)C
ClC1CCCC1,chlorocyclopentane,288.0,carroll11,1,CCC[C@@H](CC)C1CCCCC1
ClC1CCCCC1,chlorocyclohexane,301.0,carroll11,1,CCCCCC[C@@](C)(CC)C1CCCC2CCCCC21
ClC(CC)Cl,"1,1-dichloropropane",280.0,carroll11,1,CCC[C@H](CC)C1CCCCC1
ClC(C)Cl,"1,1-dichloroethane",263.0,carroll11,1,CCCCCC[C@](C)(CC)C1CCCC2CCCCC21
ClCCCl,"1,2-dichloroethane",286.0,carroll11,1,CCCC(C)(CCC)C1CCCC2CCCCC21
ClCC(C)Cl,"1,2-dichloropropane",286.0,carroll11,1,CC1=CCC2CC1C2(C)C
ClCCCCl,"1,3-dichloropropane",294.0,carroll11,1,CC=C1CC2C=CC1C2
BrCC,bromoethane,253.0,carroll11,1,CCCCCCCCCCCCCCC[C@@H](CCCC)C1CCCCC1
BrCCC,1-bromopropane,269.0,carroll11,1,CCCCCCCCCCCCCCC[C@H](CCCC)C1CCCCC1
BrCCCC,1-bromobutane,283.0,carroll11,1,C=C1CCC2CC1C2(C)C
BrCCCCC,1-bromopentane,303.0,carroll11,1,C1CCC(C2CCCCC2)CC1
BrCCCCCC,1-bromohexane,320.0,carroll11,1,CCCCC1CCCCC1
BrCCCCCCC,1-bromoheptane,334.0,carroll11,1,CCCCC1CCCC1
BrCCCCCCCC,1-bromooctane,351.0,carroll11,1,CCCCC1CCCC2CCCCC12
BrC(C)CCC,2-bromopentane,294.0,carroll11,1,C[C@H]1CCCC[C@H]1C
BrC(C)CCCC,2-bromohexane,313.0,carroll11,1,C[C@H]1CCC[C@H]1C
BrC(CC)CC,3-bromopentane,292.0,carroll11,1,C[C@H]1CCC[C@@H](C)C1
BrC1CCCC1,bromocyclopentane,308.0,carroll11,1,C[C@H]1CC[C@@H](C)CC1
BrC(CC)CCC,3-bromohexane,313.0,carroll11,1,C1CC[C@H]2CCCC[C@H]2C1
BrC1CCCCC1,bromocyclohexane,335.0,carroll11,1,C1CCCCCCCCC1
ICC,iodoethane,268.0,carroll11,1,C1=CCCC=CCCC=CCC1
IC(C)CC,2-iodobutane,297.0,carroll11,1,C1CCCCCC1
ICCCC,1-iodobutane,306.0,carroll11,1,C1=CCCC=C1
IC(C)CCC,2-iodopentane,318.0,carroll11,1,C1=CCC=CC1
IC1CCCC1,iodocyclopentane,325.0,carroll11,1,C1CCCCC1
IC(CC)CCC,3-iodohexane,328.0,carroll11,1,C1CCCCCCCC1
ICCCCCC,1-iodohexane,334.0,carroll11,1,C1=CC=CC=CC=C1
ICCCCCCC,1-iodoheptane,352.0,carroll11,1,C1=CCCC=CCC1
ICCCCCCCC,1-iodooctane,368.0,carroll11,1,C1CCCCCCC1
CSSC,dimethyldisulfide,283.0,carroll11,1,C1=CCC=C1
C(C)SSCC,diethyldisulfide,312.0,carroll11,1,C1CCCC1
C(CC)SSCCC,dipropyldisulfide,339.0,carroll11,1,CCCCCCCCCCC1CCCCC1
C(C)(C)(C)SSC(C)(C)C,di-tert-butyldisulfide,340.0,carroll11,1,C1=CC2C3C=CC(C3)C2C1
C(CCC)SSCCCC,dibutyldisulfide,366.0,carroll11,1,CCCCCCCCCCCCC1CCCCC1
C(C)SSCCC,ethylpropyldisulfide,330.0,carroll11,1,CCCCCCCCCCCCCCCCCCCCC1CCCCC1
[N+](=O)([O-])C1CCCCC1,nitrocyclohexane,354.0,carroll11,1,C=CC1CC2C=CC1C2
[N+](=O)([O-])C1CCCC1,nitrocyclopentane,340.0,carroll11,1,CCC1CCCCC1
[N+](=O)([O-])CC,nitroethane,301.0,carroll11,1,CCC1CCCC1
[N+](=O)([O-])C(C)C,2-nitropropane,301.0,carroll11,1,CCCCCCCCCCCCCCCCCC1CCCCC1
[N+](=O)([O-])CCC,1-nitropropane,307.0,carroll11,1,CCCCCCCC1CCCCC1
[N+](=O)([O-])CCCC,1-nitrobutane,320.0,carroll11,1,CCCCCCCCCCCCCCCCC1CCCCC1
[N+](=O)([O-])CCCCC,1-nitropentane,334.0,carroll11,1,CCCCCCC1CCCCC1
[N+](=O)([O-])CCCCCC,1-nitrohexane,345.0,carroll11,1,CC(C)C1CCCCC1
[N+](=O)([O-])C(C)CCC,2-nitropentane,319.0,carroll11,1,CC(C)C1CCCC1
C(C)OC=C,ethylvinylether,228.0,carroll11,1,CC1CCCCC1
C(C=C)N,allylamine,245.0,carroll11,1,CC1=CC=CC1
C(=O)C=C,acrolein,254.0,carroll11,1,CC1CCCC1
O1CCC=C1,"2,3-dihydrofuran",249.0,carroll11,1,C=C1CCCC1
C(CC)OC=C,propylvinylether,251.0,carroll11,1,CCCCCCCCCCCCCCCCCCCC1CCCCC1
C(C=C)OCC,allylethylether,253.0,carroll11,1,CCCCCCCCCC1CCCCC1
C(C)(C)(C)OC=C,tert-butylvinylether,256.0,carroll11,1,CCCCCCCCCCCCCCCCCCC1CCCCC1
CC(C=O)=C,2-methyl-2-propenal,258.0,carroll11,1,CCCCCCCCC1CCCCC1
ClCC(=C)C,3-chloro-2-methyl-1-propene,261.0,carroll11,1,CCCCCCCCC1CCCC2CCCCC12
CC1=CCCO1,"2,3-dihydro-5-methylfuran",261.0,carroll11,1,CCCCCCCCCCCCCCCC1CCCCC1
C(C(C)C)OC=C,isobutylvinylether,264.0,carroll11,1,CCCCCC1CCCCC1
C(C=C)OCC=C,diallylether,266.0,carroll11,1,C=CCC1CCCCC1
C(C=C)OCCC,allylpropylether,268.0,carroll11,1,C=CCC1CCCC1
C(C=C)#N,acrylonitrile,268.0,carroll11,1,CCCC1CCCCC1
COC(C=C)=O,methylacrylate,270.0,carroll11,1,CCCC1CCCC1
C(C)OC(C=C)=O,ethylacrylate,281.0,carroll11,1,CCCC1CCCC2CCCCC12
BrCCC=C,4-bromo-1-butene,282.0,carroll11,1,CC[C@@H](C)C1CCCC2CCCCC21
C(C)OC(C(=C)C)=O,ethylmethacrylate,292.0,carroll11,1,CC[C@H](C)C1CCCC2CCCCC21
COC(C(=C)C)=O,methylmethacrylate,283.0,carroll11,1,CC1=CCC(=C(C)C)CC1
C(CCC)OC(C(=C)C)=O,butylmethacrylate,322.0,carroll11,1,CC(C)(C)C1CCCCC1
C(C(C)C)OC(C(=C)C)=O,isobutylmethacrylate,314.0,carroll11,1,CC(C)(C)C1CCCC2CCCCC21
C(=C)(C)CC(=O)[O-],isopropenylacetate,283.0,carroll11,1,CCCCCCCCCCCCCCC1CCCCC1
C(C=C)C(=O)[O-],allylformate,279.0,carroll11,1,C[C@@H]1CCCC[C@H]1C
C(C=C)CC(=O)[O-],allylacetate,284.0,carroll11,1,C[C@@H]1CCC[C@@H](C)C1
C(C=C)OC(CC)=O,allylpropanoate,298.0,carroll11,1,C[C@H]1CC[C@H](C)CC1
C(C=C)OC(CCC)=O,allylbutanoate,315.0,carroll11,1,C1CC[C@H]2CCCC[C@@H]2C1
C(\C=C\C)=O,trans-2-butenal,282.0,carroll11,1,CCCCCCCCCCCCCC1CCCCC1
ICC=C,3-iodo-1-propene,289.0,carroll11,1,CCCCCCCCCCCC1CCCCC1
CC(C=C)O,3-buten-2-ol,293.0,carroll11,1,CCCCCCCCC[C@@H](C)/C=C/[C@H](C)CCCCCCCCC
C(=C)CC(=O)[O-],vinylacetate,265.0,carroll11,1,CCCCCCCCC[C@H](C)/C=C/[C@H](C)CCCCCCCCC
C(=C)OC(CC)=O,vinylpropanoate,279.0,carroll11,1,CCCCCCCCC[C@H](C)/C=C/[C@@H](C)CCCCCCCCC
C(=C)OC(CCC)=O,vinylbutanoate,293.0,carroll11,1,CCCCCCCCC[C@@H](C)/C=C\[C@H](C)CCCCCCCCC
C(C=CC)#N,2-butenenitrile,290.0,carroll11,1,CCCCCCCCC[C@H](C)/C=C\[C@H](C)CCCCCCCCC
C(C=C)SSCC=C,diallyldisulfide,335.0,carroll11,1,CCCCCCCCC[C@H](C)/C=C\[C@@H](C)CCCCCCCCC
C(CCC=C)O,4-penten-1-ol,316.0,carroll11,1,C/C=C/C=C/C
C(CC=C)#N,3-butenenitrile,294.0,carroll11,1,C/C=C/CCC
C(CC)OC(C=C)=O,propylacrylate,297.0,carroll11,1,C/C=C/CC
C1(=C(C(=CC(=C1)C)C)OC1=C(C=C(C=C1C)C)C)C,mesityloxide,298.0,carroll11,1,CC/C=C/CCC
C=CC1=CC=CC=C1,styrene,304.0,carroll11,1,C/C=C(\C)CC
C(CC)OC(C(=C)C)=O,propylmethacrylate,308.0,carroll11,1,C/C=C/C(C)C
C(CC=C)O,3-buten-1-ol,305.0,carroll11,1,C/C=C/CCCC
CC(CO)=C,2-methyl-2-propen-1-ol,306.0,carroll11,1,C/C=C/CCCCC
C(CCC)OC(C=C)=O,butylacrylate,310.0,carroll11,1,C/C=C\C=C\C
CC1=CC=C(C=C)C=C1,4-methylstyrene,319.0,carroll11,1,C/C=C(/C)CC
C(CCC=C)CC(=O)[O-],4-pentenylacetate,318.0,carroll11,1,C/C=C\C(C)C
C(CCCC=C)O,5-hexen-1-ol,320.0,carroll11,1,C/C=C\C
CC=1C=C(C=C)C=CC1,3-methylstyrene,321.0,carroll11,1,C/C=C\CCCC
C(C=C)(=O)O,acrylicacid,327.0,carroll11,1,C/C=C\CCC
C1(C=CCCC1)=O,2-cyclohexen-1-one,329.0,carroll11,1,C/C=C\CCCCC
C(=C\CCCC)/CC(=O)[O-],trans-2-hexenylacetate,331.0,carroll11,1,C/C=C\CC
C(=C)N(C(C)=O)C,N-vinyl-N-methylacetamide,336.0,carroll11,1,C=C/C=C/CC
CC(CC=O)CCC=C(C)C,"3,7-dimethyl-6-octenal",351.0,carroll11,1,CC/C=C/CC
O=C1C=C(CC(C)(C)C1)C,isophorone,357.0,carroll11,1,CC/C=C/CCCC
C(C)C(COC(C=C)=O)CCCC,2-ethylhexylacrylate,359.0,carroll11,1,CC/C=C\CCC
C(\C=C\CC)(=O)O,trans-2-pentenoicacid,375.0,carroll11,1,CC/C=C\CC
C(CC(C)CCC=C(C)C)CC(=O)[O-],citronellylacetate,376.0,carroll11,1,CC/C=C\CCCC
C(CCCCCCCC=C)O,9-decen-1-ol,392.0,carroll11,1,CCCCCCC/C=C(\CCC)CCCC
ClCCCC#C,5-chloro-1-pentyne,288.0,carroll11,1,C=CC/C=C/C
C(C#C)O,2-propyn-1-ol,309.0,carroll11,1,CCC/C=C/CCC
COC(C#CCCCCC)=O,methyl2-octynoate,362.0,carroll11,1,CCCCCCC/C=C(/CCC)CCCC
ClC(=C)Cl,"1,1-dichloroethene",248.0,carroll11,1,CCC/C=C(/CCCC)CCCCCCC
FC1=CC=CC=C1,fluorobenzene,258.0,carroll11,1,C=CC/C=C\C
ClC(C)(C)Cl,"2,2-dichloropropane",268.0,carroll11,1,CCC/C=C\CCC
FC1=CC=C(C)C=C1,4-fluorotoluene,285.0,carroll11,1,CCC/C=C(\CCCC)CCCCCCC
FC1=CC=C(C=C)C=C1,4-fluorostyrene,308.0,carroll11,1,CCCCCC/C(C)=C(\C)CCC=C(C)C
C(C)C1=CC=C(C=C1)F,1-ethyl-4-fluorobenzene,303.0,carroll11,1,CCCCCC/C(C)=C(/C)CCC=C(C)C
CC1=C(C=C(C=C1)F)C,"1,2-dimethyl-4-fluorobenzene",313.0,carroll11,1,CCCCCC[C@@H](C)/C=C/[C@H](C)CCCCCC
FC1=CC(=CC(=C1)C)C,"1-fluoro-3,5-dimethylbenzene",308.0,carroll11,1,CCCCCC[C@H](C)/C=C/[C@H](C)CCCCCC
CC(C(C)=O)=O,"2,3-butanedione",283.0,carroll11,1,CCCCCC[C@H](C)/C=C/[C@@H](C)CCCCCC
FC1=C(C)C=CC=C1,2-fluorotoluene,285.0,carroll11,1,CCCCCC/C=C(\CCC)CCCCCCC
FC=1C=C(C)C=CC1,3-fluorotoluene,285.0,carroll11,1,CCCCCC[C@@H](C)/C=C\[C@H](C)CCCCCC
C(C)OC(CC)OCC,"1,1-diethoxypropane",286.0,carroll11,1,CCCCCC[C@H](C)/C=C\[C@H](C)CCCCCC
CN1CCOCC1,N-methylmorpholine,287.0,carroll11,1,CCCCCC[C@H](C)/C=C\[C@@H](C)CCCCCC
CN1C=CC=C1,1-methylpyrrole,288.0,carroll11,1,CCCCCC/C=C(/CCC)CCCCCCC
N1=CC=CC=C1,pyridine,290.0,carroll11,1,CCCCCCC/C=C(\C)CCCCCCCC
ClCSC,chloromethylmethylsulfide,290.0,carroll11,1,CCCCCCC/C=C(/C)CCCCCCCC
N1=C(C=CC=C1)C,2-picoline,299.0,carroll11,1,CC1=CCCCC1
ClCC(CC)Cl,"1,2-dichlorobutane",300.0,carroll11,1,CC1=CCCC1
ClC1=CC=CC=C1,chlorobenzene,301.0,carroll11,1,CC1=CC(C)CCC1
COCCCN,3-methoxypropylamine,296.0,carroll11,1,C=C(CC)CC
N1C=CC=C1,pyrrole,306.0,carroll11,1,C=C(CC)CCC
C(C(C)N)N,"1,2-propanediamine",306.0,carroll11,1,C=C(C)CC
ClCCC(C)Cl,"1,3-dichlorobutane",304.0,carroll11,1,CC=C(C)C
N1CCOCC1,morpholine,304.0,carroll11,1,C=C(C)CCCCC
N1=CC(=CC=C1)C,3-picoline,309.0,carroll11,1,CCCCC=C(C)C
N1=CC=C(C=C1)C,4-picoline,311.0,carroll11,1,C=C(C)CCCC
CC(CC(C)=O)=O,"2,4-pentanedione",311.0,carroll11,1,C=C(C)CCC
C(C)OC(CCl)=O,ethylchloroacetate,326.0,carroll11,1,CCC=C(C)C
ClCCCCCl,"1,4-dichlorobutane",316.0,carroll11,1,C=C(C)C
ClC1=C(C)C=CC=C1,2-chlorotoluene,320.0,carroll11,1,C=C(CC(C)(C)C)CC(C)(C)CC(C)(C)C
ClCCCS,3-chloro-1-propanethiol,316.0,carroll11,1,C=C(C)C(C)C
COCCOC(C)=O,2-methoxyethylacetate,316.0,carroll11,1,CC(C)=C(C)C
CC1=NC=CC(=C1)C,"2,4-dimethylpyridine",320.0,carroll11,1,C=C(C)C(=C)C
ClC1=CC=C(C)C=C1,4-chlorotoluene,319.0,carroll11,1,C=C(C)C(C)CCC
ClC=1C=C(C)C=CC1,3-chlorotoluene,323.0,carroll11,1,C=C(C)C(C)CC
C1(=CC=CC=C1)S,benzenethiol,324.0,carroll11,1,C=C(C)C(C)(C)C
BrC1=CC=CC=C1,bromobenzene,324.0,carroll11,1,CC(C)=C(C)C(C)C
C(C)OCCOC(C)=O,2-ethoxyethylacetate,324.0,carroll11,1,C=C(C)CC(C)(C)C
CC1=C(C=CC=C1)OC,2-methylanisole,324.0,carroll11,1,CC(C)=CC(C)(C)C