compound,flashpoint,pure substance,smiles,source
HEXANAL,300.0,1.0,CCCCCC=O,didier14
METHANOL,284.0,1.0,CO,didier14
ISOPROPANOL,285.1,1.0,CC(C)O,didier14
THIOGLYCOLIC ACID,398.0,1.0,O=C(O)CS,didier14
"N,N-DIMETHYLFORMAMIDE",331.0,1.0,CN(C)C=O,didier14
"2,2,4-TRIMETHYL-1,3-PENTANEDIOL DIISOBUTYRATE",394.0,1.0,CC(C)C(=O)OCC(C)(C)C(OC(=O)C(C)C)C(C)C,didier14
DIETHYLENE GLYCOL MONOPROPYL ETHER,372.0,1.0,CCCOCCOCCO,didier14
MALIC ACID,515.0,1.0,O=C(O)CC(O)C(=O)O,didier14
ISOPROPYLCYCLOHEXANE,308.1,1.0,CC(C)C1CCCCC1,didier14
SALICYLIC ACID,430.0,1.0,O=C(O)c1ccccc1O,didier14
"1,3-DIMETHYLADAMANTANE",325.1,1.0,CC12CC3CC(C1)CC(C)(C3)C2,didier14
sec-BUTYLCYCLOHEXANE,319.0,1.0,CCC(C)C1CCCCC1,didier14
1-PROPANOL,291.0,1.0,CCCO,didier14
DICYCLOHEXYL SULFIDE,393.0,1.0,C1CCC(SC2CCCCC2)CC1,didier14
1-BUTANOL,306.0,1.0,CCCCO,didier14
1-PENTANOL,320.0,1.0,CCCCCO,didier14
BENZENE,262.0,1.0,c1ccccc1,didier14
"2,2,3,3-TETRAMETHYLPENTANE",289.0,1.0,CCC(C)(C)C(C)(C)C,didier14
"3,3,5-TRIMETHYLHEPTANE",301.0,1.0,CCC(C)CC(C)(C)CC,didier14
"2,2',2''-NITRILOTRIS-ACETONITRILE",487.0,1.0,N#CCN(CC#N)CC#N,didier14
ETHANE,138.2,1.0,CC,didier14
ETHYLENE,124.0,1.0,C=C,didier14
METHYLAMINE,215.0,1.0,CN,didier14
PROPANE,169.2,1.0,CCC,didier14
ACETONITRILE,275.1,1.0,CC#N,didier14
ACETALDEHYDE,235.0,1.0,CC=O,didier14
DIMETHYL SULFIDE,237.2,1.0,CSC,didier14
ISOPROPYL CHLORIDE,238.2,1.0,CC(C)Cl,didier14
ISOPROPYLAMINE,236.2,1.0,CC(C)N,didier14
ISOPROPYL MERCAPTAN,238.2,1.0,CC(C)S,didier14
"1,1-DICHLOROETHANE",261.1,1.0,CC(Cl)Cl,didier14
"1,1-DICHLOROETHYLENE",251.2,1.0,C=C(Cl)Cl,didier14
NITROMETHANE,308.1,1.0,C[N+](=O)[O-],didier14
2-METHYL-2-PROPANOL,284.3,1.0,CC(C)(C)O,didier14
"2,3-DICHLOROBUTANE",291.1,1.0,CC(Cl)C(C)Cl,didier14
2-METHYL-2-BUTANOL,293.1,1.0,CCC(C)(C)O,didier14
ACETONE CYANOHYDRIN,336.1,1.0,CC(C)(O)C#N,didier14
TRICHLOROACETALDEHYDE,323.0,1.0,O=CC(Cl)(Cl)Cl,didier14
TRIPROPYLENE GLYCOL MONOETHYL ETHER,405.0,1.0,CCOC(C)COC(C)COC(C)CO,didier14
t-BUTYL HYDROPEROXIDE,299.8,1.0,CC(C)(C)OO,didier14
"3,3-DIMETHYL-2-BUTANONE",285.1,1.0,CC(=O)C(C)(C)C,didier14
3-METHYL-1-PENTENE,245.2,1.0,C=CC(C)CC,didier14
"3,4-DICHLORO-1-BUTENE",301.1,1.0,C=CC(Cl)CCl,didier14
ETHYL-3-ETHOXYPROPIONATE,331.1,1.0,CCOCCC(=O)OCC,didier14
cis-2-OCTENE,294.0,1.0,C/C=C\CCCCC,didier14
cis-4-OCTENE,290.0,1.0,CCC/C=C\CCC,didier14
CYCLOHEXYL PEROXIDE,381.0,1.0,C1CCC(OOC2CCCCC2)CC1,didier14
3-METHYL-3-PENTANOL,297.1,1.0,CCC(C)(O)CC,didier14
"1,2-DIMETHOXYPROPANE",273.7,1.0,COCC(C)OC,didier14
CITRIC ACID,549.0,1.0,O=C(O)CC(O)(CC(=O)O)C(=O)O,didier14
TRIMETHYLOLPROPANE,445.1,1.0,CCC(CO)(CO)CO,didier14
"1,1-DIETHYLCYCLOHEXANE",322.1,1.0,CCC1(CC)CCCCC1,didier14
ISOBUTYLAMINE,255.3,1.0,CC(C)CN,didier14
ISOBUTYRONITRILE,281.5,1.0,CC(C)C#N,didier14
2-METHYL-1-PROPANOL,301.0,1.0,CC(C)CO,didier14
sec-BUTYL CHLORIDE,244.0,1.0,CCC(C)Cl,didier14
"1,2-DICHLOROPROPANE",286.1,1.0,CC(Cl)CCl,didier14
"2,3-DICHLOROPROPENE",283.1,1.0,C=C(Cl)CCl,didier14
"1,2-PROPANEDIAMINE",306.1,1.0,CC(N)CN,didier14
2-BUTANOL,296.1,1.0,CCC(C)O,didier14
1-AMINO-2-PROPANOL,347.0,1.0,CC(O)CN,didier14
LACTONITRILE,350.1,1.0,CC(O)C#N,didier14
N-METHYLACETAMIDE,381.1,1.0,CNC(C)=O,didier14
METHYL ACETATE,263.1,1.0,COC(C)=O,didier14
PERACETIC ACID,313.1,1.0,CC(=O)OO,didier14
METHYL CHLOROFORMATE,285.1,1.0,COC(=O)Cl,didier14
NITROETHANE,301.0,1.0,CC[N+](=O)[O-],didier14
ISOBUTYRIC ACID,329.1,1.0,CC(C)C(=O)O,didier14
DICHLOROACETYL CHLORIDE,339.0,1.0,O=C(Cl)C(Cl)Cl,didier14
DICHLOROACETIC ACID,383.1,1.0,O=C(O)C(Cl)Cl,didier14
2-NITROPROPANE,297.1,1.0,CC(C)[N+](=O)[O-],didier14
BISPHENOL A,480.1,1.0,CC(C)(c1ccc(O)cc1)c1ccc(O)cc1,didier14
CUMENE HYDROPEROXIDE,322.0,1.0,CC(C)c1ccccc1.[O-]O,didier14
p-MENTHANE HYDROPEROXIDE,404.0,1.0,CC1CCC(C(C)C)CC1.[O-]O,didier14
2-HYDROXYETHYL ACRYLATE,371.1,1.0,C=CC(=O)OCCO,didier14
"trans-2-BUTENE-1,4-DIOL",401.1,1.0,OC/C=C/CO,didier14
2-NONANONE,337.1,1.0,CCCCCCCC(C)=O,didier14
"2,6-DIAMINOTOLUENE",419.0,1.0,Cc1c(N)cccc1N,didier14
CYCLOHEXYLBENZENE,372.0,1.0,c1ccc(C2CCCCC2)cc1,didier14
"DIMETHYL-2,6-NAPHTHALENEDICARBOXYLATE",479.0,1.0,COC(=O)c1ccc2cc(C(=O)OC)ccc2c1,didier14
o-TERPHENYL,436.0,1.0,c1ccc(-c2ccccc2-c2ccccc2)cc1,didier14
ANTHRAQUINONE,458.1,1.0,O=C1c2ccccc2C(=O)c2ccccc21,didier14
DIETHYL PHTHALATE,390.1,1.0,CCOC(=O)c1ccccc1C(=O)OCC,didier14
DIISOBUTYL PHTHALATE,434.1,1.0,CC(C)COC(=O)c1ccccc1C(=O)OCC(C)C,didier14
DI-n-BUTYL PHTHALATE,430.1,1.0,CCCCOC(=O)c1ccccc1C(=O)OCCCC,didier14
DI-n-HEXYL PHTHALATE,466.1,1.0,CCCCCCOC(=O)c1ccccc1C(=O)OCCCCCC,didier14
DI-n-NONYL PHTHALATE,489.1,1.0,CCCCCCCCCOC(=O)c1ccccc1C(=O)OCCCCCCCCC,didier14
DI-n-DECYL PHTHALATE,505.0,1.0,CCCCCCCCCCOC(=O)c1ccccc1C(=O)OCCCCCCCCCC,didier14
PHENANTHRENE,444.0,1.0,c1ccc2c(c1)ccc1ccccc12,didier14
2-HYDROXYETHYL METHACRYLATE,370.1,1.0,C=C(C)C(=O)OCCO,didier14
1-n-PENTYLNAPHTHALENE,413.0,1.0,CCCCCc1cccc2ccccc12,didier14
2-METHYLNONANE,314.0,1.0,CCCCCCCC(C)C,didier14
1-DECENE,311.0,1.0,C=CCCCCCCCC,didier14
"1,2,3-TRICHLOROBENZENE",386.0,1.0,Clc1cccc(Cl)c1Cl,didier14
"1,2,3-BENZENETRIOL",458.0,1.0,Oc1cccc(O)c1O,didier14
"HEXACHLORO-1,3-BUTADIENE",395.0,1.0,ClC(Cl)=C(Cl)C(Cl)=C(Cl)Cl,didier14
o-NITROTOLUENE,379.0,1.0,Cc1ccccc1[N+](=O)[O-],didier14
o-CHLORONITROBENZENE,400.1,1.0,O=[N+]([O-])c1ccccc1Cl,didier14
o-NITROANILINE,441.1,1.0,Nc1ccccc1[N+](=O)[O-],didier14
DIPROPYLENE GLYCOL MONOMETHYL ETHER ACETATE,359.0,1.0,COC(C)COC(C)COC(C)=O,didier14
PHTHALIC ACID,477.0,1.0,O=C(O)c1ccccc1C(=O)O,didier14
PYROMELLITIC ACID,597.0,1.0,O=C(O)c1cc(C(=O)O)c(C(=O)O)cc1C(=O)O,didier14
o-ETHYLPHENOL,351.1,1.0,CCc1ccccc1O,didier14
SALICYLALDEHYDE,349.1,1.0,O=Cc1ccccc1O,didier14
GUAIACOL,355.0,1.0,COc1ccccc1O,didier14
1-METHYLNAPHTHALENE,355.1,1.0,Cc1cccc2ccccc12,didier14
1-CHLORONAPHTHALENE,394.1,1.0,Clc1cccc2ccccc12,didier14
NAPHTHALENE,352.0,1.0,c1ccc2ccccc2c1,didier14
QUINOLINE,374.0,1.0,c1ccc2ncccc2c1,didier14
2-METHYLNAPHTHALENE,370.1,1.0,Cc1ccc2ccccc2c1,didier14
QUINALDINE,352.6,1.0,Cc1ccc2ccccc2n1,didier14
"N,N-DIETHYLANILINE",358.1,1.0,CCN(CC)c1ccccc1,didier14
2-HYDROXYPROPYL METHACRYLATE,369.1,1.0,C=C(C)C(=O)OCC(C)O,didier14
BICYCLOHEXYL,347.1,1.0,C1CCC(C2CCCCC2)CC1,didier14
3-NONANONE,339.1,1.0,CCCCCCC(=O)CC,didier14
DIAMYL KETONE,361.5,1.0,CCCCCC(=O)CCCCC,didier14
MALEONITRILE,389.0,1.0,N#C/C=C\C#N,didier14
BENZIDINE,521.0,1.0,Nc1ccc(-c2ccc(N)cc2)cc1,didier14
2-AMINOETHOXYETHANOL,397.0,1.0,CC(O)OCCN,didier14
p-TERPHENYL,480.0,1.0,c1ccc(-c2ccc(-c3ccccc3)cc2)cc1,didier14
2-ETHYLNAPHTHALENE,377.1,1.0,CCc1ccc2ccccc2c1,didier14
"DIMETHYL-1,4-CYCLOHEXANEDICARBOXYLATE",383.1,1.0,COC(=O)C1CCC(C(=O)OC)CC1,didier14
o-XYLENE,290.0,1.0,Cc1ccccc1C,didier14
o-CRESOL,354.0,1.0,Cc1ccccc1O,didier14
o-DICHLOROBENZENE,339.0,1.0,Clc1ccccc1Cl,didier14
o-CHLOROANILINE,363.7,1.0,Nc1ccccc1Cl,didier14
o-TOLUIDINE,358.1,1.0,Cc1ccccc1N,didier14
o-CHLOROPHENOL,337.0,1.0,Oc1ccccc1Cl,didier14
"1,2,4-TRIMETHYLBENZENE",318.6,1.0,Cc1ccc(C)c(C)c1,didier14
"2,4-DICHLOROTOLUENE",369.3,1.0,Cc1ccc(Cl)cc1Cl,didier14
"3,4-DICHLOROANILINE",439.0,1.0,Nc1ccc(Cl)c(Cl)c1,didier14
"2,5-XYLENOL",360.0,1.0,Cc1ccc(C)c(O)c1,didier14
DIETHYL OXALATE,339.2,1.0,CCOC(=O)C(=O)OCC,didier14
BIS-(2-HYDROXYETHYL) TEREPHTHALATE,545.0,1.0,O=C(OCCO)c1ccc(C(=O)OCCO)cc1,didier14
"1,2,4,5-TETRAMETHYLBENZENE",328.0,1.0,Cc1cc(C)c(C)cc1C,didier14
"1,2,3-TRICHLOROPROPANE",347.0,1.0,ClCC(Cl)CCl,didier14
3-PENTANONE,286.0,1.0,CCC(=O)CC,didier14
"1,3-DICHLORO-2-PROPANOL",358.1,1.0,OC(CCl)CCl,didier14
"3-CHLORO-1,2-PROPANEDIOL",408.1,1.0,OCC(O)CCl,didier14
METHYL CHLOROACETATE,324.8,1.0,COC(=O)CCl,didier14
METHYL GLYCOLATE,339.1,1.0,COC(=O)CO,didier14
METHYLCYCLOPENTANE,246.0,1.0,CC1CCCC1,didier14
"1-CHLORO-2,4-DINITROBENZENE",467.0,1.0,O=[N+]([O-])c1ccc(Cl)c([N+](=O)[O-])c1,didier14
ETHYL ISOBUTYRATE,287.0,1.0,CCOC(=O)C(C)C,didier14
ETHYL LACTATE,319.1,1.0,CCOC(=O)C(C)O,didier14
ITACONIC ACID,488.0,1.0,C=C(CC(=O)O)C(=O)O,didier14
2-ETHYL-1-BUTANOL,330.0,1.0,CCC(CC)CO,didier14
tert-BUTYLBENZENE,333.1,1.0,CC(C)(C)c1ccccc1,didier14
p-tert-BUTYLCATECHOL,403.0,1.0,CC(C)(C)c1ccc(O)c(O)c1,didier14
p-DIISOPROPYLBENZENE HYDROPEROXIDE,465.0,1.0,CC(C)c1ccc(C(C)C)cc1.[O-]O,didier14
NITROBENZENE,361.0,1.0,O=[N+]([O-])c1ccccc1,didier14
m-NITROTOLUENE,375.0,1.0,Cc1cccc([N+](=O)[O-])c1,didier14
METHYL tert-PENTYL ETHER,262.1,1.0,CCC(C)(C)OC,didier14
"1,2-DICHLORO-4-NITROBENZENE",396.1,1.0,O=[N+]([O-])c1ccc(Cl)c(Cl)c1,didier14
m-DINITROBENZENE,423.1,1.0,O=[N+]([O-])c1cccc([N+](=O)[O-])c1,didier14
DIALLYL MALEATE,393.0,1.0,C=CCOC(=O)/C=C\C(=O)OCC=C,didier14
2-HYDROXYPROPYL ACRYLATE,372.1,1.0,C=CC(=O)OCC(C)O,didier14
p-NITROTOLUENE,379.0,1.0,Cc1ccc([N+](=O)[O-])cc1,didier14
Propane,169.0,1.0,CCC,pan07
Butane,213.0,1.0,CCCC,pan07
Pentane,224.0,1.0,CCCCC,pan07
"2,2-Dimethylpropane",208.0,1.0,CC(C)(C)C,pan07
Hexane,250.0,1.0,CCCCCC,pan07
"2,2-Dimethylbutane",225.0,1.0,CCC(C)(C)C,pan07
"2,3-Dimethylbutane",244.0,1.0,CC(C)C(C)C,pan07
Heptane,269.0,1.0,CCCCCCC,pan07
"3,3-Dimethylpentane",254.0,1.0,CCC(C)(C)CC,pan07
"2,4-Dimethylpentane",261.0,1.0,CC(C)CC(C)C,pan07
3-Ethylpentane,255.0,1.0,CCC(CC)CC,pan07
"2,2-Dimethylpentane",250.0,1.0,CCCC(C)(C)C,pan07
"2,2,4-Trimethylpentane",261.0,1.0,CC(C)CC(C)(C)C,pan07
"2,2,3-Trimethylpentane",270.0,1.0,CCC(C)C(C)(C)C,pan07
3-Methyl-3-ethylpentane,276.0,1.0,CCC(C)(CC)CC,pan07
3-Ethylhexane,278.0,1.0,CCCC(CC)CC,pan07
3-Methylheptane,279.0,1.0,CCCCC(C)CC,pan07
"3,3-Dimethylhexane",272.0,1.0,CCCC(C)(C)CC,pan07
"2,3-Dimethylhexane",283.0,1.0,CCCC(C)C(C)C,pan07
"2,4-Dimethylhexane",283.0,1.0,CCC(C)CC(C)C,pan07
"2,5-Dimethylhexane",271.0,1.0,CC(C)CCC(C)C,pan07
Nonane,304.0,1.0,CCCCCCCCC,pan07
"3,4-Dimethylheptane",288.0,1.0,CCCC(C)C(C)CC,pan07
"2,3-Dimethylheptane",288.0,1.0,CCCCC(C)C(C)C,pan07
"2,6-Dimethylheptane",299.0,1.0,CC(C)CCCC(C)C,pan07
"2,3-Dimethyl-3-ethylpentane",288.0,1.0,CCC(C)(CC)C(C)C,pan07
"2,2,5-Trimethylhexane",286.0,1.0,CC(C)CCC(C)(C)C,pan07
3-Methyloctane,297.0,1.0,CCCCCC(C)CC,pan07
"2,2,3,4-Tetramethylpentane",284.0,1.0,CC(C)C(C)C(C)(C)C,pan07
"2,2,4,4-Tetramethylpentane",276.0,1.0,CC(C)(C)CC(C)(C)C,pan07
4-Ethylheptane,288.0,1.0,CCCC(CC)CCC,pan07
"2,2-Dimethylheptane",297.0,1.0,CCCCCC(C)(C)C,pan07
"2,4-Dimethylheptane",288.0,1.0,CCCC(C)CC(C)C,pan07
"2,3,4-Trimethylhexane",288.0,1.0,CCC(C)C(C)C(C)C,pan07
"3,3,4-Trimethylhexane",288.0,1.0,CCC(C)C(C)(C)CC,pan07
"2,3,5-Trimethylhexane",288.0,1.0,CC(C)CC(C)C(C)C,pan07
"2,2,3-Trimethylhexane",288.0,1.0,CCCC(C)C(C)(C)C,pan07
"3,5-Dimethylheptane",288.0,1.0,CCC(C)CC(C)CC,pan07
Tetraethylmethane,294.0,1.0,CCC(CC)(CC)CC,pan07
Decane,319.0,1.0,CCCCCCCCCC,pan07
4-Ethyloctane,314.0,1.0,CCCCC(CC)CCC,pan07
"2,4,5-Trimethylheptane",304.0,1.0,CCC(C)C(C)CC(C)C,pan07
"2,3-Dimethyloctane",314.0,1.0,CCCCCC(C)C(C)C,pan07
"3,3-Dimethyloctane",314.0,1.0,CCCCCC(C)(C)CC,pan07
"3,5-Dimethyloctane",314.0,1.0,CCCC(C)CC(C)CC,pan07
"2,6-Dimethyloctane",314.0,1.0,CCC(C)CCCC(C)C,pan07
"3-Ethyl-2,2-dimethylhexane",311.0,1.0,CCCC(CC)C(C)(C)C,pan07
"3,3,4,4-Tetramethylhexane",304.0,1.0,CCC(C)(C)C(C)(C)CC,pan07
"2,2,5,5-Tetramethylhexane",304.0,1.0,CC(C)(C)CCC(C)(C)C,pan07
"2,3,3,4-Tetramethylhexane",304.0,1.0,CCC(C)C(C)(C)C(C)C,pan07
"2,3,4,5-Tetramethylhexane",304.0,1.0,CC(C)C(C)C(C)C(C)C,pan07
"2,2,4,4-Tetramethylhexane",304.0,1.0,CCC(C)(C)CC(C)(C)C,pan07
"3,3,5-Trimethylheptane",304.0,1.0,CCC(C)CC(C)(C)CC,pan07
"2,3,5-Trimethylheptane",304.0,1.0,CCC(C)CC(C)C(C)C,pan07
3-Ethyl-3-methylheptane,314.0,1.0,CCCCC(C)(CC)CC,pan07
4-Ethyl-3-methylheptane,314.0,1.0,CCCC(CC)C(C)CC,pan07
2-Methylnonane,314.0,1.0,CCCCCCCC(C)C,pan07
Undecane,333.0,1.0,CCCCCCCCCCC,pan07
Dodecane,344.0,1.0,CCCCCCCCCCCC,pan07
Tetradecane,372.0,1.0,CCCCCCCCCCCCCC,pan07
Hexadecane,408.0,1.0,CCCCCCCCCCCCCCCC,pan07
"2,2,4,4,6,8,8-Heptamethylnonane",368.0,1.0,CC(CC(C)(C)C)CC(C)(C)CC(C)(C)C,pan07
2-Methylbutane,216.0,1.0,CCC(C)C,pan07
2-Methylpentane,250.0,1.0,CCCC(C)C,pan07
"2,3,3-Trimethylpentane",273.0,1.0,CCC(C)(C)C(C)C,pan07
2-Methylheptane,277.0,1.0,CCCCCC(C)C,pan07
"2,2-Dimethylhexane",269.0,1.0,CCCCC(C)(C)C,pan07
"3-Ethyl-2,2-dimethylpentane",286.0,1.0,CCC(CC)C(C)(C)C,pan07
"2,4,4-Trimethylhexane",288.0,1.0,CCC(C)(C)CC(C)C,pan07
"4,4-Dimethylheptane",288.0,1.0,CCCC(C)(C)CCC,pan07
"2,3,3-Trimethylhexane",288.0,1.0,CCCC(C)(C)C(C)C,pan07
"2,4,6-Trimethylheptane",304.0,1.0,CC(C)CC(C)CC(C)C,pan07
"3-Ethyl-2,3,4-trimethylpentane",304.0,1.0,CCC(C)(C(C)C)C(C)C,pan07
"2,3,4,4-Tetramethylhexane",304.0,1.0,CCC(C)(C)C(C)C(C)C,pan07
"3,4,5-Trimethylheptane",304.0,1.0,CCC(C)C(C)C(C)CC,pan07
3-Ethyl-5-methylheptane,304.0,1.0,CCC(C)CC(CC)CC,pan07
5-Methylnonane,312.0,1.0,CCCCC(C)CCCC,pan07
2-Methylpropane,186.0,1.0,CC(C)C,pan07
3-Methylpentane,241.0,1.0,CCC(C)CC,pan07
"2,3-Dimethylpentane",258.0,1.0,CCC(C)C(C)C,pan07
3-Methylhexane,258.0,1.0,CCCC(C)CC,pan07
"2,2,3-Trimethylbutane",247.0,1.0,CC(C)C(C)(C)C,pan07
Octane,286.0,1.0,CCCCCCCC,pan07
"2,2,3,3-Tetramethylbutane",273.0,1.0,CC(C)(C)C(C)(C)C,pan07
"2,3,4-Trimethylpentane",273.0,1.0,CC(C)C(C)C(C)C,pan07
"3,4-Dimethylhexane",277.0,1.0,CCC(C)C(C)CC,pan07
3-Ethyl-4-methylhexane,288.0,1.0,CCC(C)C(CC)CC,pan07
"2,2,4-Trimethylhexane",288.0,1.0,CCC(C)CC(C)(C)C,pan07
"2,7-Dimethyloctane",314.0,1.0,CC(C)CCCCC(C)C,pan07
"2,2,3,4-Tetramethylhexane",304.0,1.0,CCC(C)C(C)C(C)(C)C,pan07
Tridecane,352.0,1.0,CCCCCCCCCCCCC,pan07
Pentadecane,388.0,1.0,CCCCCCCCCCCCCCC,pan07
1-Chlorobutane,262.1,1.0,CCCCCl,caroll15
1-Chloro-3-methylbutane,289.2,1.0,CC(C)CCCl,caroll15
1-Chloro-2-methylbutane,283.0,1.0,CCC(C)CCl,caroll15
1-Chloropentane,284.3,1.0,CCCCCCl,caroll15
"1-Chloro-3,3-dimethylbutane",292.2,1.0,CC(C)(C)CCCl,caroll15
"1-Chloro-2,2-dimethylbutane",292.2,1.0,CCC(C)(C)CCl,caroll15
3-(Chloromethyl)pentane,298.2,1.0,CCC(CC)CCl,caroll15
1-Chloro-2-ethylbutane,298.2,1.0,CCC(CC)CCl,caroll15
1-Chloro-2-methylpentane,298.2,1.0,CCCC(C)CCl,caroll15
1-Chloro-3-methylpentane,298.2,1.0,CCC(C)CCCl,caroll15
1-Chlorohexane,299.9,1.0,CCCCCCCl,caroll15
1-Chloro-3-methylhexane,312.4,1.0,CCCC(C)CCCl,caroll15
1-Chloroheptane,314.9,1.0,CCCCCCCCl,caroll15
1-Chloro-5-methylheptane,325.7,1.0,CCC(C)CCCCCl,caroll15
1-Chlorooctane,334.2,1.0,CCCCCCCCCl,caroll15
1-Chlorodecane,356.2,1.0,CCCCCCCCCCCl,caroll15
1-Chloroundecane,367.6,1.0,CCCCCCCCCCCCl,caroll15
1-Chlorododecane,377.7,1.0,CCCCCCCCCCCCCl,caroll15
1-Chlorotetradecane,403.2,1.0,CCCCCCCCCCCCCCCl,caroll15
1-Chlorohexadecane,411.3,1.0,CCCCCCCCCCCCCCCCCl,caroll15
1-Chloroheptadecane,418.4,1.0,CCCCCCCCCCCCCCCCCCl,caroll15
1-Chlorooctadecane,457.2,1.0,CCCCCCCCCCCCCCCCCCCl,caroll15
3-Chloropentane,283.0,1.0,CCC(Cl)CC,caroll15
3-Chloro-2-methylpentane,294.0,1.0,CCC(Cl)C(C)C,caroll15
2-Chloro-4-methylpentane,294.0,1.0,CC(C)CC(C)Cl,caroll15
2-Chlorohexane,298.2,1.0,CCCCC(C)Cl,caroll15
3-Chlorohexane,298.2,1.0,CCCC(Cl)CC,caroll15
2-Chloro-5-methylhexane,308.4,1.0,CC(C)CCC(C)Cl,caroll15
4-Chloroheptane,312.4,1.0,CCCC(Cl)CCC,caroll15
3-Chloroheptane,312.4,1.0,CCCCC(Cl)CC,caroll15
2-Chloroheptane,312.4,1.0,CCCCCC(C)Cl,caroll15
3-Chlorooctane,325.7,1.0,CCCCCC(Cl)CC,caroll15
2-Chlorononane,338.3,1.0,CCCCCCCC(C)Cl,caroll15
5-Chlorononane,338.3,1.0,CCCCC(Cl)CCCC,caroll15
(S)-6-Chloro-2-methylnonane,346.9,1.0,CCC[C@H](Cl)CCCC(C)C,caroll15
2-Chlorodecane,350.2,1.0,CCCCCCCCC(C)Cl,caroll15
2-Chlorododecane,372.7,1.0,CCCCCCCCCCC(C)Cl,caroll15
5-Chlorododecane,372.6,1.0,CCCCCCCC(Cl)CCCC,caroll15
5-Chlorotridecane,383.2,1.0,CCCCCCCCC(Cl)CCCC,caroll15
"2-Chloro-2,3-dimethylbutane",288.1,1.0,CC(C)C(C)(C)Cl,caroll15
3-Chloro-3-methylpentane,282.6,1.0,CCC(C)(Cl)CC,caroll15
2-Chloro-2-methylpentane,294.0,1.0,CCCC(C)(C)Cl,caroll15
"2-Chloro-2,4-dimethylpentane",302.9,1.0,CC(C)CC(C)(C)Cl,caroll15
3-Chloro-3-methylhexane,306.7,1.0,CCCC(C)(Cl)CC,caroll15
"2-Chloro-2,3-dimethylpentane",302.9,1.0,CCC(C)C(C)(C)Cl,caroll15
"2-Chloro-2,3,3-trimethylbutane",297.5,1.0,CC(C)(C)C(C)(C)Cl,caroll15
3-Chloro-3-ethylpentane,306.7,1.0,CCC(Cl)(CC)CC,caroll15
"2-Chloro-2,4,4-trimethylpentane",311.5,1.0,CC(C)(C)CC(C)(C)Cl,caroll15
"3-Chloro-2,3-dimethylhexane",316.7,1.0,CCCC(C)(Cl)C(C)C,caroll15
3-Chloro-3-methylheptane,320.3,1.0,CCCCC(C)(Cl)CC,caroll15
2-Chloro-2-methylheptane,320.3,1.0,CCCCCC(C)(C)Cl,caroll15
"3-Chloro-2,2,3-trimethylhexane",324.8,1.0,CCCC(C)(Cl)C(C)(C)C,caroll15
3-Chloro-3-ethylheptane,333.1,1.0,CCCCC(Cl)(CC)CC,caroll15
3-Chloro-3-methyloctane,333.1,1.0,CCCCCC(C)(Cl)CC,caroll15
"6-Chloro-2,6-dimethyloctane",342.0,1.0,CCC(C)(Cl)CCCC(C)C,caroll15
2-Chloro-2-methylnonane,345.3,1.0,CCCCCCCC(C)(C)Cl,caroll15
3-Chloro-3-methylnonane,345.3,1.0,CCCCCCC(C)(Cl)CC,caroll15
"1-Chloro-2,3-dimethylbutane",294.0,1.0,CC(C)C(C)CCl,caroll15
1-Chloro-4-methylpentane,298.2,1.0,CC(C)CCCCl,caroll15
3-(Chloromethyl)heptane,325.7,1.0,CCCCC(CC)CCl,caroll15
1-Chlorononane,347.2,1.0,CCCCCCCCCCl,caroll15
"1-Chloro-3,7-dimethyloctane",346.9,1.0,CC(C)CCCC(C)CCCl,caroll15
1-Chlorotridecane,387.0,1.0,CCCCCCCCCCCCCCl,caroll15
1-Chloropentadecane,403.8,1.0,CCCCCCCCCCCCCCCCl,caroll15
1-Chloroeicosane,437.2,1.0,CCCCCCCCCCCCCCCCCCCCCl,caroll15
2-Chlorobutane,258.2,1.0,CCC(C)Cl,caroll15
2-Chloro-3-methylbutane,278.6,1.0,CC(C)C(C)Cl,caroll15
2-Chloropentane,274.2,1.0,CCCC(C)Cl,caroll15
"3-Chloro-2,2-dimethylbutane",288.1,1.0,CC(Cl)C(C)(C)C,caroll15
"4-Chloro-2,2-dimethylpentane",302.9,1.0,CC(Cl)CC(C)(C)C,caroll15
2-Chloro-6-methylheptane,322.0,1.0,CC(C)CCCC(C)Cl,caroll15
2-Chlorooctane,325.7,1.0,CCCCCCC(C)Cl,caroll15
5-Chloroundecane,361.7,1.0,CCCCCCC(Cl)CCCC,caroll15
2-Chloro-2-methylbutane,276.5,1.0,CCC(C)(C)Cl,caroll15
"3-Chloro-2,3-dimethylpentane",302.9,1.0,CCC(C)(Cl)C(C)C,caroll15
2-Chloro-2-methylhexane,306.7,1.0,CCCCC(C)(C)Cl,caroll15
"2-Chloro-2,5-dimethylhexane",316.7,1.0,CC(C)CCC(C)(C)Cl,caroll15
4-Chloro-4-methylheptane,320.3,1.0,CCCC(C)(Cl)CCC,caroll15
"3-Chloro-3-ethyl-2,2-dimethylpentane",324.8,1.0,CCC(Cl)(CC)C(C)(C)C,caroll15
2-Chloro-2-methyloctane,333.1,1.0,CCCCCCC(C)(C)Cl,caroll15
4-Chloro-4-methyloctane,333.1,1.0,CCCCC(C)(Cl)CCC,caroll15
Methyltrichlorosilane,276.15,1.0,C[Si](Cl)(Cl)Cl,didier12
Vinyltrichlorosilane,294.15,1.0,C=C[Si](Cl)(Cl)Cl,didier12
Dichloromethylmethyldichlorosilane,301.15,1.0,C[Si](Cl)(Cl)C(Cl)Cl,didier12
Ethyltrichlorosilane,263.15,1.0,CC[Si](Cl)(Cl)Cl,didier12
Dimethylchlorosilane,245.15,1.0,C[SiH](C)Cl,didier12
Ethylsilane,213.15,1.0,CC[SiH3],didier12
"1,1,1-Trifluoropropyltrichlorosilane",288.15,1.0,CC(C(F)(F)F)[Si](Cl)(Cl)Cl,didier12
Allyltrichlorosilane,304.15,1.0,C=CC[Si](Cl)(Cl)Cl,didier12
Methylvinyldichlorosilane,272.15,1.0,CC=C[SiH](Cl)Cl,didier12
3-Chloropropyltrichlorosilane,357.15,1.0,ClCCC[Si](Cl)(Cl)Cl,didier12
n-Propyltrichlorosilane,310.15,1.0,CCC[Si](Cl)(Cl)Cl,didier12
Chloromethyldimethylchlorosilane,295.15,1.0,C[Si](C)(Cl)CCl,didier12
Trimethylbromosilane,270.15,1.0,C[Si](C)(C)Br,didier12
Trimethylchlorosilane,255.15,1.0,C[Si](C)(C)Cl,didier12
Trimethylfluorosilane,238.15,1.0,C[Si](C)(C)F,didier12
Trimethoxysilane,264.15,1.0,CO[SiH](OC)OC,didier12
Cyanoethylmethyldichlorosilane,333.15,1.0,C[Si](Cl)(Cl)CCC#N,didier12
Allylmethyldichlorosilane,300.15,1.0,C=CCC[SiH](Cl)Cl,didier12
3-Chloropropylmethyldichlorosilane,359.15,1.0,C[Si](Cl)(Cl)CCCCl,didier12
t-Butyltrichlorosilane,294.15,1.0,CC(C)(C)[Si](Cl)(Cl)Cl,didier12
Isobutyltrichlorosilane,310.15,1.0,CC(C)C[Si](Cl)(Cl)Cl,didier12
n-Butyltrichlorosilane,327.15,1.0,CCCC[Si](Cl)(Cl)Cl,didier12
Trimethylsilylisothiocyanate,308.15,1.0,C[Si](C)(C)N=C=S,didier12
n-Propylmethyldichlorosilane,300.15,1.0,CCC[Si](C)(Cl)Cl,didier12
Bromomethyltrimethylsilane,289.15,1.0,C[Si](C)(C)CBr,didier12
Ethyldimethylchlorosilane,269.15,1.0,CC[Si](C)(C)Cl,didier12
Methoxytrimethylsilane,243.15,1.0,CO[Si](C)(C)C,didier12
Dimethyldimethoxysilane,265.15,1.0,CO[Si](C)(C)OC,didier12
Methyltrimethoxysilane,284.15,1.0,CO[Si](C)(OC)OC,didier12
Tetramethoxysilane,294.15,1.0,CO[Si](OC)(OC)OC,didier12
Tetramethylsilane,245.15,1.0,C[Si](C)(C)C,didier12
Diethylsilane,253.15,1.0,CC[SiH2]CC,didier12
"(N,N-Dimethylamino)dimethylsilane",260.15,1.0,CN(C)[SiH](C)C,didier12
Tetraisocyanatosilane,323.15,1.0,O=C=N[Si](N=C=O)(N=C=O)N=C=O,didier12
Cyclopentyltrichlorosilane,350.15,1.0,Cl[Si](Cl)(Cl)C1CCCC1,didier12
Trimethylsilyltrifluoroacetate,273.15,1.0,C[Si](C)(C)OC(=O)C(F)(F)F,didier12