smiles,compound,flashpoint,source,pure substance
CN(C)CCCO,"1-Propanol, 3-(dimethylamino)-",309.25,le15,1
NCCNCCN,"1,2-Ethanediamine, N-(2-aminoethyl)-",367.594,le15,1
CN(C)CCNN,"Ethanamine, 2-hydrazino-N,N-dimethyl-",339.0499999999999,le15,1
C1CSCCN1,thiomorpholine,333.15,le15,1
N#CCCCCl,"Butanenitrile, 4-chloro-",358.15,le15,1
O=C(O)CC(=O)O,Propanedioic acid,475.05,le15,1
N=C(N)N[N+](=O)[O-],"Guanidine, 1-nitro-",422.45,le15,1
N#Cc1ccncc1,4-Pyridinecarbonitrile,355.85,le15,1
N#Cc1cccnc1,3-Pyridinecarbonitrile,357.594,le15,1
N#Cc1ccccn1,Picolinonitrile (8CI),362.55,le15,1
CC(=O)OCCO,"Ethylene glycol, monoacetate",350.5499999999999,le15,1
COC(=O)C(C)O,methyl 2-hydroxypropanoate,322.15,le15,1
CCOCC(=O)O,"Acetic acid, 2-ethoxy-",366.25,le15,1
COC(=O)CCO,methyl 3-hydroxypropanoate,345.75,le15,1
COCC(=O)OC,methyl 2-methoxyacetate,308.15,le15,1
CCOC(=O)CO,ethyl 2-hydroxyacetate,334.85,le15,1
C=Cc1ccccc1,"Benzene, ethenyl-",304.255,le15,1
CC(C)OCCO,"Ethanol, 2-(1-methylethoxy)-",316.15,le15,1
CCOCCCO,"1-Propanol, 3-ethoxy-",327.5499999999999,le15,1
CC(C)(O)CCO,3-Hydroxy-3-methylbutan-1-ol,364.45,le15,1
CCCOCCO,2-(Propyloxy)ethanol,324.35,le15,1
COCC(C)OC,"1,2-dimethoxypropane",273.75,le15,1
CCOC(C)CO,"1-Propanol, 2-ethoxy-",319.0499999999999,le15,1
COC(C)CCO,"1-Butanol, 3-methoxy-",319.85,le15,1
CCC(C)(C)OO,"Hydroperoxide, 1,1-dimethylpropyl",314.35,le15,1
CCCC(O)CO,"Pentane-1,2-diol",377.15,le15,1
CC(O)C(C)(C)O,"2-methylbutane-2,3-diol",343.35,le15,1
CC(C)OCCO,2isopropoxyethanol,316.0,le15,1
NCCNCCO,"Ethanol, 2-((2-aminoethyl)amino)-",363.65,le15,1
NCCOCCN,2-(2-aminoethoxy)ethanamine,347.95,le15,1
CCCCCCF,"Hexane, 1-fluoro-",300.35,le15,1
CCSC(C)=O,S-ethyl ethanethioate,291.45,le15,1
O=S1CCCC1,thiolane 1-oxide,389.65,le15,1
CSCCC=O,"Propionaldehyde, 3-(methylthio)-",334.25,le15,1
C1CSCCO1,"1,4-Oxathiane",328.75,le15,1
CSCCC=O,4thiapentanal,331.0,le15,1
CNC(=S)NC,"Urea, 1,3-dimethyl-2-thio-",473.15,le15,1
CCC(C)CS,2-methylbutane-1-thiol,292.5499999999999,le15,1
CCCSCC,1-ethylsulfanylpropane,292.0499999999999,le15,1
CC(C)CCS,3-methylbutane-1-thiol,291.45,le15,1
CCCCSC,1-methylsulfanylbutane,293.75,le15,1
CCC(C)(C)S,"2-Butanethiol, 2-methyl-",272.15,le15,1
CCC(C)CS,2methyl1butanethiol,292.0,le15,1
CCCC(C)S,2pentanethiol,282.0,le15,1
CC(C)C(C)S,3methyl2butanethiol,292.0,le15,1
CSC(C)(C)C,tertButylMethylSulfide,270.0,le15,1
C=C(C)C(=O)Cl,2-methylprop-2-enoyl chloride,300.85,le15,1
C/C=C/C(=O)Cl,(E)-but-2-enoyl chloride,308.15,le15,1
CC=C(Cl)C=O,"2-Butenal, 2-chloro- (9CI)",316.95,le15,1
C/C(Cl)=C/C=O,3-Chlorocrotonaldehyde,312.85,le15,1
CC(C)=CCCl,1-chloro-3-methylbut-2-ene,277.15,le15,1
ClC1CCCC1,chlorocyclopentane,288.15,le15,1
C=C(C)C(C)Cl,"1-Butene, 3-chloro-2-methyl-",275.15,le15,1
CC=C(C)CCl,"2-Butene, 1-chloro-2-methyl-",281.95,le15,1
ClC1CCCC1,Chlorocyclopentane,288.0,le15,1
N[C@@H](CO)C(=O)O,Serine,465.732,le15,1
CC(C)O[N+](=O)[O-],propan-2-yl nitrate,285.95,le15,1
C=Cc1ccncc1,"Pyridine, 4-ethenyl-",324.817,le15,1
C=Cc1ccccn1,"Pyridine, 2-ethenyl-",319.85,le15,1
C=Cc1cccnc1,"Pyridine, 3-ethenyl-",324.0499999999999,le15,1
NCCOCCO,"Ethanol, 2-(2-aminoethoxy)-",349.75,le15,1
OCCNCCO,"Ethanol, 2,2'-iminobis-",410.92800000000005,le15,1
CC(N)(CO)CO,"1,3-Propanediol, 2-amino-2-methyl-",382.85,le15,1
OCCNCCO,Diethanolamine,410.0,le15,1
CNC(=S)NN,"Semicarbazide, 4-methyl-3-thio- (8CI)",328.75,le15,1
CCOC(=O)CF,"Acetic acid, 2-fluoro-, ethyl ester",303.15,le15,1
N#CC/C=C/CC#N,(E)-hex-3-enedinitrile,419.35,le15,1
COCOCCO,"Ethanol, 2-(methoxymethoxy)-",310.95,le15,1
OCCOCCO,"Ethanol, 2,2'-oxybis-",416.483,le15,1
COC(OC)OC,trimethoxymethane,288.75,le15,1
COC(OC)OC,Trimethoxymethane,288.0,le15,1
O=C(O)CCS,"Propanoic acid, 3-mercapto-",373.88699999999994,le15,1
COC(=O)CS,"Acetic acid, mercapto-, methyl ester",329.15,le15,1
C=CS(C)(=O)=O,"Ethene, (methylsulfonyl)- (9CI)",386.15,le15,1
Cc1cccc(C)c1,"Benzene, 1,3-dimethyl-",298.15,le15,1
C#CCCCCC#C,"octa-1,7-diyne",296.45,le15,1
C1=C\C=C/CC\C=C/1,"(1Z,3Z,5Z)-cycloocta-1,3,5-triene",300.95,le15,1
NNC(=S)NN,Carbonothioic dihydrazide,366.15,le15,1
CCSCCO,2-ethylsulfanylethanol,289.25,le15,1
C1CSCS1,"1,3-dithiolane",336.75,le15,1
O=C(O)/C=C\Cl,"Acrylic acid, 3-chloro-, (Z)- (8CI)",343.25,le15,1
CC(C)C(=O)Cl,2-methylpropanoyl chloride,274.25,le15,1
C=COCCCl,"Ether, 2-chloroethyl vinyl",289.15,le15,1
CCCC(=O)Cl,Butanoyl chloride,294.85,le15,1
CC1(CCl)CO1,2-(chloromethyl)-2-methyloxirane,307.65,le15,1
CC(=O)C(C)Cl,"2-Butanone, 3-chloro-",296.15,le15,1
CC(C)(Cl)C=O,2-chloro-2-methylpropanal,298.65,le15,1
CCCCCCl,1-chloropentane,284.25,le15,1
CCC(C)(C)Cl,2-chloro-2-methylbutane,276.54999999999995,le15,1
CCCC(C)Cl,2-chloropentane,282.95,le15,1
CC(C)(C)CCl,"1-chloro-2,2-dimethylpropane",264.25,le15,1
CC(C)CCCl,1-chloro-3-methylbutane,289.15,le15,1
CCCCCCl,1chloropentane,314.0,le15,1
CCCC(C)Cl,2chloropentane,273.0,le15,1
C=CBr,Bromoethene (9CI),255.95,le15,1
O=Cc1cccnc1,3-Pyridinecarboxaldehyde,357.15,le15,1
O=Cc1ccccn1,pyridine-2-carbaldehyde,327.5499999999999,le15,1
NCc1ccccc1,Benzenemethanamine,333.15,le15,1
CNc1ccccc1,"Benzenamine, N-methyl-",352.039,le15,1
CCc1ccccn1,"Pyridine, 2-ethyl-",302.5499999999999,le15,1
Cc1cccc(C)n1,"Pyridine, 2,6-dimethyl-",306.45,le15,1
CCc1ccncc1,4-ethylpyridine,320.15,le15,1
CCc1cccnc1,3-ethylpyridine,322.0499999999999,le15,1
Cc1ccncc1C,"Pyridine, 3,4-dimethyl-",326.15,le15,1
Cc1cncc(C)c1,"3,5-dimethylpyridine",326.15,le15,1
N#CC1CC=CCC1,3-Cyclohexene-1-carbonitrile,338.95,le15,1
Cc1cccnc1C,"2,3-dimethylpyridine",318.5499999999999,le15,1
Cc1ccc(C)nc1,"Pyridine, 2,5-dimethyl-",321.15,le15,1
Cc1ccc(N)cc1,4methylaniline,359.0,le15,1
CN(C)C(=O)Cl,"Carbamoyl chloride, dimethyl-",341.45,le15,1
N#CSCCl,chloromethyl thiocyanate,357.0499999999999,le15,1
O=C1C=CC(=O)C=C1,"2,5-Cyclohexadiene-1,4-dione",332.45,le15,1
N#C/C(N)=C(/N)C#N,"Maleonitrile, diamino- (8CI)",495.85,le15,1
N=C(N)S(=O)O,"Methanesulfinic acid, 1-amino-1-imino-",441.85,le15,1
Cc1ccccc1O,"Phenol, 2-methyl-",350.25,le15,1
OCc1ccccc1,Benzenemethanol,370.65,le15,1
COc1ccccc1,"Benzene, methoxy-",317.60400000000004,le15,1
Cc1ccc(O)cc1,"Phenol, 4-methyl-",354.15,le15,1
Cc1cccc(O)c1,"Phenol, 3-methyl-",359.261,le15,1
NNc1ccccc1,"Hydrazine, phenyl-",388.55,le15,1
Nc1ccc(N)cc1,"1,4-Benzenediamine",409.05,le15,1
Nc1cccc(N)c1,"1,3-Benzenediamine",420.75,le15,1
Cc1cncc(C)n1,"Pyrazine, 2,6-dimethyl-",325.95,le15,1
N#CCCCCC#N,Hexanedinitrile,422.15,le15,1
Cc1cnc(C)cn1,"Pyrazine, 2,5-dimethyl-",337.0499999999999,le15,1
Cc1ccnc(N)c1,"2-Pyridinamine, 4-methyl-",387.15,le15,1
Cc1cc(C)ncn1,"4,6-dimethylpyrimidine",329.15,le15,1
Cc1cccnc1N,"Pyridine, 2-amino-3-methyl-",383.05,le15,1
Cc1cccc(N)n1,"Pyridine, 2-amino-6-methyl-",376.15,le15,1
Cc1cnccc1N,"4-Pyridinamine, 3-methyl- (9CI)",411.55,le15,1
NCc1ccccn1,pyridin-2-ylmethanamine,363.15,le15,1
NCc1cccnc1,pyridin-3-ylmethanamine,373.15,le15,1
NCc1ccncc1,pyridin-4-ylmethanamine,381.45,le15,1
CNc1ccccn1,N-methylpyridin-2-amine,360.95,le15,1
Cc1nccnc1C,"Pyrazine, 2,3-dimethyl-",327.5499999999999,le15,1
CCc1cnccn1,"Pyrazine, 2-ethyl-",315.95,le15,1
Cc1ccnc(C)n1,"2,4-dimethylpyrimidine",309.85,le15,1
CCC(C#N)CC#N,2-ethylbutanedinitrile,399.55,le15,1
Nc1ccccc1N,"1,2-Benzenediamine",383.15,le15,1
Cc1ccc(N)nc1,"2-Pyridinamine, 5-methyl-",384.05,le15,1
N#CCCCCC#N,Adiponitrile,432.0,le15,1
C=CC1CC=CCC1,"Cyclohexene, 4-vinyl- (8CI)",289.15,le15,1
C=C(C)/C=C/C(=C)C,"(3E)-2,5-dimethylhexa-1,3,5-triene",291.25,le15,1
C1=C\CC/C=C\CC/1,"(1Z,5Z)-cycloocta-1,5-diene",311.15,le15,1
C=CC1=CCCCC1,1-ethenylcyclohexene,295.85,le15,1
SCCCS,"propane-1,3-dithiol",332.0499999999999,le15,1
CC(S)CS,"propane-1,2-dithiol",308.15,le15,1
CSCSC,bis(methylsulfanyl)methane,316.15,le15,1
COC(=O)CCl,"Acetic acid, 2-chloro-, methyl ester",324.85,le15,1
O=C(O)CCCl,"Propanoic acid, 3-chloro-",398.15,le15,1
CCOC(=O)Cl,"Carbonochloridic acid, ethyl ester",291.95,le15,1
CC(Cl)C(=O)O,"Propanoic acid, 2-chloro-",380.15,le15,1
CC(=O)OCCl,chloromethyl acetate,282.0499999999999,le15,1
COCC(=O)Cl,2-methoxyacetyl chloride,301.15,le15,1
CC(C)(O)CCl,1-chloro-2-methylpropan-2-ol,334.15,le15,1
CCOCCCl,1-chloro-2-ethoxyethane,288.75,le15,1
OCCCCCl,"1-Butanol, 4-chloro-",350.35,le15,1
COCCCCl,1-chloro-3-methoxypropane,301.0499999999999,le15,1
ClCC1CS1,"Propane, 1-chloro-2,3-epithio-",330.65,le15,1
CCBr,Bromoethane,253.0,le15,1
Nc1ccccc1O,"Phenol, 2-amino-",441.15,le15,1
OCc1cccnc1,pyridin-3-ylmethanol,370.65,le15,1
Nc1ccc(O)cc1,"Phenol, 4-amino-",462.15,le15,1
Nc1cccc(O)c1,"Phenol, 3-amino-",428.15,le15,1
Cc1ccc[nH]c1=O,3-methyl-1H-pyridin-2-one,445.85,le15,1
CC(=O)c1ccc[nH]1,1-(1H-Pyrrol-2-yl)ethan-1-one,365.55,le15,1
ONc1ccccc1,"Hydroxylamine, N-phenyl-",393.35,le15,1
COc1ccccn1,2-methoxypyridine,305.15,le15,1
Nc1cccc(N)n1,"Pyridine-2,6-diyldiamine",434.45,le15,1
N#Cc1cccs1,thiophene-2-carbonitrile,326.45,le15,1
N#CC1CCCCC1,Cyclohexanecarbonitrile,341.95,le15,1
Cc1ccc(C)n1C,"1,2,5-trimethylpyrrole",325.35,le15,1
N#CC1CCCCC1,Cyclohexanecarbonitrile,338.0,le15,1
CC(Cl)[N+](=O)[O-],1-chloro-1-nitroethane,302.85,le15,1
O=[N+]([O-])CCCl,1-chloro-2-nitroethane,329.65,le15,1
N#CC(Cl)Cl,"Acetonitrile, dichloro-",309.15,le15,1
CO[PH](=O)OC,"Phosphonic acid, dimethyl ester",302.594,le15,1
Pc1ccccc1,phenylphosphane,244.25,le15,1
Cc1ccc(C=O)o1,"2-Furancarboxaldehyde, 5-methyl-",345.15,le15,1
CC(=O)c1ccco1,"Ethanone, 1-(2-furanyl)-",344.25,le15,1
Oc1ccc(O)cc1,Hydroquinone,438.0,le15,1
Nc1cc[n+]([O-])cc1,"Pyridine, 4-amino-, 1-oxide",358.85,le15,1
CC(=O)n1ccnc1,"Ethanone, 1-(1H-imidazol-1-yl)-",361.15,le15,1
Cc1ccccc1F,"Benzene, 1-fluoro-2-methyl-",284.5499999999999,le15,1
Cc1ccc(F)cc1,"Benzene, 1-fluoro-4-methyl-",285.0499999999999,le15,1
Cc1cccc(F)c1,"Toluene, m-fluoro- (8CI)",282.5499999999999,le15,1
FCc1ccccc1,fluoromethylbenzene,290.5499999999999,le15,1
COS(C)(=O)=O,"Methanesulfonic acid, methyl ester",377.15,le15,1
COS(=O)OC,dimethyl sulfite,303.15,le15,1
O=CC1CC=CCC1,3-Cyclohexene-1-carboxaldehyde,330.35,le15,1
O=C(C1CC1)C1CC1,dicyclopropylmethanone,312.5499999999999,le15,1
CC1=CC(=O)CCC1,3-methylcyclohex-2-en-1-one,341.45,le15,1
O=CC1=CCCCC1,Cyclohexenecarboxaldehyde,344.25,le15,1
CCc1ccc(C)o1,2-ethyl-5-methylfuran,288.25,le15,1
CCCc1ccco1,2-propylfuran,287.95,le15,1
CC1=CCCC(=O)C1,3-methylcyclohex-3-en-1-one,328.65,le15,1
C#CC1(O)CCCC1,1-ethynylcyclopentan-1-ol,322.0499999999999,le15,1
CCc1ncc(C)[nH]1,2-ethyl-5-methyl-1H-imidazole,410.95,le15,1
Cc1cc(C)n(C)n1,"1,3,5-trimethylpyrazole",313.15,le15,1
Sc1ccccc1,Benzenethiol,323.75,le15,1
C#CCCCCCC,oct-1-yne,290.15,le15,1
C=CC1CCCCC1,ethenylcyclohexane,294.25,le15,1
CC(C)=CC=C(C)C,"2,4-Hexadiene, 2,5-dimethyl-",298.15,le15,1
C1=CCCCCCC1,cyclooctene,298.15,le15,1
CC=C1CCCCC1,ethylidenecyclohexane,297.0499999999999,le15,1
CCC1=CCCCC1,1-ethylcyclohexene,292.35,le15,1
CC1=CCCCCC1,1-methylcycloheptene,293.75,le15,1
CC1=C(C)CCCC1,"1,2-dimethylcyclohexene",289.95,le15,1
CCC1C=CCCC1,3-ethylcyclohexene,286.0499999999999,le15,1
CC#CCCCCC,oct-2-yne,297.25,le15,1
C=CCC1CCCC1,prop-2-enylcyclopentane,285.35,le15,1
C=CCCCCC=C,"1,7-Octadiene",282.5499999999999,le15,1
C/C=C/CC/C=C/C,"(2E,6E)-octa-2,6-diene",286.85,le15,1
CC1(C)CC=CCC1,"4,4-dimethylcyclohexene",275.85,le15,1
CCC#CCCCC,oct-3-yne,295.15,le15,1
CC=CC1CCCC1,2propenylcyclopentane,285.0,le15,1
CCCC#CCCC,4octyne,291.0,le15,1
C=CC1CCCCC1,Ethenylcyclohexane,295.0,le15,1
FCCCCCl,1-chloro-4-fluorobutane,283.0499999999999,le15,1
SCCCCl,3chloro1propanethiol,316.0,le15,1
C=C(Cl)CCl,"1-Propene, 2,3-dichloro-",283.15,le15,1
ClC=CCCl,"1-Propene, 1,3-dichloro-",300.95,le15,1
CC(Cl)=CCl,"Propene, 1,2-dichloro-",288.85,le15,1
C=CC(Cl)Cl,"3,3-dichloroprop-1-ene",276.15,le15,1
CC=C(Cl)Cl,"1-Propene, 1,1-dichloro- (9CI)",273.75,le15,1
Cl/C=C\CCl,"1-Propene, 1,3-dichloro-, (Z)- (9CI)",297.15,le15,1
Cl/C=C/CCl,"(E)-1,3-dichloroprop-1-ene",300.95,le15,1
C=C(C#N)C(=O)OC,"2-Propenoic acid, 2-cyano-, methyl ester",340.75,le15,1
Nc1ccccc1F,"Aniline, o-fluoro- (8CI)",333.15,le15,1
Nc1ccc(F)cc1,"Aniline, p-fluoro- (8CI)",351.0499999999999,le15,1
Nc1cccc(F)c1,"Aniline, m-fluoro- (8CI)",350.35,le15,1
C=CN1CCCC1=O,1-Ethenyl-2-pyrrolidinone (9CI),367.05,le15,1
C=CCOCCC#N,"Propanenitrile, 3-(2-propenyloxy)- (9CI)",356.0499999999999,le15,1
CNCc1ccco1,1-(furan-2-yl)-N-methylmethanamine,307.15,le15,1
Cc1nc(C)c(C)o1,"2,4,5-Trimethyloxazole",306.45,le15,1
NCCc1c[nH]cn1,1H-Imidazole-4-ethanamine,453.45,le15,1
CCCCCCC#N,Heptane-1-nitrile,333.65,le15,1
C#CCN(CC)CC,"2-Propyn-1-amine, N,N-diethyl-",429.15,le15,1
CC#CN(CC)CC,"1-Propyn-1-amine, N,N-diethyl- (9CI)",311.85,le15,1
CCCCCCC#N,Heptanenitrile,331.0,le15,1
CC(=O)C(F)(F)F,"2-Propanone, 1,1,1-trifluoro-",243.15,le15,1
O=C(O)c1ccco1,2-Furancarboxylic acid,367.35,le15,1
CC1=CC(=O)OC1=O,"2,5-Furandione, 3-methyl-",374.15,le15,1
O=c1ccc(=O)[nH][nH]1,"3,6-Pyridazinedione, 1,2-dihydro-",515.55,le15,1
O=C(O)c1cnc[nH]1,1H-imidazole-5-carboxylic acid,526.3499999999998,le15,1
O=c1cc(O)[nH]cn1,"4(1H)-Pyrimidinone, 6-hydroxy-",443.75,le15,1
Oc1ccccc1F,"Phenol, 2-fluoro-",319.85,le15,1
Oc1ccc(F)cc1,"Phenol, 4-fluoro-",347.95,le15,1
Oc1cccc(F)c1,3-fluorophenol,344.15,le15,1
CC1=C(O)C(=O)CC1,"2-Cyclopenten-1-one, 2-hydroxy-3-methyl-",373.85,le15,1
O=CC1CCC=CO1,"2H-Pyran-2-carboxaldehyde, 3,4-dihydro-",346.5499999999999,le15,1
O=C1CCCC(=O)C1,"1,3-Cyclohexanedione",358.85,le15,1
O=C1CCC(=O)CC1,"1,4-Cyclohexanedione",355.35,le15,1
O=C1CCCCC1=O,"1,2-Cyclohexanedione",357.15,le15,1
C=CCOC(=O)C=C,"Acrylic acid, allyl ester (8CI)",342.35,le15,1
C=CC=COC(C)=O,"1,3-Butadien-1-ol, acetate",306.45,le15,1
C#CCOC(=O)CC,"2-Propyn-1-ol, propanoate",315.25,le15,1
CC(O)c1ccco1,1-(furan-2-yl)ethanol,307.75,le15,1
CC#CC(=O)OCC,ethyl but-2-ynoate,326.35,le15,1
COCc1ccco1,2-(methoxymethyl)furan,295.25,le15,1
C=COC(=O)C=CC,"2-Butenoic acid, ethenyl ester",300.15,le15,1
C/C=C/C=C/C(=O)O,"2,4-Hexadienoic acid, (2E,4E)-",400.15,le15,1
O=Cc1cccs1,2-Thiophenecarboxaldehyde,350.95,le15,1
CN(C)C(=N)NC#N,"Guanidine, N'-cyano-N,N-dimethyl-",337.5499999999999,le15,1
CC1CCCCC1=O,"Cyclohexanone, 2-methyl-",319.0499999999999,le15,1
CC1CCCC(=O)C1,"Cyclohexanone, 3-methyl-",321.15,le15,1
CCCCC#CCO,2-Heptyn-1-ol,351.15,le15,1
C=C(C=O)CCCC,2-Methylenehexanal,306.45,le15,1
C=CCC(O)CC=C,"hepta-1,6-dien-4-ol",313.15,le15,1
C=C(C)CCC(C)=O,"5-Hexen-2-one, 5-methyl-",311.85,le15,1
CC1CCC(C)C1=O,"2,5-dimethylcyclopentan-1-one",313.75,le15,1
CC(=O)C=CC(C)C,"3-Hexen-2-one, 5-methyl-",320.65,le15,1
CC(=O)C1CCCC1,1-cyclopentylethanone,320.15,le15,1
C#CC(O)(CC)CC,"3-Pentanol, 3-ethynyl-",310.95,le15,1
C#CC(O)CCCC,1-Heptyn-3-ol,323.95,le15,1
C#CC(O)CC(C)C,5-Methyl-1-hexyn-3-ol,323.25,le15,1
O=C1CCCCCC1,cycloheptanone,330.15,le15,1
CC1CCC(=O)CC1,"Cyclohexanone, 4-methyl-",319.0499999999999,le15,1
C#CC(C)(O)C(C)C,"1-Pentyn-3-ol, 3,4-dimethyl-",310.35,le15,1
O=CC1CCCCC1,cyclohexanecarbaldehyde,314.15,le15,1
CCCC/C=C/C=O,(E)-hept-2-enal,326.85,le15,1
CC=CCOC=CC,"Ether, 2-butenyl propenyl",287.5499999999999,le15,1
CC1CCCCC1=O,2methylcyclohexanone,321.0,le15,1
O=C1CCCCCC1,Cycloheptanone,358.0,le15,1
C1CN2CCN1CC2,"1,4-Diazabicyclo(2.2.2)octane",335.35,le15,1
C=CCN(N)CC=C,"Hydrazine, 1,1-di-2-propenyl- (9CI)",327.15,le15,1
N#CCCCCCN,"Hexanenitrile, 6-amino-",366.75,le15,1
CCN(CC)CC#N,"Acetonitrile, (diethylamino)-",327.0499999999999,le15,1
Cc1ccsc1C,"2,3-dimethylthiophene",298.95,le15,1
Cc1csc(C)c1,"2,4-dimethylthiophene",296.15,le15,1
CCc1cccs1,2-ethylthiophene,294.25,le15,1
Cc1ccc(C)s1,"2,5-dimethylthiophene",297.0499999999999,le15,1
CCc1ccsc1,3-ethylthiophene,295.95,le15,1
C=C(C)CC(C)(C)C,"1-Pentene, 2,4,4-trimethyl-",267.04999999999995,le15,1
C/C=C/CCCCC,(E)-oct-2-ene,289.75,le15,1
CC(C)=C(C)C(C)C,"2,3,4-trimethylpent-2-ene",285.95,le15,1
CC1(C)CCCCC1,"1,1-dimethylcyclohexane",280.35,le15,1
CCC/C=C/CCC,(E)-oct-4-ene,294.25,le15,1
CC[C@@H]1CCC[C@H]1C,"(1R,2R)-1-ethyl-2-methylcyclopentane",286.65,le15,1
C=C(CC)CCCC,"Heptane, 3-methylene-",283.5499999999999,le15,1
C[C@@H]1CCC[C@@H](C)C1,"(1R,3R)-1,3-dimethylcyclohexane",282.5499999999999,le15,1
CC1CC(C)C(C)C1,"1,2,4-trimethylcyclopentane",282.35,le15,1
C=CC(CC)CCC,3-ethylhex-1-ene,288.65,le15,1
C=C(CC)C(C)CC,3-methyl-4-methylidenehexane,279.85,le15,1
C=CC(C)(C)CCC,"3,3-dimethylhex-1-ene",283.85,le15,1
CC(C)C1CCCC1,propan-2-ylcyclopentane,287.25,le15,1
CC1CCCCCC1,methylcycloheptane,293.0499999999999,le15,1
CC1CCCC1(C)C,"1,1,2-trimethylcyclopentane",279.54999999999995,le15,1
CC/C=C(\C)CCC,(E)-4-methylhept-3-ene,282.35,le15,1
CC1CCC(C)(C)C1,"1,1,3-trimethylcyclopentane",279.54999999999995,le15,1
CCCC(C)=C(C)C,"2,3-dimethylhex-2-ene",288.75,le15,1
C=CCCC(C)CC,5-methylhept-1-ene,288.65,le15,1
C=CC[C@H](C)CCC,(4R)-4-methylhept-1-ene,288.65,le15,1
C=CC(C)C(C)CC,"3,4-dimethylhex-1-ene",283.85,le15,1
C=C(C)C(C)CCC,"2,3-dimethylhex-1-ene",279.85,le15,1
CCC1(C)CCCC1,1-ethyl-1-methylcyclopentane,283.75,le15,1
C=C(C)C(CC)CC,3-ethyl-2-methylpent-1-ene,279.85,le15,1
C/C=C\CC(C)(C)C,"(Z)-5,5-dimethylhex-2-ene",281.5499999999999,le15,1
CC1CCCCC1C,"1,2-dimethylcyclohexane",288.75,le15,1
CCC1CCCC1C,1-ethyl-2-methylcyclopentane,286.65,le15,1
C[C@H]1CCCC[C@H]1C,"Cyclohexane, 1,2-dimethyl-, (1R,2S)-rel-",288.75,le15,1
CC1CCC(C)CC1,"1,4-dimethylcyclohexane",288.75,le15,1
CC1CCC(C)C1C,"1,2,3-trimethylcyclopentane",282.394,le15,1
C=CCCCC(C)C,6-methylhept-1-ene,288.65,le15,1
C/C=C/CCCCC,trans-Oct-2-ene,294.25,le15,1
CC/C=C/CCCC,(E)-oct-3-ene,288.25,le15,1
C=CCC(C)C(C)C,"4,5-dimethylhex-1-ene",283.85,le15,1
CCC1(C)CCCC1,1ethyl1methylcyclopentane,279.0,le15,1
C=CCCCCCC,1octene,286.0,le15,1
C=C(C)CCCCC,2methyl1heptene,283.0,le15,1
CCCCC=C(C)C,2methyl2heptene,281.0,le15,1
C1CCCCCCC1,Cyclooctane,301.0,le15,1
O=C(O)C(F)Cl,2-chloro-2-fluoroacetic acid,331.75,le15,1
N#C/C=C(\Cl)C#N,(Z)-2-chlorobut-2-enedinitrile,341.5499999999999,le15,1
O=C(Cl)CCl,"Acetyl chloride, chloro-",307.15,le15,1
O=c1nc[nH]c(=O)[nH]1,"s-Triazine-2,4(1H,3H)-dione (8CI)",574.05,le15,1
O=[N+]([O-])c1c[nH]cn1,4-Nitro-1H-imidazole (9CI),471.75,le15,1
CN1C(=O)CCC1=O,"2,5-Pyrrolidinedione, 1-methyl-",379.05,le15,1
COC(=O)CCC#N,methyl 3-cyanopropanoate,360.65,le15,1
O=C1CCCCCN1,Hexahydro-2H-azepin-2-one (9CI),409.85,le15,1
C=CC(=O)NC(C)C,"2-Propenamide, N-(1-methylethyl)-",392.85,le15,1
CCN1CCCC1=O,"2-Pyrrolidinone, 1-ethyl-",349.25,le15,1
C=CN(CC)C(C)=O,"Acetamide, N-ethyl-N-vinyl-",345.65,le15,1
NCC1CCC=CO1,"2H-Pyran-2-methanamine, 3,4-dihydro- (9CI)",343.65,le15,1
ON=C1CCCCC1,"Cyclohexanone, oxime",363.15,le15,1
O=CN1CCCCC1,1-Piperidinecarboxaldehyde,364.15,le15,1
CC1CCCNC1=O,3-methylpiperidin-2-one,411.75,le15,1
CC1CCC(=O)N1C,"1,5-dimethylpyrrolidin-2-one",362.55,le15,1
Cc1csc(C)n1,"2,4-dimethyl-1,3-thiazole",315.15,le15,1
Cc1ncsc1C,"Thiazole, 4,5-dimethyl-",324.25,le15,1
CC1CCCC(C)N1,"Piperidine, 2,6-dimethyl-",284.15,le15,1
CC1CCCC(C)N1,"2,6-dimethylpiperidine",284.85,le15,1
C1CCCNCCC1,"Azocine, octahydro-",302.5499999999999,le15,1
CC1(C)CCCNC1,"3,3-dimethylpiperidine",305.35,le15,1
NCC1CCCCC1,cyclohexylmethanamine,316.45,le15,1
CCC1CCNCC1,4-ethylpiperidine,306.95,le15,1
CC1CNCC(C)C1,"3,5-dimethylpiperidine",305.15,le15,1
CNC1CCCCC1,"Cyclohexanamine, N-methyl-",302.5499999999999,le15,1
CCN1CCCCC1,1ethylpiperidine,291.0,le15,1
NCC1CCCCC1,Cyclohexanemethylamine,316.0,le15,1
Clc1ccccn1,"Pyridine, 2-chloro-",338.15,le15,1
Clc1cccnc1,"Pyridine, 3-chloro-",338.15,le15,1
O=C(O)C(F)(F)F,"Acetic acid, 2,2,2-trifluoro-",270.15,le15,1
O=c1c(O)c(O)c1=O,"Cyclobutenedione, dihydroxy- (8CI)",392.99,le15,1
CC(O)C(F)(F)F,"2-Propanol, 1,1,1-trifluoro-",311.95,le15,1
OCCC(F)(F)F,"3,3,3-trifluoropropan-1-ol",320.25,le15,1
Fc1cccc(F)c1,"Benzene, 1,3-difluoro- (9CI)",275.15,le15,1
Fc1ccc(F)cc1,"Benzene, 1,4-difluoro- (9CI)",275.25,le15,1
Fc1ccccc1F,"1,2-difluorobenzene",275.35,le15,1
O=C1CCCC(=O)O1,"2H-Pyran-2,6(3H)-dione, dihydro-",394.05,le15,1
COS(=O)(=O)F,"Fluorosulfuric acid, methyl ester",283.15,le15,1
CC1CC(=O)OC1=O,"3-methyloxolane-2,5-dione",381.35,le15,1
CCOC(=O)C=[N+]=[N-],"Acetic acid, diazo-, ethyl ester",319.15,le15,1
O=NN1CC=CCO1,"2H-1,2-Oxazine, 3,6-dihydro-2-nitroso-",303.45,le15,1
NCc1cc(O)no1.O,5-(Aminomethyl)isoxazol-3-ol hydrate,423.55,le15,1