compound,flashpoint,pure substance,smiles,source
Triethanolamine,452.15,1,OCCN(CCO)CCO,hazardous materials
Triethylene glycol,450.15,1,OCCOCCOCCO,hazardous materials
Triethylene-tetramine,408.15,1,NCCNCCNCCN,hazardous materials
Trimethyl amine,266.15,1,CN(C)C,hazardous materials
Triphenyl phosphate,493.15,1,O=P(Oc1ccccc1)(Oc1ccccc1)Oc1ccccc1,hazardous materials
Tritolyl phosphate,498.15,1,Cc1ccccc1OP(=O)(Oc1ccccc1C)Oc1ccccc1C,hazardous materials
Vinyl acetate,265.15,1,C=COC(C)=O,hazardous materials
Xylidine,370.15,1,Cc1cccc(N)c1C,hazardous materials
acetaldehyde,233.15,1,CC=O,pubchem
acetic acid,313.15,1,CC(=O)O,pubchem
acetonitrile,279.15,1,CC#N,pubchem
acetyl chloride,277.15,1,CC(=O)Cl,pubchem
prop-2-enal,247.15,1,C=CC=O,pubchem
prop-2-enoic acid,327.15,1,C=CC(=O)O,pubchem
prop-2-enenitrile,273.15,1,C=CC#N,pubchem
prop-2-en-1-ol,295.15,1,C=CCO,pubchem
prop-2-en-1-amine,244.15,1,C=CCN,pubchem
3-bromoprop-1-ene,271.15,1,C=CCBr,pubchem
3-chloroprop-1-ene,241.15,1,C=CCCl,pubchem
prop-2-enyl carbonochloridate,304.15,1,C=CCOC(=O)Cl,pubchem
2-(prop-2-enoxymethyl)oxirane,330.15,1,C=CCOCC1CO1,pubchem
3-methylbutan-1-ol,319.15,1,CC(C)CCO,pubchem
2-methylbutan-2-ol,292.15,1,CCC(C)(C)O,pubchem
pentan-1-amine,280.15,1,CCCCCN,pubchem
pentane-1-thiol,291.15,1,CCCCCS,pubchem
pentyl nitrite,283.15,1,CCCCCON=O,pubchem
aziridine,262.15,1,C1CN1,pubchem
benzene,262.0,1,c1ccccc1,Saldana11
phenylmethanol,374.0,1,OCc1ccccc1,Saldana11
benzyl benzoate,418.0,1,O=C(OCc1ccccc1)c1ccccc1,Saldana11
butane,213.15,1,CCCC,pubchem
2-methylpropan-1-ol,301.15,1,CC(C)CO,pubchem
butan-2-ol,297.15,1,CCC(C)O,pubchem
2-methylpropan-2-ol,284.15,1,CC(C)(C)O,pubchem
butan-1-amine,261.15,1,CCCCN,pubchem
2-methylpropan-1-amine,264.15,1,CC(C)CN,pubchem
isobutylbenzene,325.0,1,CC(C)Cc1ccccc1,Saldana11
1-bromobutane,291.15,1,CCCCBr,pubchem
"butane-2,3-diol",358.0,1,CC(O)C(C)O,Saldana11
butyl formate,291.15,1,CCCCOC=O,pubchem
butyl 2-hydroxypropanoate,344.15,1,CCCCOC(=O)C(C)O,pubchem
butanal,266.15,1,CCCC=O,pubchem
butanoyl butanoate,355.15,1,CCCC(=O)OC(=O)CCC,pubchem
hexanoic acid,377.15,1,CCCCCC(=O)O,pubchem
octanal,325.15,1,CCCCCCCC=O,pubchem
3-methylphenol,368.0,1,Cc1cccc(O)c1,Saldana11
2-methylphenol,354.0,1,Cc1ccccc1O,Saldana11
4-methylphenol,368.0,1,Cc1ccc(O)cc1,Saldana11
cyclohexane,253.15,1,C1CCCCC1,pubchem
cyclohexanol,341.0,1,OC1CCCCC1,Saldana11
"1,2,3,4,4a,5,6,7,8,8a-decahydronaphthalene",330.15,1,C1CCC2CCCCC2C1,pubchem
8-methylnonanal,358.15,1,CC(C)CCCCCCC=O,pubchem
decane,319.15,1,CCCCCCCCCC,pubchem
N-butylbutan-1-amine,325.15,1,CCCCNCCCC,pubchem
1-butoxybutane,298.15,1,CCCCOCCCC,pubchem
di-n-butyl phthalate,430.0,1,CCCCOC(=O)c1ccccc1C(=O)OCCCC,Saldana11
"1,1-dichloroethane",267.15,1,CC(Cl)Cl,pubchem
diethyl carbonate,298.15,1,CCOC(=O)OCC,pubchem
2-(2-ethoxyethoxy)ethanol,369.15,1,CCOCCOCCO,pubchem
pentan-3-one,286.15,1,CCC(=O)CC,pubchem
diethyl propanedioate,366.15,1,CCOC(=O)CC(=O)OCC,pubchem
diethyl sulfate,377.15,1,CCOS(=O)(=O)OCC,pubchem
"2,6-dimethylheptan-4-one",333.15,1,CC(C)CC(=O)CC(C)C,pubchem
N-propan-2-ylpropan-2-amine,272.15,1,CC(C)NC(C)C,pubchem
2-propan-2-yloxypropane,245.15,1,CC(C)OC(C)C,pubchem
dimethoxymethane,255.15,1,COCOC,pubchem
"2,2-dimethylbutane",225.15,1,CCC(C)(C)C,pubchem
"2,3-dimethylbutane",244.15,1,CC(C)C(C)C,pubchem
dimethyl phthalate,419.0,1,COC(=O)c1ccccc1C(=O)OC,Saldana11
dimethyl sulfate,356.15,1,COS(=O)(=O)OC,pubchem
"1,4-dioxane",285.15,1,C1COCCO1,pubchem
dodecane,347.15,1,CCCCCCCCCCCC,pubchem
2-methyloxirane,236.15,1,CC1CO1,pubchem
ethanol,286.15,1,CCO,pubchem
ethylbenzene,288.0,1,CCc1ccccc1,Saldana11
ethyl 2-bromoacetate,321.15,1,CCOC(=O)CBr,pubchem
heptan-3-one,319.15,1,CCCCC(=O)CC,pubchem
ethyl butanoate,297.15,1,CCCC(=O)OCC,pubchem
chloroethane,223.15,1,CCCl,pubchem
ethyl carbonochloridate,289.15,1,CCOC(=O)Cl,pubchem
ethyl 2-cyanoacetate,383.15,1,CCOC(=O)CC#N,pubchem
"1,2-dichloroethane",286.0,1,ClCCCl,carroll11
"ethane-1,2-diol",383.0,1,OCCO,Saldana11
ethoxyethane,228.15,1,CCOCC,pubchem
ethyl formate,253.15,1,CCOC=O,pubchem
ethyl 2-hydroxypropanoate,319.15,1,CCOC(=O)C(C)O,pubchem
methoxyethane,236.15,1,CCOC,pubchem
4-ethylmorpholine,301.15,1,CCN1CCOCC1,pubchem
ethyl nitrite,238.15,1,CCON=O,pubchem
ethyl propanoate,285.0,1,CCOC(=O)CC,Saldana11
"propane-1,2,3-triol",433.0,1,OCC(O)CO,Saldana11
heptane,269.15,1,CCCCCCC,pubchem
hexane,250.15,1,CCCCCC,pubchem
hexan-1-ol,336.15,1,CCCCCCO,pubchem
hexan-1-amine,302.15,1,CCCCCCN,pubchem
formonitrile,255.15,1,C#N,pubchem
hydroxylamine,402.15,1,NO,pubchem
isoprene,219.0,1,C=CC(=C)C,Saldana11
methylacetate,260.0,1,COC(C)=O,carroll11
methanol,284.15,1,CO,pubchem
hexan-2-ol,314.15,1,CCCCC(C)O,pubchem
N-methylbutan-1-amine,286.15,1,CCCCNC,pubchem
methyl butanoate,287.15,1,CCCC(=O)OC,pubchem
methyl carbonochloridate,285.15,1,COC(=O)Cl,pubchem
methylcyclohexane,269.15,1,CC1CCCCC1,pubchem
2-methylcyclohexan-1-one,321.15,1,CC1CCCCC1=O,pubchem
4-methylcyclohexene,272.0,1,CC1CC=CCC1,carroll11
Isobutyl methyl ketone,290.15,1,CC(=O)CC(C)C,hazardous materials
morpholine,311.15,1,C1COCCN1,pubchem
1-nitroethane,314.15,1,CC[N+](=O)[O-],pubchem
nitromethane,308.15,1,C[N+](=O)[O-],pubchem
nonylphenol,411.0,1,CCCCCCCCCc1ccccc1O,Saldana11
octane,286.15,1,CCCCCCCC,pubchem
octan-1-ol,354.15,1,CCCCCCCCO,pubchem
2-methylbutane,216.15,1,CCC(C)C,pubchem
"pentane-1,5-diol",402.0,1,OCCCCCO,Saldana11
pentan-2-ol,308.15,1,CCCC(C)O,pubchem
phenol,353.0,1,Oc1ccccc1,Saldana11
"2,6,6-trimethylbicyclo[3.1.1]hept-2-ene",306.15,1,CC1=CCC2CC1C2(C)C,pubchem
prop-2-yn-1-ol,306.15,1,C#CCO,pubchem
3-bromoprop-1-yne,283.15,1,C#CCBr,pubchem
propanal,264.15,1,CCC=O,pubchem
propanoic acid,327.15,1,CCC(=O)O,pubchem
propanenitrile,275.15,1,CCC#N,pubchem
propanoyl chloride,285.15,1,CCC(=O)Cl,pubchem
propan-2-ol,285.15,1,CC(C)O,pubchem
propan-1-amine,236.15,1,CCCN,pubchem
propan-2-amine,236.15,1,CC(C)N,pubchem
n-propylbenzene,303.0,1,CCCc1ccccc1,Saldana11
propyl formate,270.15,1,CCCOC=O,pubchem
propan-2-yl formate,267.15,1,CC(C)OC=O,pubchem
propyl nitrate,293.15,1,CCCO[N+](=O)[O-],pubchem
pyrrolidine,276.15,1,C1CCNC1,pubchem
"benzene-1,3-diol",400.0,1,Oc1cccc(O)c1,Saldana11
octadecanoic acid,469.15,1,CCCCCCCCCCCCCCCCCC(=O)O,pubchem
ethenylbenzene,305.0,1,C=Cc1ccccc1,Saldana11
sulfur,480.15,1,[S],pubchem
tetradecane,373.15,1,CCCCCCCCCCCCCC,pubchem
oxolane,259.15,1,C1CCOC1,pubchem
toluene,277.0,1,Cc1ccccc1,Saldana11
"N,N-dipentylpentan-1-amine",375.15,1,CCCCCN(CCCCC)CCCCC,pubchem
"N,N-dibutylbutan-1-amine",358.15,1,CCCCN(CCCC)CCCC,pubchem
tributyl phosphate,419.15,1,CCCCOP(=O)(OCCCC)OCCCC,pubchem
tridecan-1-ol,394.15,1,CCCCCCCCCCCCCO,pubchem
"2,2,4-trimethylpentane",261.15,1,CC(C)CC(C)(C)C,pubchem
"2,4,4-trimethyl-2-pentene",272.0,1,CC(C)=CC(C)(C)C,carroll11
"1,3,5-trioxane",318.15,1,C1OCOCO1,pubchem
"N,N-dipropylpropan-1-amine",310.15,1,CCCN(CCC)CCC,pubchem
pentanal,285.15,1,CCCCC=O,pubchem
pentanoic acid,362.15,1,CCCCC(=O)O,pubchem
chloroethene,194.15,1,C=CCl,pubchem
"1,1-dichloroethene",263.15,1,C=C(Cl)Cl,pubchem
"1,3-xylene",298.0,1,Cc1cccc(C)c1,Saldana11
"1,4-dimethylbenzene",298.0,1,Cc1ccc(C)cc1,Saldana11