,compound,flashpoint,pure substance,smiles,source
7165,"2,6-dimethyl-1H-benzimidazole",459.764,1,Cc1ccc2nc(C)[nH]c2c1,le15
7166,"(2S)-2,6-diaminohexanoic acid",415.35,1,NCCCC[C@H](N)C(=O)O,le15
7167,DL-Lysine,415.366,1,NCCCCC(N)C(=O)O,le15
7168,"2-Propenoic acid, 2-(methylthio)ethyl ester (9CI)",360.85,1,C=CC(=O)OCCSC,le15
7169,"2-ethenyl-1,3,5-trimethylbenzene",344.95,1,C=Cc1c(C)cc(C)cc1C,le15
7170,"1-methyl-1,2,3,4-tetrahydronaphthalene",352.25,1,CC1CCCc2ccccc21,le15
7171,"6-methyl-1,2,3,4-tetrahydronaphthalene",365.45,1,Cc1ccc2c(c1)CCCC2,le15
7172,1-ethenyl-4-propan-2-ylbenzene,343.25,1,C=Cc1ccc(C(C)C)cc1,le15
7173,"2-methyl-1,2,3,4-tetrahydronaphthalene",352.85,1,CC1CCc2ccccc2C1,le15
7174,"1-ethyl-2,3-dihydro-1H-indene",348.65,1,CCC1CCc2ccccc21,le15
7175,"3,3-dimethyl-1,2-dihydroindene",336.75,1,CC1(C)CCc2ccccc21,le15
7176,pent-1-en-3-ylbenzene,333.75,1,C=CC(CC)c1ccccc1,le15
7177,"5-methyl-1,2,3,4-tetrahydronaphthalene",367.35,1,Cc1cccc2c1CCCC2,le15
7178,"1,3-Hexanediol, 2-ethyl-",402.55,1,CCCC(O)C(CC)CO,le15
7179,"2,5-dimethylhexane-2,5-diol",399.85,1,CC(C)(O)CCC(C)(C)O,le15
7180,"Peroxide, bis(1,1-dimethylethyl)",302.85,1,CC(C)(C)OOC(C)(C)C,le15
7181,"Ethanol, 2-(hexyloxy)-",372.05,1,CCCCCCOCCO,le15
7182,"Ethanol, 2-(2-ethylbutoxy)-",331.25,1,CCC(CC)COCCO,le15
7183,Ditertbutylperoxide,285.0,1,CC(C)(C)OOC(C)(C)C,le15
7184,1-amino-3-(diethylamino)propan-2-ol,361.85,1,CCN(CC)CC(O)CN,le15
7185,"1,2-Ethanediamine, N,N'-bis(2-aminoethyl)-",422.15,1,NCCNCCNCCN,le15
7186,1-fluorononane,358.45,1,CCCCCCCCCF,le15
7187,"Diethylenetriamine, 4-(2-aminoethyl)- (6CI,7CI,8CI)",367.65,1,NCCN(CCN)CCN,le15
7188,"Propionic acid, 3-(trimethylsilyl)- (8CI)",362.15,1,C[Si](C)(C)CCC(=O)O,le15
7189,"Disulfide, di-2-propenyl",315.55,1,C=CCSSCC=C,le15
7190,tert-Butyl sulfide (8CI),299.85,1,CC(C)(C)SC(C)(C)C,le15
7191,"Butane, 1,1'-thiobis-",349.85,1,CCCCSCCCC,le15
7192,2-methyl-1-(2-methylpropylsulfanyl)propane,319.05,1,CC(C)CSCC(C)C,le15
7193,secButylsulfide,312.0,1,CCC(C)SC(C)CC,le15
7194,"Ethanesulfonyl fluoride, 2-chloro-",308.85,1,O=S(=O)(F)CCCl,le15
7195,cyclohexanecarbonyl chloride,354.45,1,O=C(Cl)C1CCCCC1,le15
7196,3-bromofuran,276.45,1,Brc1ccoc1,le15
7197,4-bromo-1H-pyrazole,381.15,1,Brc1cn[nH]c1,le15
7198,3-(trifluoromethyl)pyridine,304.25,1,FC(F)(F)c1cccnc1,le15
7199,"Benzenamine, 2,3,4-trifluoro-",344.95,1,Nc1ccc(F)c(F)c1F,le15
7200,"1H-Isoindole-1,3(2H)-dione",444.05,1,O=C1NC(=O)c2ccccc21,le15
7201,ethyl 2-nitropropanoate,362.55,1,CCOC(=O)C(C)[N+](=O)[O-],le15
7202,"1,2,3-Benzotriazin-4(3H)-one (8CI)",397.75,1,O=c1[nH]nnc2ccccc12,le15
7203,"Quinoline, 8-fluoro-",371.15,1,Fc1cccc2cccnc12,le15
7204,"Quinoline, 5-fluoro-",371.15,1,Fc1cccc2ncccc12,le15
7205,"Quinoline, 4-fluoro-",371.15,1,Fc1ccnc2ccccc12,le15
7206,"Quinoline, 3-fluoro-",371.15,1,Fc1cnc2ccccc2c1,le15
7207,"Quinoline, 7-fluoro-",371.15,1,Fc1ccc2cccnc2c1,le15
7208,2-Fluoroquinoline,373.25,1,Fc1ccc2ccccc2n1,le15
7209,"Quinoline, 6-fluoro-",371.15,1,Fc1ccc2ncccc2c1,le15
7210,"2,5-dimethyl-1,3-benzoxazole",364.15,1,Cc1ccc2oc(C)nc2c1,le15
7211,2-(4-methoxyphenyl)acetonitrile,385.15,1,COc1ccc(CC#N)cc1,le15
7212,"1H-Benzimidazol-2-amine, 1-methyl-",429.45,1,Cn1c(N)nc2ccccc21,le15
7213,hexyl nitrate,335.95,1,CCCCCCO[N+](=O)[O-],le15
7214,"1-methyl-3,4-dihydro-2H-quinoline",368.15,1,CN1CCCc2ccccc21,le15
7215,2-[(E)-pent-3-enyl]pyridine,355.95,1,C/C=C/CCc1ccccn1,le15
7216,"1,1-diethoxy-N,N-dimethylmethanamine",295.35,1,CCOC(OCC)N(C)C,le15
7217,"Ethanol, 2-((2-((2-aminoethyl)amino)ethyl)amino)-",379.25,1,NCCNCCNCCO,le15
7218,"Acetaldehyde, 2,2,2-trichloro-",288.05,1,O=CC(Cl)(Cl)Cl,le15
7219,"Propane, 1,1,2-trichloro-",317.45,1,CC(Cl)C(Cl)Cl,le15
7220,"Propane, 1,2,2-trichloro-",317.25,1,CC(Cl)(Cl)CCl,le15
7221,"Propane, 1,2,3-trichloro-",347.15,1,ClCC(Cl)CCl,le15
7222,"1,1,3-trichloropropane",332.85,1,ClCCC(Cl)Cl,le15
7223,"Pyridine, 2,3-dichloro-",360.65,1,Clc1cccnc1Cl,le15
7224,"Pyridine, 2,6-dichloro-",370.65,1,Clc1cccc(Cl)n1,le15
7225,"Butanenitrile, 4-bromo-",377.05,1,N#CCCCBr,le15
7226,"2-Butenedioic acid, 2,3-dihydroxy-, (E)- (9CI)",475.36300000000006,1,O=C(O)/C(O)=C(\O)C(=O)O,le15
7227,PhthalicAnhydride,425.0,1,O=C1OC(=O)c2ccccc21,le15
7228,"Benzonitrile, 3-nitro-",383.05,1,N#Cc1cccc([N+](=O)[O-])c1,le15
7229,"Benzonitrile, 4-nitro-",413.05,1,N#Cc1ccc([N+](=O)[O-])cc1,le15
7230,"Benzonitrile, 2-nitro- (9CI)",410.75,1,N#Cc1ccccc1[N+](=O)[O-],le15
7231,"2-Propenoic acid, 3-phenyl-, (2E)-",462.65,1,O=C(O)/C=C/c1ccccc1,le15
7232,"4H-1-Benzopyran-4-one, 2,3-dihydro-",401.534,1,O=C1CCOc2ccccc21,le15
7233,"1,2-Propanedione, 1-phenyl-",357.15,1,CC(=O)C(=O)c1ccccc1,le15
7234,"2H-1-Benzopyran-2-one, 3,4-dihydro-",381.55,1,O=C1CCc2ccccc2O1,le15
7235,"3-Pyridinecarbonitrile, 1,2-dihydro-4,6-dimethyl-2-oxo-",429.95,1,Cc1cc(C)c(C#N)c(=O)[nH]1,le15
7236,"Indoline, 1-nitroso-",409.05,1,O=NN1CCc2ccccc21,le15
7237,"2-Butanone, 3-ethoxy-1,1-dihydroxy-",372.65,1,CCOC(C)C(=O)C(O)O,le15
7238,"Hydratropaldehyde, p-methyl- (6CI,7CI,8CI)",374.15,1,Cc1ccc(C(C)C=O)cc1,le15
7239,"Benzene, 1-methoxy-4-(2-propenyl)-",354.15,1,C=CCc1ccc(OC)cc1,le15
7240,"2,4,6-trimethylbenzaldehyde",378.75,1,Cc1cc(C)c(C=O)c(C)c1,le15
7241,"1-Naphthalenol, 1,2,3,4-tetrahydro-",373.05,1,OC1CCCc2ccccc21,le15
7242,"2-Naphthalenol, 1,2,3,4-tetrahydro- (9CI)",371.55,1,OC1CCc2ccccc2C1,le15
7243,2-methyl-1-phenylpropan-1-one,352.45,1,CC(C)C(=O)c1ccccc1,le15
7244,1-(4-ethylphenyl)ethanone,367.25,1,CCc1ccc(C(C)=O)cc1,le15
7245,1-phenylbutan-2-one,363.75,1,CCC(=O)Cc1ccccc1,le15
7246,"5,6,7,8-tetrahydronaphthalen-2-ol",404.95,1,Oc1ccc2c(c1)CCCC2,le15
7247,"Benzene, (3,4-epoxybutyl)-",358.65,1,c1ccc(CCC2CO2)cc1,le15
7248,"2-Propen-1-ol, 2-methyl-3-phenyl-",395.65,1,CC(=Cc1ccccc1)CO,le15
7249,"2-Butanone, 4-phenyl-",371.15,1,CC(=O)CCc1ccccc1,le15
7250,3-(4-methylphenyl)propanal,372.55,1,Cc1ccc(CCC=O)cc1,le15
7251,1-(3-methylphenyl)propan-1-one,371.25,1,CCC(=O)c1cccc(C)c1,le15
7252,"Benzene, 1-methoxy-4-(1-propenyl)-",361.55,1,CC=Cc1ccc(OC)cc1,le15
7253,"Benzaldehyde, 4-(1-methylethyl)-",366.45,1,CC(C)c1ccc(C=O)cc1,le15
7254,"5,6,7,8-tetrahydronaphthalen-1-ol",395.75,1,Oc1cccc2c1CCCC2,le15
7255,"1-(2,5-dimethylphenyl)ethanone",361.95,1,CC(=O)c1cc(C)ccc1C,le15
7256,"Benzene, 1-methoxy-4-(1-propenyl)-, (E)-",361.55,1,C/C=C/c1ccc(OC)cc1,le15
7257,4-methyl-2-prop-2-enylphenol,374.85,1,C=CCc1cc(C)ccc1O,le15
7258,1phenyl1butanone,361.0,1,CCCC(=O)c1ccccc1,le15
7259,Anethole,363.0,1,CC=Cc1ccc(OC)cc1,le15
7260,"Ethane, 1,1',1''-(methylidynetris(oxy))tris-",303.15,1,CCOC(OCC)OCC,le15
7261,"Ether, 2-ethoxyethyl 2-methoxyethyl",326.95,1,CCOCCOCCOC,le15
7262,"4-Thiazolidinone, 3-amino-2-thioxo-",389.15,1,NN1C(=O)CSC1=S,le15
7263,"N,N-dimethyl-N'-phenylmethanimidamide",359.85,1,CN(C)C=Nc1ccccc1,le15
7264,"Ethanol, 2-(2-(1-methylethoxy)ethoxyl)-",354.05,1,CC(C)OCCOCCO,le15
7265,Triethoxymethane,303.0,1,CCOC(OCC)OCC,le15
7266,2-methyl-1-benzothiophene,345.55,1,Cc1cc2ccccc2s1,le15
7267,"Sulfide, phenyl 2-propynyl (6CI,7CI,8CI)",349.85,1,C#CCSc1ccccc1,le15
7268,"1-Octanol, 8-fluoro-",378.95,1,OCCCCCCCCF,le15
7269,"Thiophene, tetrahydro-2,4-dimethyl-, 1,1-dioxide",418.75,1,CC1CC(C)S(=O)(=O)C1,le15
7270,"1,2,3,4,5-pentamethylbenzene",364.25,1,Cc1cc(C)c(C)c(C)c1C,le15
7271,1-tert-butyl-3-methylbenzene,333.65,1,Cc1cccc(C(C)(C)C)c1,le15
7272,3-methylbutylbenzene,338.15,1,CC(C)CCc1ccccc1,le15
7273,2-methylbutan-2-ylbenzene,332.45,1,CCC(C)(C)c1ccccc1,le15
7274,"1,3-diethyl-5-methylbenzene",342.95,1,CCc1cc(C)cc(CC)c1,le15
7275,pentan-2-ylbenzene,333.75,1,CCCC(C)c1ccccc1,le15
7276,2-methylbutylbenzene,337.15,1,CCC(C)Cc1ccccc1,le15
7277,1-ethyl-4-propan-2-ylbenzene,338.85,1,CCc1ccc(C(C)C)cc1,le15
7278,"2,4-dimethyl-1-propan-2-ylbenzene",340.25,1,Cc1ccc(C(C)C)c(C)c1,le15
7279,1-ethyl-3-propan-2-ylbenzene,335.95,1,CCc1cccc(C(C)C)c1,le15
7280,1-methyl-4-(2-methylpropyl)benzene,340.45,1,Cc1ccc(CC(C)C)cc1,le15
7281,"1-ethyl-2,4,5-trimethylbenzene",348.75,1,CCc1cc(C)c(C)cc1C,le15
7282,pentan-2-ylbenzene,333.75,1,CCCC(C)c1ccccc1,le15
7283,1-methyl-2-(2-methylpropyl)benzene,341.75,1,Cc1ccccc1CC(C)C,le15
7284,"Benzene, 1-methyl-4-(1,1-dimethylethyl)- (9CI)",327.55,1,Cc1ccc(C(C)(C)C)cc1,le15
7285,3-methylbutan-2-ylbenzene,330.05,1,CC(C)C(C)c1ccccc1,le15
7286,"Disulfide, 2-propenyl propyl",327.55,1,C=CCSSCCC,le15
7287,"2-Propenoic acid, 2-methyl-, 2-chloroethyl ester",348.45,1,C=C(C)C(=O)OCCCl,le15
7288,Heptanoyl chloride,330.15,1,CCCCCCC(=O)Cl,le15
7289,"Heptane, 1-chloro-5-methyl-",325.65,1,CCC(C)CCCCCl,le15
7290,"Heptane, 3-(chloromethyl)-",333.15,1,CCCCC(CC)CCl,le15
7291,"Pyridazine, 3,6-dichloro-",421.05,1,Clc1ccc(Cl)nn1,le15
7292,"Methanesulfonyl chloride, chloro-",346.55,1,O=S(=O)(Cl)CCl,le15
7293,bromocyclopentane,308.15,1,BrC1CCCC1,le15
7294,5-bromopent-1-ene,304.15,1,C=CCCCBr,le15
7295,"2,2,3,3,3-pentafluoropropan-1-amine",322.65,1,NCC(F)(F)C(F)(F)F,le15
7296,"Benzene, 1-ethenyl-4-nitro- (9CI)",358.45,1,C=Cc1ccc([N+](=O)[O-])cc1,le15
7297,"Benzene, (2-nitroethenyl)-",390.65,1,O=[N+]([O-])C=Cc1ccccc1,le15
7298,4-Hydroxy-3-methoxybenzonitrile,403.25,1,COc1cc(C#N)ccc1O,le15
7299,"Adenine, N-methyl- (8CI)",525.05,1,CNc1ncnc2nc[nH]c12,le15
7300,"Adenine, 9-methyl- (8CI)",460.35699999999997,1,Cn1cnc2c(N)ncnc21,le15
7301,"Acetamide, N-methyl-N-phenyl-",366.35,1,CC(=O)N(C)c1ccccc1,le15
7302,"N,N-dimethylbenzamide",385.05,1,CN(C)C(=O)c1ccccc1,le15
7303,"Benzaldehyde, 4-(dimethylamino)-",376.45,1,CN(C)c1ccc(C=O)cc1,le15
7304,ethyl N-phenylmethanimidate,344.15,1,CCOC=Nc1ccccc1,le15
7305,"Ethanol, 2,2',2''-nitrilotris-",458.15,1,OCCN(CCO)CCO,le15
7306,1-isothiocyanato-4-methylbenzene,373.65,1,Cc1ccc(N=C=S)cc1,le15
7307,"Benzene, (isothiocyanatomethyl)-",373.55,1,S=C=NCc1ccccc1,le15
7308,"Benzothiazole, 2-methyl-",375.15,1,Cc1nc2ccccc2s1,le15
7309,Methionine,412.55,1,CSCC[C@H](N)C(=O)O,le15
7310,"Methionine, L-",412.55,1,CSCC[C@H](N)C(=O)O,le15
7311,"L-Cysteine, S-ethyl- (9CI)",401.85,1,CCSC[C@H](N)C(=O)O,le15
7312,"Benzenamine, N,N-diethyl-",370.95,1,CCN(CC)c1ccccc1,le15
7313,N-benzylpropan-2-amine,360.15,1,CC(C)NCc1ccccc1,le15
7314,"Benzenamine, 4-butyl-",374.85,1,CCCCc1ccc(N)cc1,le15
7315,2-methyl-1-phenylpropan-2-amine,366.25,1,CC(C)(N)Cc1ccccc1,le15
7316,"Benzenamine, 2,6-diethyl-",396.45,1,CCc1cccc(CC)c1N,le15
7317,"Benzenamine, 4-(1,1-dimethylethyl)-",374.15,1,CC(C)(C)c1ccc(N)cc1,le15
7318,"Benzenamine, N-butyl-",380.15,1,CCCCNc1ccccc1,le15
7319,"Benzenemethanamine, N,N,alpha-trimethyl- (9CI)",337.55,1,CC(c1ccccc1)N(C)C,le15
7320,"2,6-Octadienenitrile, 3,7-dimethyl-, (2E)-",376.85,1,CC(C)=CCC/C(C)=C/C#N,le15
7321,2-tert-butylaniline,372.85,1,CC(C)(C)c1ccccc1N,le15
7322,4-phenylbutan-2-amine,370.95,1,CC(N)CCc1ccccc1,le15
7323,4-(2-methylpropyl)aniline,375.85,1,CC(C)Cc1ccc(N)cc1,le15
7324,"Benzenamine, 4-(1-methylpropyl)-",380.95,1,CCC(C)c1ccc(N)cc1,le15
7325,2-pentan-3-ylpyridine,324.45,1,CCC(CC)c1ccccn1,le15
7326,"1,2-Dithiolan-4-amine, N,N-dimethyl-",353.55,1,CN(C)C1CSSC1,le15
7327,"Ethanol, 2,2,2-trichloro-",361.15,1,OCC(Cl)(Cl)Cl,le15
7328,"Butanamide, 2-chloro-N-methyl-3-oxo-",398.75,1,CNC(=O)C(Cl)C(C)=O,le15
7329,"Acetamide, 2-chloro-N,N-diethyl-",350.15,1,CCN(CC)C(=O)CCl,le15
7330,"2,2,3,3,3-pentafluoropropan-1-ol",284.75,1,OCC(F)(F)C(F)(F)F,le15
7331,"1,2,4,5-tetrafluorobenzene",289.15,1,Fc1cc(F)c(F)cc1F,le15
7332,"1,2,3,4-tetrafluorobenzene",293.75,1,Fc1ccc(F)c(F)c1F,le15
7333,"1,2,3,5-tetrafluorobenzene",277.55,1,Fc1cc(F)c(F)c(F)c1,le15
7334,"(2R,3R)-2,3-dihydroxybutanedioic acid",482.55,1,O=C(O)[C@H](O)[C@@H](O)C(=O)O,le15
7335,"Benzoic acid, 2-formyl-",435.75,1,O=Cc1ccccc1C(=O)O,le15
7336,"1,3-Benzodioxole-5-carboxaldehyde",376.75,1,O=Cc1ccc2c(c1)OCO2,le15
7337,4-formylbenzoic acid,442.35,1,O=Cc1ccc(C(=O)O)cc1,le15
7338,L-Arabinopyranose,428.45,1,OC1OC[C@H](O)[C@H](O)[C@H]1O,le15
7339,"Purine-2,6-diyldiamine",720.965,1,Nc1nc(N)c2[nH]cnc2n1,le15
7340,methyl 2-methylbenzoate,355.35,1,COC(=O)c1ccccc1C,le15
7341,methyl 3-methylbenzoate,368.75,1,COC(=O)c1cccc(C)c1,le15
7342,"Benzoic acid, 4-methyl-, methyl ester",363.15,1,COC(=O)c1ccc(C)cc1,le15
7343,"Acetic acid, phenyl-, methyl ester",367.05,1,COC(=O)Cc1ccccc1,le15
7344,"Formic acid, 2-phenylethyl ester",392.25,1,O=COCCc1ccccc1,le15
7345,(3-methylphenyl) acetate,358.35,1,CC(=O)Oc1cccc(C)c1,le15
7346,"Acetic acid, phenylmethyl ester",375.35,1,CC(=O)OCc1ccccc1,le15
7347,"Acetic acid, 4-methylphenyl ester",363.15,1,CC(=O)Oc1ccc(C)cc1,le15
7348,Hydrocinnamic acid (8CI),443.195,1,O=C(O)CCc1ccccc1,le15
7349,1-(3-methoxyphenyl)ethanone,364.35,1,COc1cccc(C(C)=O)c1,le15
7350,"2,4-dimethylbenzoic acid",404.45,1,Cc1ccc(C(=O)O)c(C)c1,le15
7351,2-ethoxybenzaldehyde,380.15,1,CCOc1ccccc1C=O,le15
7352,1-phenoxypropan-2-one,358.15,1,CC(=O)COc1ccccc1,le15
7353,(4-methylphenyl) acetate,446.65,1,CC(=O)Oc1ccc(C)cc1,le15
7354,"2,6-dimethylbenzoic acid",399.25,1,Cc1cccc(C)c1C(=O)O,le15
7355,"2,5-Cyclohexadiene-1,4-dione, 2,3,5-trimethyl-",350.45,1,CC1=CC(=O)C(C)=C(C)C1=O,le15
7356,"1,2-Benzenediol, 4-(2-propenyl)-",414.85,1,C=CCc1ccc(O)c(O)c1,le15
7357,1-(2-hydroxy-5-methylphenyl)ethanone,372.95,1,CC(=O)c1cc(C)ccc1O,le15
7358,2-methoxy-1-phenylethanone,368.05,1,COCC(=O)c1ccccc1,le15
7359,2-(4-methoxyphenyl)acetaldehyde,381.65,1,COc1ccc(CC=O)cc1,le15
7360,"Benzaldehyde, 4-ethoxy-",348.15,1,CCOc1ccc(C=O)cc1,le15
7361,3-ethoxybenzaldehyde,379.75,1,CCOc1cccc(C=O)c1,le15
7362,"Propane, 1,2-epoxy-3-phenoxy-",367.907,1,c1ccc(OCC2CO2)cc1,le15
7363,2-phenylpropanoic acid,421.15,1,CC(C(=O)O)c1ccccc1,le15
7364,(2-methylphenyl) acetate,357.15,1,CC(=O)Oc1ccccc1C,le15
7365,"Acetic acid, 2-phenylhydrazide",360.95,1,CC(=O)NNc1ccccc1,le15
7366,"Benzenamine, N,N-dimethyl-4-nitroso-",383.45,1,CN(C)c1ccc(N=O)cc1,le15
7367,"Urea, (phenylmethyl)- (9CI)",398.05,1,NC(=O)NCc1ccccc1,le15
7368,"Acetic acid, phenyl-, hydrazide (8CI)",447.65,1,NNC(=O)Cc1ccccc1,le15
7369,N-Methyl-N-nitroso-benzenemethanamine,407.25,1,CN(Cc1ccccc1)N=O,le15
7370,"Urea, N-methyl-N'-phenyl- (9CI)",372.05,1,CNC(=O)Nc1ccccc1,le15
7371,"Ethanol, 2,2'-(1,2-ethanediylbis(oxy))bis-",438.75,1,OCCOCCOCCO,le15
7372,"Benzothiazole, 2-amino-",412.95,1,Nc1nc2ccccc2s1,le15
7373,"Benzothiazole, 6-amino-",422.35,1,Nc1ccc2ncsc2c1,le15
7374,"2H-Benzimidazole-2-thione, 1,3-dihydro-",390.65,1,S=c1[nH]c2ccccc2[nH]1,le15
7375,"Butanoic acid, 2-hydroxy-4-(methylthio)-",418.35,1,CSCCC(O)C(=O)O,le15
7376,"Propionic acid, 2-methyl-2-(methylsulfinyl)-",441.35,1,CS(=O)C(C)(C)C(=O)O,le15
7377,"Phenol, 2-(1,1-dimethylethyl)-",383.15,1,CC(C)(C)c1ccccc1O,le15
7378,"Phenol, 2-(1-methylpropyl)-",385.15,1,CCC(C)c1ccccc1O,le15
7379,"Phenol, 5-methyl-2-(1-methylethyl)-",374.15,1,Cc1ccc(C(C)C)c(O)c1,le15
7380,"Phenol, 4-(1,1-dimethylethyl)-",384.05,1,CC(C)(C)c1ccc(O)cc1,le15
7381,"2-Cyclohexen-1-one, 2-methyl-5-(1-methylethenyl)-",362.05,1,C=C(C)C1CC=C(C)C(=O)C1,le15
7382,"Phenol, 4-(1-methylpropyl)-",388.75,1,CCC(C)c1ccc(O)cc1,le15
7383,"Phenethyl alcohol, alpha,alpha-dimethyl-",354.25,1,CC(C)(O)Cc1ccccc1,le15
7384,"Benzene, 1-methoxy-4-propyl-",363.15,1,CCCc1ccc(OC)cc1,le15
7385,"2,3,4,5-tetramethylphenol",389.75,1,Cc1cc(O)c(C)c(C)c1C,le15
7386,"p-Mentha-3,8-diene, 3,9-epoxy- (8CI)",348.65,1,Cc1coc2c1CCC(C)C2,le15
7387,"Phenol, 2-methyl-5-(1-methylethyl)-",379.85,1,Cc1ccc(C(C)C)cc1O,le15
7388,"2,3,5,6-tetramethylphenol",384.75,1,Cc1cc(C)c(C)c(O)c1C,le15
7389,"Benzenemethanol, 4-(1-methylethyl)-",379.15,1,CC(C)c1ccc(CO)cc1,le15
7390,3-(4-methylpent-3-enyl)furan,329.05,1,CC(C)=CCCc1ccoc1,le15
7391,"Bicyclo(3.1.1)hept-2-ene-2-carboxaldehyde, 6,6-dimethyl-",352.05,1,CC1(C)C2CC=C(C=O)C1C2,le15
7392,"Phenol, 3-(1,1-dimethylethyl)-",382.65,1,CC(C)(C)c1cccc(O)c1,le15
7393,"Tricyclo(3.3.1.13,7)decanone (9CI)",368.85,1,O=C1C2CC3CC(C2)CC1C3,le15
7394,n-Butyl phenyl ether,355.15,1,CCCCOc1ccccc1,le15
7395,"(1S,5S)-2,6,6-trimethylbicyclo[3.1.1]hept-2-en-4-one",358.15,1,CC1=CC(=O)[C@H]2C[C@@H]1C2(C)C,le15
7396,"Benzenemethanol, alpha-ethyl-alpha-methyl-",363.75,1,CCC(C)(O)c1ccccc1,le15
7397,1-ethoxy-4-ethylbenzene,355.45,1,CCOc1ccc(CC)cc1,le15
7398,2-methyl-4-propan-2-ylphenol,377.25,1,Cc1cc(C(C)C)ccc1O,le15
7399,4-prop-1-en-2-ylcyclohexene-1-carbaldehyde,368.75,1,C=C(C)C1CC=C(C=O)CC1,le15
7400,"2-Cyclohexen-1-one, 2-methyl-5-(1-methylethenyl)-, (5S)-",370.15,1,C=C(C)[C@H]1CC=C(C)C(=O)C1,le15
7401,"Benzenepropanol, gamma-methyl-",375.25,1,CC(CCO)c1ccccc1,le15
7402,3-methyl-4-propan-2-ylphenol,377.25,1,Cc1cc(O)ccc1C(C)C,le15
7403,2-methyl-6-propan-2-ylphenol,368.75,1,Cc1cccc(C(C)C)c1O,le15
7404,"2,3,4,6-tetramethylphenol",383.95,1,Cc1cc(C)c(O)c(C)c1C,le15
7405,"4,7-Methano-1H-inden-6-ol, 3a,4,5,6,7,7a-hexahydro-",363.35,1,OC1CC2CC1C1CC=CC21,le15
7406,4-methyl-2-propan-2-ylphenol,371.25,1,Cc1ccc(O)c(C(C)C)c1,le15
7407,"2-Cyclohexen-1-one, 2-methyl-5-(1-methylethenyl)-, (R)- (9CI)",361.15,1,C=C(C)[C@@H]1CC=C(C)C(=O)C1,le15
7408,butan-2-yloxybenzene,344.75,1,CCC(C)Oc1ccccc1,le15
7409,"Benzenemethanol, alpha,alpha,4-trimethyl-",375.85,1,Cc1ccc(C(C)(C)O)cc1,le15
7410,4-butylphenol,394.65,1,CCCCc1ccc(O)cc1,le15
7411,4-phenylbutan-2-ol,383.15,1,CC(O)CCc1ccccc1,le15
7412,3-methyl-5-propan-2-ylphenol,381.45,1,Cc1cc(O)cc(C(C)C)c1,le15
7413,"1-Butanol, 4-phenyl- (8CI)",387.45,1,OCCCCc1ccccc1,le15
7414,3-butylphenol,395.85,1,CCCCc1cccc(O)c1,le15
7415,"2,6,6-trimethylbicyclo[3.1.1]hept-2-en-4-one",358.15,1,CC1=CC(=O)C2CC1C2(C)C,le15
7416,2-methyl-5-propan-2-ylbicyclo[3.1.0]hex-2-en-4-one,358.35,1,CC1=CC(=O)C2(C(C)C)CC12,le15
7417,Carvacrol,379.0,1,Cc1ccc(C(C)C)cc1O,le15
7418,"Hydrazine, (1-methyl-2-phenylethyl)- (9CI)",421.15,1,CC(Cc1ccccc1)NN,le15
7419,"2,4-Mesitylenediamine (7CI,8CI)",431.55,1,Cc1cc(C)c(N)c(C)c1N,le15
7420,(Allylthio)benzene,351.968,1,C=CCSc1ccccc1,le15
7421,Propyl sulfone (8CI),398.95,1,CCCS(=O)(=O)CCC,le15
7422,"3H-1,2,4-Dithiazole-3-thione, 5-amino- (8CI)(9CI)",397.15,1,Nc1nc(=S)ss1,le15
7423,ethyl(trimethoxy)silane,297.35,1,CC[Si](OC)(OC)OC,le15
7424,trimethyl(phenyl)silane,317.15,1,C[Si](C)(C)c1ccccc1,le15
7425,Propyl disulfide (8CI),339.25,1,CCCSSCCC,le15
7426,"Hexane-1,6-dithiol",363.75,1,SCCCCCCS,le15
7427,"1,2-Bis(ethylthio)ethane",354.35,1,CCSCCSCC,le15
7428,Isopropyl disulfide (8CI),291.45,1,CC(C)SSC(C)C,le15
7429,"Acetic acid, chloro-, 1,1-dimethylethyl ester",314.55,1,CC(C)(C)OC(=O)CCl,le15
7430,butyl 2-chloroacetate,353.05,1,CCCCOC(=O)CCl,le15
7431,"Butyric acid, 4-chloro-, ethyl ester (8CI)",324.85,1,CCOC(=O)CCCCl,le15
7432,"Hexanoic acid, 6-chloro-",380.75,1,O=C(O)CCCCCCl,le15
7433,"1,3-Dioxolane, 4-(chloromethyl)-2,2-dimethyl-",327.65,1,CC1(C)OCC(CCl)O1,le15
7434,propan-2-yl 2-chloropropanoate,317.85,1,CC(C)OC(=O)C(C)Cl,le15
7435,butyl-chloro-dimethylsilane,303.25,1,CCCC[Si](C)(C)Cl,le15
7436,3-chloropropyl(trimethyl)silane,303.65,1,C[Si](C)(C)CCCCl,le15
7437,2-bromopentane,293.75,1,CCCC(C)Br,le15
7438,(2S)-1-bromo-2-methylbutane,295.35,1,CC[C@H](C)CBr,le15
7439,3-bromopentane,304.45,1,CCC(Br)CC,le15
7440,1-bromo-3-methylbutane,305.35,1,CC(C)CCBr,le15
7441,"Propane, 1-bromo-2,2-dimethyl-",279.85,1,CC(C)(C)CBr,le15
7442,"2,3,5,6-tetrafluoropyridine",303.75,1,Fc1cc(F)c(F)nc1F,le15
7443,"Benzaldehyde, 3-nitro-",401.75,1,O=Cc1cccc([N+](=O)[O-])c1,le15
7444,"Benzaldehyde, 4-nitro-",428.35,1,O=Cc1ccc([N+](=O)[O-])cc1,le15
7445,"Benzaldehyde, 2-nitro-",417.15,1,O=Cc1ccccc1[N+](=O)[O-],le15
7446,"1,3-Propanediol, 2-(hydroxymethyl)-2-nitro-",482.45,1,O=[N+]([O-])C(CO)(CO)CO,le15
7447,"Benzene, 1,3-dimethyl-2-nitro-",360.95,1,Cc1cccc(C)c1[N+](=O)[O-],le15
7448,"Benzene, 1,2-dimethyl-3-nitro-",380.95,1,Cc1cccc([N+](=O)[O-])c1C,le15
7449,"Benzene, 1,4-dimethyl-2-nitro-",373.15,1,Cc1ccc(C)c([N+](=O)[O-])c1,le15
7450,"m-Xylene, 4-nitro- (8CI)",394.15,1,Cc1ccc([N+](=O)[O-])c(C)c1,le15
7451,"o-Xylene, 4-nitro- (8CI)",394.65,1,Cc1ccc([N+](=O)[O-])cc1C,le15
7452,"Benzene, 1-ethyl-4-nitro-",380.85,1,CCc1ccc([N+](=O)[O-])cc1,le15
7453,"Acetamide, N-(4-hydroxyphenyl)-",461.55,1,CC(=O)Nc1ccc(O)cc1,le15
7454,"Acetamide, N-(3-hydroxyphenyl)-",458.35,1,CC(=O)Nc1cccc(O)c1,le15
7455,"Acetamide, 2-phenoxy-",474.05,1,NC(=O)COc1ccccc1,le15
7456,"Acetic acid, (p-aminophenyl)-",435.05,1,Nc1ccc(CC(=O)O)cc1,le15
7457,ethyl pyridine-4-carboxylate,362.15,1,CCOC(=O)c1ccncc1,le15