compound,flashpoint,pure substance,smiles,source
"(1,1'-Biphenyl)-3-amine (9CI)",450.15,1.0,Nc1cccc(-c2ccccc2)c1,le15
ethyl 2-cyano-2-ethylbutanoate,363.35,1.0,CCOC(=O)C(C#N)(CC)CC,le15
"[(1R,9aR)-2,3,4,6,7,8,9,9a-octahydro-1H-quinolizin-1-yl]methanol",372.25,1.0,OC[C@@H]1CCCN2CCCC[C@H]12,le15
"Morpholine, 4-cyclohexyl-",342.75,1.0,C1CCC(N2CCOCC2)CC1,le15
"2(3H)-Benzoxazolone, 5-chloro-",430.65,1.0,O=c1[nH]c2cc(Cl)ccc2o1,le15
N-methyl-N-phenylcarbamoyl chloride,396.25,1.0,CN(C(=O)Cl)c1ccccc1,le15
1-chloro-4-isothiocyanatobenzene,378.25,1.0,S=C=Nc1ccc(Cl)cc1,le15
1-chloro-3-isothiocyanatobenzene,390.55,1.0,S=C=Nc1cccc(Cl)c1,le15
"2-chloro-1,3-benzothiazole",376.95,1.0,Clc1nc2ccccc2s1,le15
acetyl iodide,290.75,1.0,CC(=O)I,le15
"Propane, 2-iodo-",315.15,1.0,CC(C)I,le15
"Propane, 1-iodo-",307.15,1.0,CCCI,le15
"Benzoic acid, 3,4,5-trihydroxy-",544.15,1.0,O=C(O)c1cc(O)c(O)c(O)c1,le15
"2,5-Hexadienoic acid, 3-methoxy-5-methyl-4-oxo-",386.65,1.0,C=C(C)C(=O)C(=CC(=O)O)OC,le15
"(1,1'-Biphenyl)-2-ol",396.15,1.0,Oc1ccccc1-c1ccccc1,le15
"(1,1'-Biphenyl)-4-ol",420.35,1.0,Oc1ccc(-c2ccccc2)cc1,le15
"Ethanone, 1-(2-naphthalenyl)-",441.15,1.0,CC(=O)c1ccc2ccccc2c1,le15
"Methacrylic acid, tetrahydrofurfuryl ester (8CI)",364.15,1.0,C=C(C)C(=O)OCC1CCCO1,le15
2-(diethoxymethyl)furan,337.15,1.0,CCOC(OCC)c1ccco1,le15
Cyclo(L-leucylglycyl),480.55,1.0,CC(C)C[C@@H]1NC(=O)CNC1=O,le15
(Ethylsulphonyl)benzene,448.25,1.0,CCS(=O)(=O)c1ccccc1,le15
"4(1H)-Pyrimidinone, 2,3-dihydro-6-propyl-2-thioxo-",441.75,1.0,CCCc1cc(=O)[nH]c(=S)[nH]1,le15
1-propylnaphthalene,392.05,1.0,CCCc1cccc2ccccc12,le15
"Naphthalene, 2-(1-methylethyl)-",382.85,1.0,CC(C)c1ccc2ccccc2c1,le15
"Naphthalene, 1,6,7-trimethyl- (8CI)(9CI)",400.95,1.0,Cc1cc2cccc(C)c2cc1C,le15
"Hexanoic acid, 2-ethyl-, ethenyl ester",338.15,1.0,C=COC(=O)C(CC)CCCC,le15
"Methacrylic acid, hexyl ester (8CI)",345.25,1.0,C=C(C)C(=O)OCCCCCC,le15
"Heptanoic acid, 2-propenyl ester",355.35,1.0,C=CCOC(=O)CCCCCC,le15
"6-Octenoic acid, 3,7-dimethyl-",436.35,1.0,CC(C)=CCCC(C)CC(=O)O,le15
"2H-Pyran-2-one, tetrahydro-6-pentyl-",379.25,1.0,CCCCCC1CCCC(=O)O1,le15
"2(3H)-Furanone, 5-hexyldihydro-",419.15,1.0,CCCCCCC1CCC(=O)O1,le15
cyclohexyl 2-methylpropanoate,348.04999999999984,1.0,CC(C)C(=O)OC1CCCCC1,le15
"Butanoic acid, cyclohexyl ester",351.15,1.0,CCCC(=O)OC1CCCCC1,le15
"1-Octen-3-ol, acetate",347.04999999999984,1.0,C=CC(CCCCC)OC(C)=O,le15
"2-Propenoic acid, heptyl ester",341.0499999999999,1.0,C=CC(=O)OCCCCCCC,le15
10-Undecen-1-ol,366.45,1.0,C=CCCCCCCCCCO,le15
1-Undecanal,369.25,1.0,CCCCCCCCCCC=O,le15
undecan-3-one,346.35,1.0,CCCCCCCCC(=O)CC,le15
undecan-5-one,345.95,1.0,CCCCCCC(=O)CCCC,le15
"Furan, tetrahydro-2-heptyl-",347.04999999999984,1.0,CCCCCCCC1CCCO1,le15
2undecanone,362.0,1.0,CCCCCCCCCC(C)=O,le15
6undecanone,361.0,1.0,CCCCCC(=O)CCCCC,le15
"Cyclohexanemethanamine, 4-amino-alpha,alpha,4-trimethyl-",366.45,1.0,CC1(N)CCC(C(C)(C)N)CC1,le15
"Cyclohexanemethanamine, 5-amino-1,3,3-trimethyl-",371.85,1.0,CC1(C)CC(N)CC(C)(CN)C1,le15
3-methylundecane,334.95,1.0,CCCCCCCCC(C)CC,le15
"Heptane, 2,2,4,6,6-pentamethyl-",331.5499999999999,1.0,CC(CC(C)(C)C)CC(C)(C)C,le15
trimethyl(2-trimethylsilylethynyl)silane,290.25,1.0,C[Si](C)(C)C#C[Si](C)(C)C,le15
4-methoxybenzoyl chloride,360.95,1.0,COc1ccc(C(=O)Cl)cc1,le15
"Benzoic acid, p-chloro-, methyl ester (8CI)",379.85,1.0,COC(=O)c1ccc(Cl)cc1,le15
"Benzeneacetic acid, 2-chloro- (9CI)",404.85,1.0,O=C(O)Cc1ccccc1Cl,le15
methyl 3-chlorobenzoate,377.15,1.0,COC(=O)c1cccc(Cl)c1,le15
"Acetophenone, 2-chloro-4'-hydroxy- (6CI,7CI)",430.85,1.0,O=C(CCl)c1ccc(O)cc1,le15
"Carbonochloridic acid, phenylmethyl ester",280.15,1.0,O=C(Cl)OCc1ccccc1,le15
"Acetic acid, (p-chlorophenyl)-",404.85,1.0,O=C(O)Cc1ccc(Cl)cc1,le15
"Urea, (p-chlorophenyl)- (8CI)",391.25,1.0,NC(=O)Nc1ccc(Cl)cc1,le15
3-chloropropoxybenzene,448.35,1.0,ClCCCOc1ccccc1,le15
(2-chloroacetyl) 2-chloroacetate,355.95,1.0,O=C(CCl)OC(=O)CCl,le15
"propan-2-yl 2,2-dichloroacetate",333.25,1.0,CC(C)OC(=O)C(Cl)Cl,le15
"Benzene, 1-bromo-2-methyl-",351.15,1.0,Cc1ccccc1Br,le15
"Benzene, (bromomethyl)-",359.81699999999995,1.0,BrCc1ccccc1,le15
"Benzene, 1-bromo-3-methyl-",333.15,1.0,Cc1cccc(Br)c1,le15
Benzylbromide,352.0,1.0,BrCc1ccccc1,le15
"Ether, bis(2-chloro-1-methylethyl)",309.5499999999999,1.0,CC(CCl)OC(C)CCl,le15
"alpha,alpha,alpha-Trifluoro-m-toluonitrile",345.35,1.0,N#Cc1cccc(C(F)(F)F)c1,le15
"alpha,alpha,alpha-Trifluoro-2-toluonitrile",363.15,1.0,N#Cc1ccccc1C(F)(F)F,le15
"2-Furancarboximidamide, N-hydroxy-5-nitro-",465.35,1.0,N=C(NO)c1ccc([N+](=O)[O-])o1,le15
4-Fluoro-2-(methyloxy)-1-nitrobenzene,375.65,1.0,COc1cc(F)ccc1[N+](=O)[O-],le15
"1H-Imidazole-1-ethanol, 2-methyl-5-nitro-",472.15,1.0,Cc1ncc([N+](=O)[O-])n1CCO,le15
"Benzenesulfonamide, 2-methyl-",326.65,1.0,Cc1ccccc1S(N)(=O)=O,le15
"1H-Carbazole, 2,3,4,9-tetrahydro- (9CI)",415.25,1.0,c1ccc2c3c([nH]c2c1)CCCC3,le15
"2,4,6-trimethylquinoline",389.05,1.0,Cc1ccc2nc(C)cc(C)c2c1,le15
"N,N-dimethylnaphthalen-2-amine",396.55,1.0,CN(C)c1ccc2ccccc2c1,le15
N-ethylnaphthalen-2-amine,430.15,1.0,CCNc1ccc2ccccc2c1,le15
"2-Propenoic acid, 2-(diethylamino)ethyl ester",347.04999999999984,1.0,C=CC(=O)OCCN(CC)CC,le15
"Pentanamide, N,N-diethyl-4-oxo- (9CI)",383.85,1.0,CCN(CC)C(=O)CCC(C)=O,le15
"3-(aminomethyl)-3,5,5-trimethylcyclohexan-1-ol",375.35,1.0,CC1(C)CC(O)CC(C)(CN)C1,le15
"Piperazine, 1-(2-(dimethylamino)ethyl)-4-methyl-",347.65,1.0,CN(C)CCN1CCN(C)CC1,le15
"4,5-dimethyl-2-(2-methylpropyl)-2,5-dihydro-1,3-thiazole",368.15,1.0,CC1=NC(CC(C)C)SC1C,le15
1-Undecanamine,365.35,1.0,CCCCCCCCCCCN,le15
2-bromopropanoyl chloride,324.15,1.0,CC(Br)C(=O)Cl,le15
1-bromo-4-chlorobutane,333.15,1.0,ClCCCCBr,le15
1-bromo-3-chloro-2-methylpropane,328.95,1.0,CC(CCl)CBr,le15
1-chloro-4-methyl-2-nitrobenzene,387.05,1.0,Cc1ccc(Cl)c([N+](=O)[O-])c1,le15
"Benzene, 1-(chloromethyl)-4-nitro-",403.85,1.0,O=[N+]([O-])c1ccc(CCl)cc1,le15
2-chloro-1-methyl-4-nitrobenzene,382.25,1.0,Cc1ccc([N+](=O)[O-])cc1Cl,le15
"Benzene, 1-(chloromethyl)-2-nitro- (9CI)",385.85,1.0,O=[N+]([O-])c1ccccc1CCl,le15
"Benzene, 1-(chloromethyl)-3-nitro-",401.85,1.0,O=[N+]([O-])c1cccc(CCl)c1,le15
1-chloro-2-methyl-4-nitrobenzene,383.75,1.0,Cc1cc([N+](=O)[O-])ccc1Cl,le15
"Benzene, 1-chloro-2-methyl-3-nitro-",398.15,1.0,Cc1c(Cl)cccc1[N+](=O)[O-],le15
"Toluene, 4-chloro-2-nitro- (8CI)",393.15,1.0,Cc1ccc(Cl)cc1[N+](=O)[O-],le15
"Pyrimidine, 2-chloro-4-(dimethylamino)-6-methyl-",403.05,1.0,Cc1cc(N(C)C)nc(Cl)n1,le15
"Ethanol, 2-iodo-",338.15,1.0,OCCI,le15
"Benzonitrile, 2,6-dichloro-",399.95,1.0,N#Cc1c(Cl)cccc1Cl,le15
"Benzenamine, 4-bromo-",363.55,1.0,Nc1ccc(Br)cc1,le15
"Aniline, m-bromo- (8CI)",374.35,1.0,Nc1cccc(Br)c1,le15
"Aniline, o-bromo- (8CI)",364.25,1.0,Nc1ccccc1Br,le15
"1,4-Naphthalenedione, 2-methyl-",386.95,1.0,CC1=CC(=O)c2ccccc2C1=O,le15
2-Naphthalenecarboxylic acid,424.45,1.0,O=C(O)c1ccc2ccccc2c1,le15
"1-Naphthalenecarboxaldehyde, 2-hydroxy-",407.45,1.0,O=Cc1c(O)ccc2ccccc12,le15
naphthalene-1-carboxylic acid,437.75,1.0,O=C(O)c1cccc2ccccc12,le15
ethyl 2-acetyl-3-oxobutanoate,358.15,1.0,CCOC(=O)C(C(C)=O)C(C)=O,le15
"1,2-Cyclohexanedicarboxylic acid, cis-",473.45,1.0,O=C(O)[C@H]1CCCC[C@H]1C(=O)O,le15
"cyclohexane-1,4-dicarboxylic acid",508.15,1.0,O=C(O)C1CCC(C(=O)O)CC1,le15
"2-Propene-1,1-diol, 2-methyl-, diacetate",356.45,1.0,C=C(C)C(OC(C)=O)OC(C)=O,le15
DiethylFumarate,364.0,1.0,CC/C(C(=O)[O-])=C(/CC)C(=O)[O-],le15
"1,1'-Biphenyl, 2-fluoro-",521.15,1.0,Fc1ccccc1-c1ccccc1,le15
"Benzenesulfonic acid, methyl ester",416.15,1.0,COS(=O)(=O)c1ccccc1,le15
"Benzenesulfonamide, 4-amino-",469.15,1.0,Nc1ccc(S(N)(=O)=O)cc1,le15
Ethyl 2-naphthyl ether,400.15,1.0,CCOc1ccc2ccccc2c1,le15
1-ethoxynaphthalene,382.55,1.0,CCOc1cccc2ccccc12,le15
"3,5-dimethyl-1-phenylpyrazole",391.75,1.0,Cc1cc(C)n(-c2ccccc2)n1,le15
ethyl 2-acetylpentanoate,355.54999999999984,1.0,CCCC(C(C)=O)C(=O)OCC,le15
"Pentanoic acid, 4-oxo-, butyl ester",364.15,1.0,CCCCOC(=O)CCC(C)=O,le15
2-methylpropyl 4-oxopentanoate,367.65,1.0,CC(=O)CCC(=O)OCC(C)C,le15
"Acrylic acid, 2-butoxyethyl ester (8CI)",468.15,1.0,C=CC(=O)OCCOCCCC,le15
ethyl 2-acetyl-3-methylbutanoate,352.04999999999984,1.0,CCOC(=O)C(C(C)=O)C(C)C,le15
"Acetic acid, 2-ethylhexyl ester",344.54999999999984,1.0,CCCCC(CC)COC(C)=O,le15
"Octanoic acid, ethyl ester",348.15,1.0,CCCCCCCC(=O)OCC,le15
"1-Octanal, 3,7-dimethyl-7-hydroxy-",376.95,1.0,CC(CC=O)CCCC(C)(C)O,le15
"Hexanoic acid, butyl ester",354.25,1.0,CCCCCC(=O)OCCCC,le15
"Nonanoic acid, methyl ester",357.54999999999984,1.0,CCCCCCCCC(=O)OC,le15
"Valeric acid, pentyl ester (8CI)",349.65,1.0,CCCCCOC(=O)CCCC,le15
heptyl propanoate,352.95,1.0,CCCCCCCOC(=O)CC,le15
"Propanoic acid, 2-methyl-, hexyl ester",346.45,1.0,CCCCCCOC(=O)C(C)C,le15
"p-Menth-8-yl hydroperoxide (7CI,8CI)",326.15,1.0,CC1CCC(C(C)(C)OO)CC1,le15
Decanoic acid,394.95,1.0,CCCCCCCCCC(=O)O,le15
4-(2-hydroxypropan-2-yl)-1-methylcyclohexan-1-ol,392.15,1.0,CC1(O)CCC(C(C)(C)O)CC1,le15
"Butanoic acid, 3-methyl-, 3-methylbutyl ester",339.85,1.0,CC(C)CCOC(=O)CC(C)C,le15
"Butanoic acid, hexyl ester",354.25,1.0,CCCCCCOC(=O)CCC,le15
"Nonylalcohol, formate (6CI)",360.65,1.0,CCCCCCCCCOC=O,le15
propyl heptanoate,349.85,1.0,CCCCCCC(=O)OCCC,le15
6-methylheptan-2-yl acetate,338.35,1.0,CC(=O)OC(C)CCCC(C)C,le15
"1,1,3,3-tetraethylurea",360.15,1.0,CCN(CC)C(=O)N(CC)CC,le15
Undecyl alcohol,386.15,1.0,CCCCCCCCCCCO,le15
"Ether, decyl methyl",346.04999999999984,1.0,CCCCCCCCCCOC,le15
undecan-6-ol,367.15,1.0,CCCCCC(O)CCCCC,le15
undecan-5-ol,367.15,1.0,CCCCCCC(O)CCCC,le15
2undecanol,380.0,1.0,CCCCCCCCCC(C)O,le15
"N,N'-ditert-butylethane-1,2-diamine",349.85,1.0,CC(C)(C)NCCNC(C)(C)C,le15
"Phosphorochloridic acid, diethyl ester",323.0499999999999,1.0,CCOP(=O)(Cl)OCC,le15
"Benzoic acid, 5-chloro-2-hydroxy-",420.75,1.0,O=C(O)c1cc(Cl)ccc1O,le15
"Benzenamine, 4-chloro-2-nitro-",413.65,1.0,Nc1ccc(Cl)cc1[N+](=O)[O-],le15
"Benzenamine, 2-chloro-4-nitro-",424.25,1.0,Nc1ccc([N+](=O)[O-])cc1Cl,le15
"Benzenamine, 4-chloro-3-nitro-",435.35,1.0,Nc1ccc(Cl)c([N+](=O)[O-])c1,le15
"Benzenamine, 5-chloro-2-nitro- (9CI)",422.55,1.0,Nc1cc(Cl)ccc1[N+](=O)[O-],le15
"Benzenamine, 2-chloro-5-nitro-",417.25,1.0,Nc1cc([N+](=O)[O-])ccc1Cl,le15
"1-chloro-3,5-dimethoxybenzene",365.85,1.0,COc1cc(Cl)cc(OC)c1,le15
"3-chloro-4,7,7-trimethylbicyclo[2.2.1]heptane",341.15,1.0,CC1(C)C2CCC1(C)C(Cl)C2,le15
"Phenol, 2-bromo-",315.15,1.0,Oc1ccccc1Br,le15
"Phenol, 4-bromo-",363.95,1.0,Oc1ccc(Br)cc1,le15
"Phenol, 3-bromo-",364.25,1.0,Oc1cccc(Br)c1,le15
5-Bromo-2-pyridylamine,366.55,1.0,Nc1ccc(Br)cn1,le15
"1,3-Propanediol, 2,2-bis(chloromethyl)-",429.45,1.0,OCC(CO)(CCl)CCl,le15
"Ethane, 1,1'-(methylenebis(oxy))bis(2-chloro-",350.04999999999984,1.0,ClCCOCOCCCl,le15
"Naphthalene, 1-nitro-",437.15,1.0,O=[N+]([O-])c1cccc2ccccc12,le15
8-Quinolinecarboxylic acid,460.65,1.0,O=C(O)c1cccc2cccnc12,le15
"2-Naphthalenol, 1-nitroso-",443.25,1.0,O=Nc1c(O)ccc2ccccc12,le15
"1H-Pyrrole-2,5-dione, 1-phenyl-",409.95,1.0,O=C1C=CC(=O)N1c1ccccc1,le15
"4-Amino-1,2-naphthoquinone",433.15,1.0,NC1=CC(=O)C(=O)c2ccccc21,le15
"Naphthalene, 2-nitro-",431.85,1.0,O=[N+]([O-])c1ccc2ccccc2c1,le15
8-Ethoxyquinoline,381.15,1.0,CCOc1cccc2cccnc12,le15
"1H-Pyrazole-5-amine, 3-methyl-1-phenyl-",428.35,1.0,Cc1cc(N)n(-c2ccccc2)n1,le15
"6-Quinoxalinamine, 2,3-dimethyl-",457.05,1.0,Cc1nc2ccc(N)cc2nc1C,le15
"1,3,3-trimethyl-2-methylideneindole",367.15,1.0,C=C1N(C)c2ccccc2C1(C)C,le15
"Quinoline, 1,2-dihydro-2,2,4-trimethyl-",388.15,1.0,CC1=CC(C)(C)Nc2ccccc21,le15
"Carbamic acid, 2-ethylhexyl ester",373.85,1.0,CCCCC(CC)COC(N)=O,le15
"Ethanol, 2-(dibutylamino)-",364.85,1.0,CCCCN(CCO)CCCC,le15
"1,2-Ethanediamine, N-(2-(dimethylamino)ethyl)-N,N',N'-trimethyl-",326.45,1.0,CN(C)CCN(C)CCN(C)C,le15
"Acetic acid, bromochloro-",356.85,1.0,O=C(O)C(Cl)Br,le15
"Phenol, 4-chloro-3-nitro-",413.65,1.0,O=[N+]([O-])c1cc(O)ccc1Cl,le15
"Phenol, 4-chloro-2-nitro-",373.55,1.0,O=[N+]([O-])c1cc(Cl)ccc1O,le15
"Phenol, 2-chloro-4-nitro-",402.75,1.0,O=[N+]([O-])c1ccc(O)c(Cl)c1,le15
"s-Triazine, 2-amino-4-chloro-6-(ethylamino)- (8CI)",284.15,1.0,CCNc1nc(N)nc(Cl)n1,le15
"Acetamide, 2-chloro-N,N-di-2-propenyl-",372.95,1.0,C=CCN(CC=C)C(=O)CCl,le15
"Methane, dibromo-",370.15,1.0,BrCBr,le15
"3-Pyridinol, 2-bromo-",421.55,1.0,Oc1cccnc1Br,le15
"2,2,2-trifluoro-1-phenylethanone",314.85,1.0,O=C(c1ccccc1)C(F)(F)F,le15
"alpha,alpha,alpha-Trifluoro-3-tolualdehyde",341.45,1.0,O=Cc1cccc(C(F)(F)F)c1,le15
"Ethanediamide, N,N'-dimethyl-N,N'-dinitroso- (9CI)",366.05,1.0,CN(N=O)C(=O)C(=O)N(C)N=O,le15
"1,4-Naphthoquinone, 5-hydroxy- (8CI)",474.45,1.0,O=C1C=CC(=O)c2c(O)cccc21,le15
"Quinoline, 8-nitro-",422.35,1.0,O=[N+]([O-])c1cccc2cccnc12,le15
diethyl 2-oxopropanedioate,363.35,1.0,CCOC(=O)C(=O)C(=O)OCC,le15
"Quinoline, 4-nitro-",422.35,1.0,O=[N+]([O-])c1ccnc2ccccc12,le15
"Isocyanic acid, 4-methyl-m-phenylene ester (8CI)",383.65,1.0,Cc1ccc(N=C=O)cc1N=C=O,le15
"2-Propynoic acid, 3-phenyl-, ethyl ester (9CI)",398.05,1.0,CCOC(=O)C#Cc1ccccc1,le15
"3H-Pyrazol-3-one, 2,4-dihydro-5-methyl-2-phenyl-",428.35,1.0,CC1=NN(c2ccccc2)C(=O)C1,le15
"Butanedioic acid, diethyl ester",372.65,1.0,CCOC(=O)CCC(=O)OCC,le15
"Malonic acid, methyl-, diethyl ester (8CI)",349.85,1.0,CCOC(=O)C(C)C(=O)OCC,le15
4-acetyloxybutyl acetate,378.35,1.0,CC(=O)OCCCCOC(C)=O,le15
3-ethyl-3-methylpentanedioic acid,430.45,1.0,CCC(C)(CC(=O)O)CC(=O)O,le15
"1,3-Dioxolane-2-acetic acid, 2-methyl-, ethyl ester",353.95,1.0,CCOC(=O)CC1(C)OCCO1,le15
2-propanoyloxyethyl propanoate,371.45,1.0,CCC(=O)OCCOC(=O)CC,le15
Octanedioic acid,459.65,1.0,O=C(O)CCCCCCC(=O)O,le15
"Hexanedioic acid, 1,6-dimethyl ester",380.35,1.0,COC(=O)CCCCC(=O)OC,le15
N-Ethyl-L-glutamine,485.25,1.0,CCN[C@@H](CCC(N)=O)C(=O)O,le15
"Adipic acid, dihydrazide (8CI)",541.05,1.0,NNC(=O)CCCCC(=O)NN,le15
"Phenol, p-(1-cyclohexen-1-yl)-",410.25,1.0,Oc1ccc(C2=CCCCC2)cc1,le15
"Propionitrile, 3-(N-ethylanilino)- (6CI,7CI,8CI)",405.95,1.0,CCN(CCC#N)c1ccccc1,le15
"1H-Indole-3-ethanamine, alpha-methyl- (9CI)",462.15,1.0,CC(N)Cc1c[nH]c2ccccc12,le15
"Propaneperoxoic acid, 2,2-dimethyl-, 1,1-dimethylethyl ester",326.65,1.0,CC(C)(C)OOC(=O)C(C)(C)C,le15
bis(2-methylpropyl) carbonate,344.65,1.0,CC(C)COC(=O)OCC(C)C,le15
dibutyl carbonate,349.15,1.0,CCCCOC(=O)OCCCC,le15
"Naphthalene, 1,2,3,4-tetrahydro-1,1,6-trimethyl-",370.95,1.0,Cc1ccc2c(c1)CCCC2(C)C,le15
"Bicyclo(2.2.1)hept-5-ene, 2-(4-cyclohexenyl)-",352.95,1.0,C1=CCC(C2CC3C=CC2C3)CC1,le15
"1,7-Octanediol, 3,7-dimethyl-",381.65,1.0,CC(CCO)CCCC(C)(C)O,le15
"Decane-1,2-diol",386.15,1.0,CCCCCCCCC(O)CO,le15
"Ethanol, 2-((2-ethylhexyl)oxy)-",337.15,1.0,CCCCC(CC)COCCO,le15
2-methyl-1-[1-(2-methylpropoxy)ethoxy]propane,309.0499999999999,1.0,CC(C)COC(C)OCC(C)C,le15
diethoxy-methyl-prop-2-enylsilane,315.65,1.0,C=CC[Si](C)(OCC)OCC,le15
3-methyl-1-(3-methylbutylsulfanyl)butane,349.54999999999984,1.0,CC(C)CCSCCC(C)C,le15
1-ethylsulfanyloctane,370.45,1.0,CCCCCCCCSCC,le15
1decanethiol,371.0,1.0,CCCCCCCCCCS,le15
"Benzene, 1-chloro-4-(methylsulfinyl)-",408.65,1.0,CS(=O)c1ccc(Cl)cc1,le15
"Benzene, 1-bromo-4-fluoro-",326.15,1.0,Fc1ccc(Br)cc1,le15
1-bromo-3-fluorobenzene,312.0499999999999,1.0,Fc1cccc(Br)c1,le15
"Benzaldehyde, 2,6-dichloro-",370.55,1.0,O=Cc1c(Cl)cccc1Cl,le15
"Benzoyl chloride, 4-chloro-",378.15,1.0,O=C(Cl)c1ccc(Cl)cc1,le15
"Benzoyl chloride, m-chloro- (8CI)",383.15,1.0,O=C(Cl)c1cccc(Cl)c1,le15
"Benzaldehyde, 2,4-dichloro-",373.35,1.0,O=Cc1ccc(Cl)cc1Cl,le15
"Benzaldehyde, 2,3-dichloro-",372.35,1.0,O=Cc1cccc(Cl)c1Cl,le15
"2,5-dichlorobenzaldehyde",369.75,1.0,O=Cc1cc(Cl)ccc1Cl,le15
"3,5-dichlorobenzaldehyde",371.45,1.0,O=Cc1cc(Cl)cc(Cl)c1,le15
"Benzaldehyde, 3,4-dichloro-",375.15,1.0,O=Cc1ccc(Cl)c(Cl)c1,le15
"o-Xylene, alpha,alpha'-dichloro-",380.15,1.0,ClCc1ccccc1CCl,le15
"m-Xylene, alpha,alpha'-dichloro-",385.15,1.0,ClCc1cccc(CCl)c1,le15
"1,4-dichloro-2,5-dimethylbenzene",359.25,1.0,Cc1cc(Cl)c(C)cc1Cl,le15
"2,3,4,5-Tetrafluorobenzonitrile",343.15,1.0,N#Cc1cc(F)c(F)c(F)c1F,le15
"1-phenylpyrrolidine-2,5-dione",476.75,1.0,O=C1CCC(=O)N1c1ccccc1,le15
Ethyl 4-cyanobenzoate,412.05,1.0,CCOC(=O)c1ccc(C#N)cc1,le15
Indole-3-acetic acid (8CI),477.95,1.0,O=C(O)Cc1c[nH]c2ccccc12,le15
"2-ethylisoindole-1,3-dione",394.95,1.0,CCN1C(=O)c2ccccc2C1=O,le15
"2-Propenal, 3-(4-(dimethylamino)phenyl)-",404.35,1.0,CN(C)c1ccc(C=CC=O)cc1,le15
N-cyclohexylaniline,408.65,1.0,c1ccc(NC2CCCCC2)cc1,le15
1-benzylpiperidine,367.15,1.0,c1ccc(CN2CCCCC2)cc1,le15
4-benzylpiperidine,398.55,1.0,c1ccc(CC2CCNCC2)cc1,le15
2-benzylpiperidine,389.25,1.0,c1ccc(CC2CCCCN2)cc1,le15
"2,3,3-trichloroprop-2-enoic acid",397.55,1.0,O=C(O)C(Cl)=C(Cl)Cl,le15
"Butane, 1,2-epoxy-4,4,4-trichloro-",348.95,1.0,ClC(Cl)(Cl)CC1CO1,le15
"Benzene, 2-chloro-1-fluoro-4-nitro-",343.15,1.0,O=[N+]([O-])c1ccc(F)c(Cl)c1,le15
"2-bromo-1,1-dichloroethene",292.5499999999999,1.0,ClC(Cl)=CBr,le15
L-Ascorbic acid,453.55,1.0,O=C1O[C@H]([C@@H](O)CO)C(O)=C1O,le15
"2,3-Didehydro-D-erythro-hexono-1,4-lactone",511.35,1.0,O=C1O[C@H]([C@H](O)CO)C(=O)C1=O,le15
"Fumaric acid, dihydroxy-, dimethyl ester",383.95,1.0,COC(=O)/C(O)=C(\O)C(=O)OC,le15
"Toluene-3,5-diamine, alpha,alpha,alpha-trifluoro- (8CI)",395.65,1.0,Nc1cc(N)cc(C(F)(F)F)c1,le15
"2H-1-Benzopyran-2-one, 7-methoxy-",411.75,1.0,COc1ccc2ccc(=O)oc2c1,le15
"4(5H)-Oxazolone, 2-amino-5-phenyl-",416.55,1.0,NC1=NC(=O)C(c2ccccc2)O1,le15
"Quinoline, 4-(hydroxyamino)-, 1-oxide",433.95,1.0,[O-][n+]1ccc(NO)c2ccccc21,le15
(2-acetyloxy-3-hydroxypropyl) acetate,373.35,1.0,CC(=O)OCC(CO)OC(C)=O,le15
"Butane, 2,3-dimethyl-2,3-dinitro-",353.35,1.0,CC(C)([N+](=O)[O-])C(C)(C)[N+](=O)[O-],le15
"2-Propenoic acid, 3-phenyl-, ethyl ester",421.75,1.0,CCOC(=O)C=Cc1ccccc1,le15
"2-Propen-1-ol, 3-phenyl-, acetate",403.65,1.0,CC(=O)OCC=Cc1ccccc1,le15
"3-Buten-2-one, 4-(p-methoxyphenyl)- (8CI)",421.45,1.0,COc1ccc(C=CC(C)=O)cc1,le15
"Benzeneacetic acid, 2-propenyl ester",386.15,1.0,C=CCOC(=O)Cc1ccccc1,le15
"Methanone, cyclopropyl(4-methoxyphenyl)-",413.15,1.0,COc1ccc(C(=O)C2CC2)cc1,le15
"3-Butyne-1,2-diol, 2-methyl-1-phenyl-",436.25,1.0,C#CC(C)(O)C(O)c1ccccc1,le15
"2-Propenoic acid, 2-methyl-, phenylmethyl ester",380.35,1.0,C=C(C)C(=O)OCc1ccccc1,le15
"Propane, 1,2-epoxy-3-(p-vinylphenoxy)- (7CI,8CI)",399.65,1.0,C=Cc1ccc(OCC2CO2)cc1,le15
"2,4,6,8-Tetramethyl-1,3,5,7-tetraoxacyclooctane",323.15,1.0,CC1OC(C)OC(C)OC(C)O1,le15
"Ethanol, 2-(2-ethoxyethoxy)-, acetate",373.15,1.0,CCOCCOCCOC(C)=O,le15
"ethyl 2,2-diethoxyacetate",346.15,1.0,CCOC(=O)C(OCC)OCC,le15
"Phosphine oxide, tripropyl-",404.45,1.0,CCCP(=O)(CCC)CCC,le15
[acetyloxy(dimethyl)silyl] acetate,317.85,1.0,CC(=O)O[Si](C)(C)OC(C)=O,le15
"1-Hexanone, 1-phenyl-",378.65,1.0,CCCCCC(=O)c1ccccc1,le15
"Phenol, p-cyclohexyl- (8CI)",426.15,1.0,Oc1ccc(C2CCCCC2)cc1,le15
"Cyclohexanol, 2-phenyl-",386.45,1.0,OC1CCCCC1c1ccccc1,le15
4-methyl-1-phenylpentan-1-one,372.55,1.0,CC(C)CCC(=O)c1ccccc1,le15
trans-2-Phenylcyclohexanol,386.45,1.0,O[C@@H]1CCCC[C@H]1c1ccccc1,le15
cyclohexyloxybenzene,372.05,1.0,c1ccc(OC2CCCCC2)cc1,le15
"1,1,1-triethoxypropane",333.15,1.0,CCOC(CC)(OCC)OCC,le15
"2-Propanol, 1-(2-butoxyethoxy)-",377.45,1.0,CCCCOCCOCC(C)O,le15
"2-Propanol, 1-(1-methyl-2-propoxyethoxy)-",373.85,1.0,CCCOCC(C)OCC(C)O,le15
"Piperazine, 1-(phenylmethyl)-",388.75,1.0,c1ccc(CN2CCNCC2)cc1,le15
"1-Propanamine, 3,3'-(1,2-ethanediylbis(oxy))bis-",394.65,1.0,NCCCOCCOCCCN,le15
"2,4-dimethylpentan-3-ylbenzene",353.65,1.0,CC(C)C(c1ccccc1)C(C)C,le15
Heptylbenzene,368.0,1.0,CCCCCCCc1ccccc1,le15
chloro(iodo)methane,288.75,1.0,ClCI,le15
Benzenesulphonyl chloride,379.05,1.0,O=S(=O)(Cl)c1ccccc1,le15
"Benzenesulfinic acid, 4-chloro-",447.05,1.0,O=S(O)c1ccc(Cl)cc1,le15
"Naphthalene, 1-(chloromethyl)-",403.05,1.0,ClCc1cccc2ccccc12,le15
nonanoyl chloride,368.15,1.0,CCCCCCCCC(=O)Cl,le15
1-chlorodecane,356.45,1.0,CCCCCCCCCCCl,le15
"2,4-dichloro-5-methylphenol",382.05,1.0,Cc1cc(O)c(Cl)cc1Cl,le15
"o-Cresol, 4,6-dichloro- (8CI)",381.05,1.0,Cc1cc(Cl)cc(Cl)c1O,le15
"Benzenemethanol, 3,4-dichloro-",388.95,1.0,OCc1ccc(Cl)c(Cl)c1,le15
"Phenol, 2,4-dichloro-3-methyl-",381.35,1.0,Cc1c(Cl)ccc(O)c1Cl,le15
"2,6-dichloro-4-methylphenol",376.05,1.0,Cc1cc(Cl)c(O)c(Cl)c1,le15
"2,6-dichloro-3-methylphenol",375.55,1.0,Cc1ccc(Cl)c(O)c1Cl,le15
2-bromo-5-methylthiophene,333.75,1.0,Cc1ccc(Br)s1,le15