smiles,compound,flashpoint,source,pure substance
O=C1c2ccccc2-c2ccc([N+](=O)[O-])cc21,"9H-Fluoren-9-one, 2-nitro-",488.25,le15,1
O=[N+]([O-])c1cccc2nc3ccccc3nc12,1-Nitrophenazine,490.65,le15,1
NC(Cc1ccc(O)c(C(=O)O)c1)C(=O)O,"Tyrosine, 3-carboxy-, DL-",520.15,le15,1
O=[N+]([O-])c1ccc(C=Cc2ccccc2)cc1,"Benzene, 1-nitro-4-(2-phenylethenyl)- (9CI)",446.25,le15,1
O=C(O)c1ccccc1N=Cc1ccccc1,"Benzoic acid, 2-((phenylmethylene)amino)- (9CI)",493.65,le15,1
O=[N+]([O-])c1ccc2c(c1)CCc1ccccc1-2,"Phenanthrene, 9,10-dihydro-2-nitro-",459.05,le15,1
Cc1ccccc1OCC(O)COC(N)=O,"1,2-Propanediol, 3-(2-methylphenoxy)-, 1-carbamate (9CI)",505.95,le15,1
c1ccc(CNc2[nH]cnc3ncnc2-3)cc1,"1H-Purin-6-amine, N-(phenylmethyl)-",547.15,le15,1
Nc1ncnc2c1ncn2Cc1ccccc1,"9H-Purin-6-amine, 9-(phenylmethyl)- (9CI)",522.15,le15,1
COc1ccc(C=Cc2ccc(N)cc2)cc1,"Benzenamine, 4-(2-(4-methoxyphenyl)ethenyl)-",488.55,le15,1
CN(C)c1ccc(N=Nc2ccccc2)cc1,"Benzenamine, N,N-dimethyl-4-(phenylazo)-",451.35,le15,1
CN(C)N=Nc1ccc(-c2ccccc2)cc1,"1-Triazene, 1-(1,1'-biphenyl)-4-yl-3,3-dimethyl- (9CI)",433.65,le15,1
COc1nc(NC(C)C)nc(NC(C)C)n1,"1,3,5-Triazine-2,4-diamine, 6-methoxy-N,N'-bis(1-methylethyl)-",444.05,le15,1
CNC(=O)Oc1cc(C)c(SC)c(C)c1,"Phenol, 3,5-dimethyl-4-(methylthio)-, methylcarbamate (9CI)",414.85,le15,1
CC(NC(C)c1ccccc1)c1ccccc1,"Benzenemethanamine, alpha-methyl-N-(1-phenylethyl)- (9CI)",410.35,le15,1
O=C(O)c1c(Cl)ccc(Cl)c1Cl,"Benzoic acid, 2,3,6-trichloro-",423.25,le15,1
O=[N+]([O-])c1ccc(Cl)cc1C(F)(F)F,"5-Chloro-alpha,alpha,alpha-trifluoro-2-nitrotoluene",367.05,le15,1
O=[N+]([O-])c1cc(C(F)(F)F)ccc1Cl,"Toluene, 4-chloro-alpha,alpha,alpha-trifluoro-3-nitro- (8CI)",374.81699999999995,le15,1
O=[N+]([O-])c1ccc(Cl)c(C(F)(F)F)c1,1-chloro-4-nitro-2-(trifluoromethyl)benzene,371.15,le15,1
CCc1cccc(CC)c1NC(=O)CCl,"Acetamide, 2-chloro-N-(2,6-diethylphenyl)-",450.25,le15,1
Brc1nc[nH]c1Br,"Imidazole, 4,5-dibromo- (7CI,8CI)",461.95,le15,1
Clc1ccc(Br)c(Cl)c1,"1-bromo-2,4-dichlorobenzene",379.85,le15,1
Clc1cccc(Cl)c1Br,"2-bromo-1,3-dichlorobenzene",384.45,le15,1
Clc1cc(Cl)cc(Br)c1,"1-bromo-3,5-dichlorobenzene",377.05,le15,1
Clc1cccc(Br)c1Cl,"1-bromo-2,3-dichlorobenzene",381.85,le15,1
Clc1ccc(Cl)c(Br)c1,"2-bromo-1,4-dichlorobenzene",379.55,le15,1
Clc1ccc(Br)cc1Cl,"4-bromo-1,2-dichlorobenzene",377.25,le15,1
CC(C)c1cc([N+](=O)[O-])cc([N+](=O)[O-])c1O,"Phenol, 2-(1-methylethyl)-4,6-dinitro- (9CI)",400.65,le15,1
N[C@@H](Cc1ccc(O)c([N+](=O)[O-])c1)C(=O)O,"Tyrosine, 3-nitro-, L- (8CI)",487.95,le15,1
O=C(OC(=O)c1ccccc1)c1ccccc1,benzoyl benzoate,441.55,le15,1
O=C1c2c(O)cccc2Cc2cccc(O)c21,"9(10H)-Anthracenone, 1,8-dihydroxy- (9CI)",521.75,le15,1
COC(=O)c1cc(OC)c(OC)c(OC)c1,"methyl 3,4,5-trimethoxybenzoate",388.35,le15,1
Nc1ccc2c(c1)Cc1cc([N+](=O)[O-])ccc1-2,"9H-Fluoren-2-amine, 7-nitro- (9CI)",504.15,le15,1
O=C(C=Cc1ccccc1)c1ccc(F)cc1,"2-Propen-1-one, 1-(4-fluorophenyl)-3-phenyl- (9CI)",433.45,le15,1
O=C(C=Cc1ccc(F)cc1)c1ccccc1,"2-Propen-1-one, 3-(4-fluorophenyl)-1-phenyl- (9CI)",430.45,le15,1
O=C(OCCc1ccccc1)c1ccccc1,"Benzoic acid, 2-phenylethyl ester",433.85,le15,1
Cc1ccc(OC(=O)Cc2ccccc2)cc1,"Acetic acid, phenyl-, p-tolyl ester (6CI,7CI,8CI)",395.45,le15,1
O=C(Cc1ccccc1)OCc1ccccc1,"Benzeneacetic acid, phenylmethyl ester",528.45,le15,1
c1ccc(-c2ccccc2OCC2CO2)cc1,"Propane, 1-(2-biphenylyloxy)-2,3-epoxy- (6CI,7CI,8CI)",410.45,le15,1
c1ccc(-c2ccc(OCC3CO3)cc2)cc1,"Propane, 1-(4-biphenyloxy)-2,3-epoxy- (7CI,8CI)",430.75,le15,1
CC(C)(C(=O)c1cccnc1)c1cccnc1,"1-Propanone, 2-methyl-1,2-di-3-pyridinyl-",462.45,le15,1
CC(=O)Nc1ccc(-c2ccc(N)cc2)cc1,"Acetamide, N-(4'-amino(1,1'-biphenyl)-4-yl)- (9CI)",508.45,le15,1
O=NN(Cc1ccccc1)C(=O)c1ccccc1,"Benzenemethanamide, N-nitroso-N-(phenylmethyl)- (9CI)",481.55,le15,1
CCOP(=O)(OCC)SC(C)(C)C,"Phosphorothioic acid, S-tert-butyl O,O-diethyl ester",383.35,le15,1
CC(C)Nc1ccc(Nc2ccccc2)cc1,"1,4-Benzenediamine, N-(1-methylethyl)-N'-phenyl-",504.05,le15,1
Cc1cc(Cc2ccc(N)c(C)c2)ccc1N,"o-Toluidine, 4,4'-methylenedi- (8CI)",512.05,le15,1
C=C(C)C(=O)OCCCCCCCCCC,"2-Propenoic acid, 2-methyl-, decyl ester",387.85,le15,1
O=[N+]([O-])c1cc(Cl)c(Cl)cc1Cl,"Benzene, 1,2,4-trichloro-5-nitro-",402.85,le15,1
CCCCCCCC(=O)CCCCCCC,pentadecan-8-one,356.25,le15,1
CCCCCCCCCCCCCC(C)=O,pentadecan-2-one,357.0499999999999,le15,1
CC(CC(C)(C)C)CC(C)(C)CC(C)(C)C,"Nonane, 2,2,4,4,6,8,8-heptamethyl-",368.75,le15,1
CC(C)CC(C)(C)CC(C)(C)CC(C)(C)C,"2,2,4,4,6,6,8-heptamethylnonane",383.35,le15,1
N#CC1=C(C#N)C(=O)C(Cl)=C(Cl)C1=O,"1,4-Cyclohexadiene-1,2-dicarbonitrile, 4,5-dichloro-3,6-dioxo-",409.45,le15,1
O=C1C(Cl)=C(Cl)C(=O)c2ccccc21,"1,4-Naphthalenedione, 2,3-dichloro-",400.65,le15,1
O=[N+]([O-])OCC(CO[N+](=O)[O-])O[N+](=O)[O-],"1,2,3-Propanetriol, trinitrate",285.15,le15,1
Cc1c([N+](=O)[O-])cc([N+](=O)[O-])cc1[N+](=O)[O-],"Benzene, 2-methyl-1,3,5-trinitro-",440.25,le15,1
Cc1ccc([N+](=O)[O-])c([N+](=O)[O-])c1[N+](=O)[O-],"1-methyl-2,3,4-trinitrobenzene",504.65,le15,1
O=[N+]([O-])c1ccc(N=Nc2ccccc2)cc1,"Diazene, (4-nitrophenyl)phenyl- (9CI)",464.55,le15,1
NC(=O)C(O)(c1ccccc1)c1ccccc1,"Benzeneacetamide, alpha-hydroxy-alpha-phenyl- (9CI)",489.75,le15,1
CC(=O)Nc1ccc(Oc2ccccc2)cc1,N-(4-Phenoxyphenyl)acetamide,475.35,le15,1
COc1cc(N=Nc2ccccc2)ccc1N,"Benzenamine, 2-methoxy-4-(phenylazo)- (9CI)",468.15,le15,1
CC(C)Oc1ccc(Nc2ccccc2)cc1,"Benzenamine, 4-(1-methylethoxy)-N-phenyl-",420.55,le15,1
CCNc1nc(NC(C)C)nc(SC)n1,"1,3,5-Triazine-2,4-diamine, N-ethyl-N'-(1-methylethyl)-6-(methylthio)-",466.65,le15,1
COc1cc(Cl)c(Cl)c(Cl)c1O,"Phenol, 2,3,4-trichloro-6-methoxy-",403.05,le15,1
CCCCCN(CCCCC)CCCCC,"1-Pentanamine, N,N-dipentyl-",370.95,le15,1
CC(C)CCN(CCC(C)C)CCC(C)C,"3-methyl-N,N-bis(3-methylbutyl)butan-1-amine",357.25,le15,1
CCCCCCCCCCCCCCCN,1-Pentadecanamine,402.45,le15,1
N#Cc1cc([N+](=O)[O-])c(Cl)c([N+](=O)[O-])c1,"Benzonitrile, 4-chloro-3,5-dinitro-",424.35,le15,1
CNC(=O)Oc1cccc(C(C)C)c1Cl,"Phenol, 2-chloro-3-(1-methylethyl)-, methylcarbamate (9CI)",401.75,le15,1
O=[N+]([O-])C(Br)=Cc1ccccc1,"Benzene, (2-bromo-2-nitroethenyl)-",399.35,le15,1
Cc1ccc2c(Cl)cc(Cl)c(O)c2n1,"8-Quinolinol, 5,7-dichloro-2-methyl-",439.05,le15,1
Cc1ccc(NC(=O)CBr)cc1,2-Bromo-N-(4-methylphenyl)acetamide,441.85,le15,1
CN(C)N=Nc1ccc(Br)cc1,"1-Triazene, 1-(4-bromophenyl)-3,3-dimethyl- (9CI)",385.25,le15,1
O=C(O)c1cc([N+](=O)[O-])cc([N+](=O)[O-])c1O,"Benzoic acid, 2-hydroxy-3,5-dinitro-",446.95,le15,1
CCN(CC)c1ccc(Br)cc1,"4-bromo-N,N-diethylaniline",398.25,le15,1
O=C(O)C(O)(c1ccccc1)c1ccccc1,"Benzeneacetic acid, alpha-hydroxy-alpha-phenyl-",488.45,le15,1
O=C(OCc1ccccc1)c1ccccc1O,"Benzoic acid, 2-hydroxy-, phenylmethyl ester",410.15,le15,1
COc1ccc(C(=O)c2ccccc2)c(O)c1,"Methanone, (2-hydroxy-4-methoxyphenyl)phenyl-",413.65,le15,1
Cc1cc2cc3c(C)cc(=O)oc3c(C)c2o1,"7H-Furo(3,2-g)(1)benzopyran-7-one, 2,5,9-trimethyl-",462.25,le15,1
Cc1ccc(Nc2ccc([N+](=O)[O-])cc2)cc1,"Benzenamine, 4-methyl-N-(4-nitrophenyl)-",468.15,le15,1
PCCC(c1ccccc1)c1ccccc1,"Phosphine, diphenylpropyl-",423.65,le15,1
c1ccc2c(c1)c1ccccc1c1ccccc21,Triphenylene,482.25,le15,1
c1ccc2c(c1)ccc1c3ccccc3ccc21,Chrysene,482.25,le15,1
CC(C)(c1ccc(O)cc1)c1ccc(O)cc1,"Phenol, 4,4'-(1-methylethylidene)bis-",500.15,le15,1
S=C(Nc1ccccc1)Nc1ccccc1,"Thiourea, N,N'-diphenyl-",437.85,le15,1
Cc1ccc(S(=O)(=O)OCC(C)C)cc1,"p-Toluenesulfonic acid, isobutyl ester",425.95,le15,1
CCN(CC)S(=O)(=O)c1ccc(N)cc1,"Benzenesulfonamide, 4-amino-N,N-diethyl-",454.25,le15,1
CCCSP(=O)(OC)SCCC,"Phosphorodithioic acid, O-methyl S,S-dipropyl ester",404.45,le15,1
CCS(=O)(=O)C(C)(C)S(=O)(=O)CC,"2,2-bis(ethylsulfonyl)propane",556.05,le15,1
CCCCCCCCCCCC(=O)OCC,"Lauric acid, ethyl ester (8CI)",391.75,le15,1
CCCSP(C)(=S)SCCC,"Phosphonotrithioic acid, methyl-, dipropyl ester",409.45,le15,1
CCCCCCCC(=O)OCCCCCC,"Octanoic acid, hexyl ester",393.15,le15,1
CCCCCCCCOC(=O)CCCCC,octyl hexanoate,393.15,le15,1
CCCCCCCCCCCCCCCO,pentadecan-1-ol,403.25,le15,1
CCCCCCCCCCCCCC(C)O,pentadecan-2-ol,382.15,le15,1
Cc1cc(Cl)ccc1OCCCC(=O)O,"Butanoic acid, 4-(4-chloro-2-methylphenoxy)- (9CI)",464.65,le15,1
O=C(CBr)OCc1ccccc1,"Acetic acid, bromo-, phenylmethyl ester",389.65,le15,1
CCOC(=O)c1ccc(Br)cc1,"Benzoic acid, p-bromo-, ethyl ester (8CI)",386.15,le15,1
CCOC(=O)c1ccccc1Br,ethyl 2-bromobenzoate,383.25,le15,1
Brc1cccc(C2OCCO2)c1,"2-(3-bromophenyl)-1,3-dioxolane",386.15,le15,1
CCOC(=O)c1cccc(Br)c1,ethyl 3-bromobenzoate,385.15,le15,1
O=[N+]([O-])c1cc([N+](=O)[O-])c(O)c([N+](=O)[O-])c1,"Phenol, 2,4,6-trinitro-",407.05,le15,1
Nc1ccc(C(=O)Oc2ccccc2)c(O)c1,"Salicylic acid, 4-amino-, phenyl ester (8CI)",472.75,le15,1
COc1ccc2c(OC)c3ccoc3nc2c1,"Furo(2,3-b)quinoline, 4,7-dimethoxy-",457.35,le15,1
COc1c2ccoc2nc2c(OC)cccc12,"Furo(2,3-b)quinoline, 4,8-dimethoxy-",457.35,le15,1
O=C(Nc1ccc(O)cc1)c1ccccc1O,"Benzamide, 2-hydroxy-N-(4-hydroxyphenyl)- (9CI)",439.05,le15,1
Nc1ccc(-c2ccc(N)cc2[N+](=O)[O-])cc1,"Benzidine, 2-nitro-",486.85,le15,1
CC(=O)Nc1ccc(-c2ccc(F)cc2)cc1,"Acetamide, N-(4'-fluoro(1,1'-biphenyl)-4-yl)- (9CI)",478.65,le15,1
O=C(CF)Nc1ccc(-c2ccccc2)cc1,"Acetanilide, 2-fluoro-4'-phenyl-",486.25,le15,1
c1ccc2c(c1)ccc1c2ccc2cccnc21,"Naphtho(1,2-h)quinoline",476.35,le15,1
c1ccc2cc3c(ccc4cccnc43)cc2c1,"Naphtho(2,3-h)quinoline",476.35,le15,1
c1ccc2c(c1)ccc1c3ccncc3ccc21,"Naphth(2,1-f)isoquinoline",486.35,le15,1
c1ccc2c(c1)ccc1c3cccnc3ccc21,"Naphtho(2,1-f)quinoline",476.35,le15,1
COc1ccc(Nc2ccc(OC)cc2)cc1,"Benzenamine, 4-methoxy-N-(4-methoxyphenyl)-",423.65,le15,1
CC(C)NCC(O)c1ccc2ccccc2c1,"2-Naphthalenemethanol, alpha-(((1-methylethyl)amino)methyl)-",357.45,le15,1
ClNc1nc(NCl)nc(NCl)n1,"Melamine, N2,N4,N6-trichloro- (8CI)",478.55,le15,1
NN=CNC(=O)c1nc(Cl)c(N)nc1N,"Pyrazinecarboxamide, 3,5-diamino-N-(aminoiminomethyl)-6-chloro-",606.8499999999998,le15,1
Clc1ccc(-c2nc3ccccc3o2)cc1,"Benzoxazole, 2-(p-chlorophenyl)-",421.95,le15,1
Nc1ccc(C=Cc2ccc(Cl)cc2)cc1,"4-Stilbenamine, 4'-chloro-",467.15,le15,1
CC(C)Nc1nc(Cl)nc(NC(C)C)n1,"1,3,5-Triazine-2,4-diamine, 6-chloro-N,N'-bis(1-methylethyl)-",452.55,le15,1
CCNc1nc(Cl)nc(N(CC)CC)n1,"1,3,5-Triazine-2,4-diamine, 6-chloro-N,N,N'-triethyl-",453.25,le15,1
FCCOC(Cl)C(Cl)(Cl)Cl,"Ether, 2-fluoroethyl (1,2,2,2-tetrachloro)ethyl",363.65,le15,1
CC(C)(Br)C(=O)Br,2-bromo-2-methylpropanoyl bromide,376.15,le15,1
Clc1cccc(C(Cl)(Cl)Cl)c1,1-chloro-3-(trichloromethyl)benzene,375.05,le15,1
Clc1ccccc1C(Cl)(Cl)Cl,1-chloro-2-(trichloromethyl)benzene,371.45,le15,1
ClCc1cc(Cl)c(Cl)cc1Cl,"1,2,4-trichloro-5-(chloromethyl)benzene",400.95,le15,1
Clc1ccc(C(Cl)Cl)cc1Cl,"1,2-dichloro-4-(dichloromethyl)benzene",397.15,le15,1
CCC(Br)C(C)Br,"2,3-dibromopentane",327.5499999999999,le15,1
BrCCCCCBr,"Pentane, 1,5-dibromo-",367.85,le15,1
O=C(Nc1ccc(Cl)c(Cl)c1)C1CC1,"Cyclopropanecarboxanilide, 3',4'-dichloro-",470.45,le15,1
Clc1cccc(Cl)c1NC1=NCCN1,"1H-Imidazol-2-amine, N-(2,6-dichlorophenyl)-4,5-dihydro-",420.05,le15,1
O=C(c1ccccc1)c1ccc(O)c(O)c1O,"Benzophenone, 2,3,4-trihydroxy- (8CI)",507.05,le15,1
COc1c2ccoc2cc2oc(C)cc(=O)c12,"5H-Furo(3,2-g)(1)benzopyran-5-one, 4-methoxy-7-methyl-",455.65,le15,1
O=C(O)Cc1ccc(-c2ccccc2F)cc1,"4-Biphenylacetic acid, 2'-fluoro-",457.85,le15,1
O=C1c2ccccc2-c2cccc3cccc1c23,7H-Benz(de)anthracen-7-one,469.25,le15,1
CC(=O)O.COP(=S)(OC)SCO,"Phosphorodithioic acid, S-hydroxymethyl O,O-dimethyl ester, acetate",383.05,le15,1
O=Cc1ccc2ccc3cccc4ccc1c2c34,1-Pyrene carboxaldehyde,567.75,le15,1
O=C1c2ccccc2-c2ccc3ccccc3c21,11H-Benzo(a)fluoren-11-one,467.05,le15,1
c1ccc2c(c1)ncc1cnc3ccccc3c12,"Dibenzo(c,f)(2,7)naphthyridine",486.05,le15,1
CCOP(=O)(CC)Sc1ccccc1,"Phosphonothioic acid, ethyl-, O-ethyl S-phenyl ester",416.65,le15,1
O=C(C(Cl)Cl)C(Cl)(Cl)Cl,"2-Propanone, 1,1,1,3,3-pentachloro-",347.5499999999999,le15,1
CC1NC(C(=O)O)Cc2c1[nH]c1ccccc21,"1H-Pyrido(3,4-b)indole-3-carboxylic acid, 2,3,4,9-tetrahydro-1-methyl-",522.05,le15,1
CCOC(=O)CCC(=O)CCC(=O)OCC,"Heptanedioic acid, 4-oxo-, diethyl ester",410.55,le15,1
CCOC(=O)N1CCN(C(=O)OCC)CC1,"diethyl piperazine-1,4-dicarboxylate",417.45,le15,1
c1ccc(-c2ccccc2-c2ccccc2)cc1,"1,1':2',1''-Terphenyl",386.15,le15,1
c1ccc(-c2cccc(-c3ccccc3)c2)cc1,"1,1':3',1''-Terphenyl",464.15,le15,1
c1ccc(-c2ccc(-c3ccccc3)cc2)cc1,"1,1':4',1''-Terphenyl",480.15,le15,1
CCCCOC(=O)CCC(=O)OCCCC,"Butanedioic acid, dibutyl ester",417.15,le15,1
Cc1c(C(C)C)c(=O)n(-c2ccccc2)n1C,"3H-Pyrazol-3-one, 1,2-dihydro-1,5-dimethyl-4-(1-methylethyl)-2-phenyl-",396.95,le15,1
CCC(C)OC(=O)CCC(=O)OC(C)CC,dibutan-2-yl butanedioate,382.95,le15,1
O=C(O)CCCCCCCCCCC(=O)O,Dodecanedioic acid,493.15,le15,1
CC(C)CCOC(=O)C(=O)OCCC(C)C,bis(3-methylbutyl) oxalate,387.45,le15,1
CCOC(=O)C(CCC(C)C)C(=O)OCC,diethyl 2-(3-methylbutyl)propanedioate,382.95,le15,1
COC(=O)CCCCCCCCC(=O)OC,"Sebacic acid, dimethyl ester (8CI)",418.15,le15,1
NNC(=O)CCCCCCCCC(=O)NN,"Decanedioic acid, dihydrazide",538.55,le15,1
CCOP(=S)(SCC)SCC,"Phosphorotrithioic acid, O,S,S-triethyl ester",400.85,le15,1
CCCCCCCSCCCCCCC,1-heptylsulfanylheptane,422.05,le15,1
O=C(Cl)c1c(F)c(F)c(F)c(F)c1F,"2,3,4,5,6-pentafluorobenzoyl chloride",322.85,le15,1
O=C(Cl)c1cc([N+](=O)[O-])cc([N+](=O)[O-])c1,"Benzoyl chloride, 3,5-dinitro-",431.95,le15,1
CC1=Nc2ccc(Cl)cc2S(=O)(=O)N1,"2H-1,2,4-Benzothiadiazine, 7-chloro-3-methyl-, 1,1-dioxide",477.85,le15,1
Clc1cccc(C(Cl)(Cl)Cl)n1,"Pyridine, 2-chloro-6-(trichloromethyl)-",408.05,le15,1
Nc1c(Cl)c(Cl)cc(Cl)c1Cl,"Benzenamine, 2,3,5,6-tetrachloro- (9CI)",407.85,le15,1
O=C(Cl)OCCOCCOC(=O)Cl,2-(2-carbonochloridoyloxyethoxy)ethyl carbonochloridate,391.35,le15,1
COc1cc(C=O)cc(Br)c1O,"Benzaldehyde, 3-bromo-4-hydroxy-5-methoxy-",402.05,le15,1
ClCCOCCOCCOCCCl,"Ethane, 1,1'-oxybis(2-(2-chloroethoxy)- (9CI)",381.85,le15,1
CC12CCC(C(Br)C1=O)C2(C)C,"Bicyclo(2.2.1)heptan-2-one, 3-bromo-1,7,7-trimethyl-",308.95,le15,1
O=[N+]([O-])c1ccc2nc(C(F)(F)F)[nH]c2c1,"Benzimidazole, 5-nitro-2-(trifluoromethyl)-",446.65,le15,1
Cc1cc(C(=O)NNCc2ccccc2)no1,"3-Isoxazolecarboxylic acid, 5-methyl-, 2-(phenylmethyl)hydrazide",465.55,le15,1
CCNC(C)Cc1cccc(C(F)(F)F)c1,"Benzeneethanamine, N-ethyl-alpha-methyl-3-(trifluoromethyl)- (9CI)",373.95,le15,1
c1ccc(-c2cccc(-c3ccccc3)n2)cc1,"Pyridine, 2,6-diphenyl-",439.55,le15,1
CCN(CC)c1ccc2c(C)cc(=O)oc2c1,"2H-1-Benzopyran-2-one, 7-(diethylamino)-4-methyl-",425.15,le15,1
NC(=S)NS(=O)(=O)c1ccc(N)cc1,"Benzenesulfonamide, 4-amino-N-(aminothioxomethyl)- (9CI)",503.55,le15,1
Cc1c(N(C)C)c(=O)n(-c2ccccc2)n1C,"3H-Pyrazol-3-one, 4-(dimethylamino)-1,2-dihydro-1,5-dimethyl-2-phenyl-",399.05,le15,1
CCO[Si](CCCC#N)(OCC)OCC,"Butanenitrile, 4-(triethoxysilyl)-",388.85,le15,1
Nc1ccccc1C(=O)c1ccc(Cl)cc1,2-Amino-4'-chlorobenzophenone,480.85,le15,1
Oc1c(Cl)cc(Cl)c(Cl)c1Cl,"Phenol, 2,3,4,6-tetrachloro-",388.85,le15,1
Oc1c(Cl)c(Cl)cc(Cl)c1Cl,"Phenol, 2,3,5,6-tetrachloro-",384.85,le15,1
Oc1cc(Cl)c(Cl)c(Cl)c1Cl,"Phenol, 2,3,4,5-tetrachloro-",401.95,le15,1
O=C(CF)Nc1ccc(Br)cc1,"Acetamide, N-(4-bromophenyl)-2-fluoro- (9CI)",447.45,le15,1
Cc1cccc(C)c1I,"2-iodo-1,3-dimethylbenzene",375.15,le15,1
OCC(F)(F)C(F)(F)C(F)(F)C(F)F,"2,2,3,3,4,4,5,5-octafluoropentan-1-ol",348.75,le15,1
Cc1ccc(N(CCCl)CCCl)cc1,"Benzenamine, N,N-bis(2-chloroethyl)-4-methyl- (9CI)",430.65,le15,1
C=C1CC(=O)N(c2cccc([N+](=O)[O-])c2)C1=O,"Succinimide, 2-methylene-N-(m-nitrophenyl)-",479.35,le15,1
CN(C)C(=O)Nc1cccc(C(F)(F)F)c1,"Urea, 1,1-dimethyl-3-(alpha,alpha,alpha-trifluoro-m-tolyl)-",423.15,le15,1
O=c1ccc2ccc3c(=O)ccc4ccc1c2c43,"1,6-Pyrenequinone",450.95,le15,1
O=c1ccc2ccc3ccc(=O)c4ccc1c2c34,"1,8-Pyrenequinone",450.95,le15,1
CCC1(c2ccccc2)C(=O)NC(=O)NC1=O,"2,4,6(1H,3H,5H)-Pyrimidinetrione, 5-ethyl-5-phenyl-",284.15,le15,1
CCC1(c2ccc(N)cc2)CCC(=O)NC1=O,"2,6-Piperidinedione, 3-(4-aminophenyl)-3-ethyl-",503.55,le15,1
COc1ccc2[nH]cc(CCNC(C)=O)c2c1,"Acetamide, N-(2-(5-methoxy-1H-indol-3-yl)ethyl)- (9CI)",537.15,le15,1
CCP(=S)(OC)Sc1ccccc1,"Phosphonodithioic acid, ethyl-, O-methyl S-phenyl ester",413.05,le15,1
CC1CCCCC1NC(=O)Nc1ccccc1,"Urea, N-(2-methylcyclohexyl)-N'-phenyl- (9CI)",394.65,le15,1
COP(=S)(OC)SCCSC,"Phosphorodithioic acid, O,O-dimethyl S-2-(methylthio)ethyl ester",397.05,le15,1
O=c1n(Cl)c(=O)n(Cl)c(=O)n1Cl,"1,3,5-Triazine-2,4,6(1H,3H,5H)-trione, 1,3,5-trichloro-",498.15,le15,1
C=C[Si](OC(C)C)(OC(C)C)OC(C)C,ethenyl-tri(propan-2-yloxy)silane,359.75,le15,1
CCCCCCCCCCCc1ccccc1,Undecylbenzene,417.0,le15,1
O=C1OC(=O)c2ccc(Cl)c3cccc1c23,"1H,3H-Naphtho(1,8-cd)pyran-1,3-dione, 6-chloro-",481.45,le15,1
ClC(COCC(Cl)c1ccccc1-c1ccccc1)c1ccccc1-c1ccccc1,2biphenylyl2chloroethylether,433.15,le15,1
CCCCCCCCCCCCCCCl,1-chlorotetradecane,403.15,le15,1
FC(F)(F)/C(Cl)=C(\Cl)C(F)(F)F,"(E)-2,3-dichloro-1,1,1,4,4,4-hexafluorobut-2-ene",276.35,le15,1
C=CP(=O)(OCCCl)OCCCl,"Phosphonic acid, ethenyl-, bis(2-chloroethyl) ester",438.65,le15,1
Nc1c(F)c(F)c(C(F)(F)F)c(F)c1F,"2,3,5,6-Tetrafluoro-4-aminobenzotrifluoride",341.0499999999999,le15,1
Brc1ccc2c3c(cccc13)CC2,"5-bromo-1,2-dihydroacenaphthylene",435.45,le15,1
Brc1ccccc1-c1ccccc1,1-bromo-2-phenylbenzene,406.85,le15,1
Brc1cccc(-c2ccccc2)c1,"1,1'-Biphenyl, 3-bromo-",408.75,le15,1
CN(C)C(=O)Nc1ccc(Cl)c(Cl)c1,"Urea, N'-(3,4-dichlorophenyl)-N,N-dimethyl-",459.85,le15,1
Nc1ncc(C=Cc2ccc([N+](=O)[O-])o2)nn1,"1,2,4-Triazin-3-amine, 6-(2-(5-nitro-2-furanyl)ethenyl)- (9CI)",525.95,le15,1
c1ccc(-c2cccc(-c3ccccn3)n2)nc1,"2,2':6',2''-Terpyridine",455.65,le15,1
COC(=O)C(c1ccccc1)C1CCCCN1,"2-Piperidineacetic acid, alpha-phenyl-, methyl ester",425.15,le15,1
CC(=O)Nc1ccc(S(=O)(=O)Cl)cc1,"Sulfanilyl chloride, N-acetyl- (6CI,7CI,8CI)",485.05,le15,1
COc1ccccc1I,1-iodo-2-methoxybenzene,371.65,le15,1
OCc1ccccc1I,"Benzenemethanol, 2-iodo-",401.35,le15,1
COc1ccc(I)cc1,1-iodo-4-methoxybenzene,368.25,le15,1
Oc1c(F)c(F)c(C(F)(F)F)c(F)c1F,"2,3,5,6-Tetrafluoro-4-(trifluoromethyl)phenol",326.15,le15,1
CNC(=O)OCc1ccc(Cl)c(Cl)c1,"Carbamic acid, N-methyl-, 3,4-dichlorobenzyl ester",439.35,le15,1
O=C(O)CC(C(=O)O)C(CC(=O)O)C(=O)O,"1,2,3,4-Butanetetracarboxylic acid",415.85,le15,1
Nc1nc2ccc(OC(F)(F)F)cc2s1,"2-Benzothiazolamine, 6-(trifluoromethoxy)-",406.15,le15,1
COC(=O)CC(O)(CC(=O)OC)C(=O)OC,"trimethyl 2-hydroxypropane-1,2,3-tricarboxylate",352.35,le15,1
CC(=O)O.CC(=O)O.OCCOCCOCCO,"Ethanol, 2,2'-(1,2-ethanediylbis(oxy))bis-, diacetate",447.15,le15,1
CC(C)OC(=O)C(O)C(O)C(=O)OC(C)C,"Tartaric acid, diisopropyl ester",382.55,le15,1
O=C(O)C(O)(c1ccccc1)C1CCCCC1,"Benzeneacetic acid, alpha-cyclohexyl-alpha-hydroxy- (9CI)",488.25,le15,1
c1ccc2c(c1)ccc1sc3ccccc3c12,"Benzo(b)naphtho(1,2-d)thiophene",436.15,le15,1
c1ccc2c(c1)ccc1c3ccccc3sc21,"Benzo(b)naphtho(2,1-d)thiophene (8CI)(9CI)",436.15,le15,1
O=c1[nH]c2c(c(=O)n1C1CCCCC1)CCC2,"1H-Cyclopentapyrimidine-2,4(3H,5H)-dione, 6,7-dihydro-3-cyclohexyl-",475.55,le15,1
Cc1cccc2c1ccc1cc(C(C)C)ccc12,"Phenanthrene, 7-isopropyl-1-methyl- (8CI)",450.962,le15,1
C=CC(=O)OCCC[Si](OC)(OC)OC,"2-Propenoic acid, 3-(trimethoxysilyl)propyl ester",355.45,le15,1
CCN(CC)CC(=O)Nc1c(C)cccc1C,"Acetamide, 2-(diethylamino)-N-(2,6-dimethylphenyl)-",439.15,le15,1
CCC(C)(C)c1ccc(O)c(C(C)(C)CC)c1,"Phenol, 2,4-bis(1,1-dimethylpropyl)-",416.15,le15,1
CCc1cc(C(C)(C)C)c(O)c(C(C)(C)C)c1,"Phenol, 2,6-di-tert-butyl-4-ethyl- (8CI)",378.15,le15,1
CCCCP(=S)(CCCC)CCCC,"Phosphine sulfide, tributyl-",409.65,le15,1
C1CCN2CC3CC(CN4CCCCC34)C2C1,"7,14-Methano-2H,6H-dipyrido(1,2-a:1',2'-e)(1,5)diazocine, dodecahydro-",421.45,le15,1
CCCCC[Si](OCC)(OCC)OCC,"Silane, pentyltriethoxy-",351.0499999999999,le15,1
CC(Oc1ccc(Cl)cc1Cl)C(=O)O,"Propanoic acid, 2-(2,4-dichlorophenoxy)-",437.65,le15,1
COC(=O)COc1ccc(Cl)cc1Cl,"Acetic acid, (2,4-dichlorophenoxy)-, methyl ester",397.25,le15,1
Nc1ncnc2c1ncn2[C@H]1CC[C@@H](CO)O1,"Adenosine, 2',3'-dideoxy-",553.05,le15,1
CC1=C(C(=O)Nc2ccccc2)SCCO1,"1,4-Oxathiin-3-carboxamide, 5,6-dihydro-2-methyl-N-phenyl-",481.35,le15,1
CNC(=O)Oc1cc(C(C)C)cc(C(C)C)c1,"Carbamic acid, methyl-, 3,5-diisopropylphenyl ester",406.95,le15,1
CCN(CC)CCNC(=O)c1ccc(N)cc1,"Benzamide, 4-amino-N-(2-(diethylamino)ethyl)- (9CI)",482.05,le15,1
Fc1c(Cl)c(F)c(Cl)c(F)c1Cl,"1,3,5-trichloro-2,4,6-trifluorobenzene",375.35,le15,1
CCO[Si](CCCCN)(OCC)OCC,"Butylamine, 4-(triethoxysilyl)-",378.25,le15,1
Cc1ccc([N+](=O)[O-])cc1S(=O)(=O)Cl,"Benzenesulfonyl chloride, 2-methyl-5-nitro- (9CI)",450.25,le15,1
Brc1ccc(Br)cc1,"Benzene, 1,4-dibromo-",362.45,le15,1
Brc1ccccc1Br,"Benzene, o-dibromo- (8CI)",368.65,le15,1