,compound,flashpoint,pure substance,smiles,source
8582,"Propane, 1,2-epoxy-3-(p-vinylphenoxy)- (7CI,8CI)",399.65,1,C=Cc1ccc(OCC2CO2)cc1,le15
8583,"2,4,6,8-Tetramethyl-1,3,5,7-tetraoxacyclooctane",323.15,1,CC1OC(C)OC(C)OC(C)O1,le15
8584,"Ethanol, 2-(2-ethoxyethoxy)-, acetate",373.15,1,CCOCCOCCOC(C)=O,le15
8585,"ethyl 2,2-diethoxyacetate",346.15,1,CCOC(=O)C(OCC)OCC,le15
8586,"Phosphine oxide, tripropyl-",404.45,1,CCCP(=O)(CCC)CCC,le15
8587,[acetyloxy(dimethyl)silyl] acetate,317.85,1,CC(=O)O[Si](C)(C)OC(C)=O,le15
8588,"1-Hexanone, 1-phenyl-",378.65,1,CCCCCC(=O)c1ccccc1,le15
8589,"Phenol, p-cyclohexyl- (8CI)",426.15,1,Oc1ccc(C2CCCCC2)cc1,le15
8590,"Cyclohexanol, 2-phenyl-",386.45,1,OC1CCCCC1c1ccccc1,le15
8591,4-methyl-1-phenylpentan-1-one,372.55,1,CC(C)CCC(=O)c1ccccc1,le15
8592,trans-2-Phenylcyclohexanol,386.45,1,O[C@@H]1CCCC[C@H]1c1ccccc1,le15
8593,cyclohexyloxybenzene,372.05,1,c1ccc(OC2CCCCC2)cc1,le15
8594,"1,1,1-triethoxypropane",333.15,1,CCOC(CC)(OCC)OCC,le15
8595,"2-Propanol, 1-(2-butoxyethoxy)-",377.45,1,CCCCOCCOCC(C)O,le15
8596,"2-Propanol, 1-(1-methyl-2-propoxyethoxy)-",373.85,1,CCCOCC(C)OCC(C)O,le15
8597,"Piperazine, 1-(phenylmethyl)-",388.75,1,c1ccc(CN2CCNCC2)cc1,le15
8598,"1-Propanamine, 3,3'-(1,2-ethanediylbis(oxy))bis-",394.65,1,NCCCOCCOCCCN,le15
8599,"2,4-dimethylpentan-3-ylbenzene",353.65,1,CC(C)C(c1ccccc1)C(C)C,le15
8600,Heptylbenzene,368.0,1,CCCCCCCc1ccccc1,le15
8601,chloro(iodo)methane,288.75,1,ClCI,le15
8602,Benzenesulphonyl chloride,379.05,1,O=S(=O)(Cl)c1ccccc1,le15
8603,"Benzenesulfinic acid, 4-chloro-",447.05,1,O=S(O)c1ccc(Cl)cc1,le15
8604,"Naphthalene, 1-(chloromethyl)-",403.05,1,ClCc1cccc2ccccc12,le15
8605,nonanoyl chloride,368.15,1,CCCCCCCCC(=O)Cl,le15
8606,1-chlorodecane,356.45,1,CCCCCCCCCCCl,le15
8607,"2,4-dichloro-5-methylphenol",382.05,1,Cc1cc(O)c(Cl)cc1Cl,le15
8608,"o-Cresol, 4,6-dichloro- (8CI)",381.05,1,Cc1cc(Cl)cc(Cl)c1O,le15
8609,"Benzenemethanol, 3,4-dichloro-",388.95,1,OCc1ccc(Cl)c(Cl)c1,le15
8610,"Phenol, 2,4-dichloro-3-methyl-",381.35,1,Cc1c(Cl)ccc(O)c1Cl,le15
8611,"2,6-dichloro-4-methylphenol",376.05,1,Cc1cc(Cl)c(O)c(Cl)c1,le15
8612,"2,6-dichloro-3-methylphenol",375.55,1,Cc1ccc(Cl)c(O)c1Cl,le15
8613,2-bromo-5-methylthiophene,333.75,1,Cc1ccc(Br)s1,le15
8614,2-bromo-3-methylthiophene,341.45,1,Cc1ccsc1Br,le15
8615,"1,3,5-trifluoro-2-nitrobenzene",354.45,1,O=[N+]([O-])c1c(F)cc(F)cc1F,le15
8616,"1,2,3-Trifluoro-4-nitrobenzene",366.15,1,O=[N+]([O-])c1ccc(F)c(F)c1F,le15
8617,"1,2,4-trifluoro-5-nitrobenzene",358.25,1,O=[N+]([O-])c1cc(F)c(F)cc1F,le15
8618,1-bromo-3-methylcyclohexane,338.65,1,CC1CCCC(Br)C1,le15
8619,2-Nitrocinnamaldehyde,451.25,1,O=CC=Cc1ccccc1[N+](=O)[O-],le15
8620,"2-Propenal, 3-(4-nitrophenyl)-",424.75,1,O=CC=Cc1ccc([N+](=O)[O-])cc1,le15
8621,"2-Furanacrylic acid, alpha-cyano-, methyl ester",401.25,1,COC(=O)C(C#N)=Cc1ccco1,le15
8622,1-N-Methyl-5-nitroindazole,443.85,1,Cn1ncc2cc([N+](=O)[O-])ccc21,le15
8623,"2H-Indazole, 2-methyl-6-nitro-",447.35,1,Cn1cc2ccc([N+](=O)[O-])cc2n1,le15
8624,"Benzimidazole, 1-methyl-6-nitro- (8CI)",443.85,1,Cn1cnc2ccc([N+](=O)[O-])cc21,le15
8625,"Butanamide, 3-oxo-N-phenyl-",435.15,1,CC(=O)CC(=O)Nc1ccccc1,le15
8626,"Anthranilic acid, allyl ester (8CI)",429.25,1,C=CCOC(=O)c1ccccc1N,le15
8627,"1H-Benzimidazol-2-amine, 5-methoxy-1-methyl-",452.35,1,COc1ccc2c(c1)nc(N)n2C,le15
8628,"Imidodicarbonimidic diamide, N-phenyl-",461.85,1,N=C(N)NC(=N)Nc1ccccc1,le15
8629,"Benzamide, N,N-diethyl-",398.65,1,CCN(CC)C(=O)c1ccccc1,le15
8630,N-phenyl-N-propylacetamide,382.55,1,CCCN(C(C)=O)c1ccccc1,le15
8631,"Benzaldehyde, p-(diethylamino)- (8CI)",383.35,1,CCN(CC)c1ccc(C=O)cc1,le15
8632,"Morpholine, 3-methyl-2-phenyl-",385.85,1,CC1NCCOC1c1ccccc1,le15
8633,"Benzamide, N-butyl-",474.75,1,CCCCNC(=O)c1ccccc1,le15
8634,3-Phenylpropyl isothiocyanate,408.25,1,S=C=NCCCc1ccccc1,le15
8635,"1,3,5-Triazine-2,4,6(1H,3H,5H)-trithione",373.65,1,S=c1[nH]c(=S)[nH]c(=S)[nH]1,le15
8636,"N,N-dipropylaniline",375.35,1,CCCN(CCC)c1ccccc1,le15
8637,"Benzenemethanamine, N-butyl-alpha-methyl- (9CI)",364.35,1,CCCCNC(C)c1ccccc1,le15
8638,"Benzenamine, 2,6-bis(1-methylethyl)-",481.35,1,CC(C)c1cccc(C(C)C)c1N,le15
8639,4-hexylaniline,394.51199999999994,1,CCCCCCc1ccc(N)cc1,le15
8640,"Carbamodithioic acid, diethyl-, ethyl ester",365.25,1,CCSC(=S)N(CC)CC,le15
8641,"methyl 2,2,2-trichloroacetate",345.15,1,COC(=O)C(Cl)(Cl)Cl,le15
8642,"Propanoic acid, 2,2,3-trichloro-",361.95,1,O=C(O)C(Cl)(Cl)CCl,le15
8643,"2-Propanol, 1,1,1-trichloro-2-methyl-",334.95,1,CC(C)(O)C(Cl)(Cl)Cl,le15
8644,4-chloro-2-methylquinoline,386.15,1,Cc1cc(Cl)c2ccccc2n1,le15
8645,"Succinimide, N-bromo- (8CI)",360.85,1,O=C1CCC(=O)N1Br,le15
8646,"Phenol, 2-amino-4,6-dichloro-",400.25,1,Nc1cc(Cl)cc(Cl)c1O,le15
8647,"methyl 2,2,3,3,3-pentafluoropropanoate",278.75,1,COC(=O)C(F)(F)C(F)(F)F,le15
8648,"2,3,5,6-Tetrafluorobenzaldehyde",347.05,1,O=Cc1c(F)c(F)cc(F)c1F,le15
8649,"1,2,4,5-tetrafluoro-3,6-dimethylbenzene",320.35,1,Cc1c(F)c(F)c(C)c(F)c1F,le15
8650,ethyl trifluoromethanesulfonate,308.75,1,CCOS(=O)(=O)C(F)(F)F,le15
8651,"1H-Indene-1,3(2H)-dione, 2,2-dihydroxy-",512.85,1,O=C1c2ccccc2C(=O)C1(O)O,le15
8652,ethyl 2-oxo-2-phenylacetate,386.15,1,CCOC(=O)C(=O)c1ccccc1,le15
8653,"1,3-Benzodioxole-5-methanol, alpha-ethenyl-",408.35,1,C=CC(O)c1ccc2c(c1)OCO2,le15
8654,"1,3-Benzodioxole, 5-(oxiranylmethyl)- (9CI)",367.15,1,c1cc2c(cc1CC1CO1)OCO2,le15
8655,"Propanoic acid, 3,3'-thiobis-",401.15,1,O=C(O)CCSCCC(=O)O,le15
8656,2-phenylethynylbenzene,399.19300000000004,1,C(#Cc1ccccc1)c1ccccc1,le15
8657,"Benzene, 1,2-dimethoxy-4-(2-propenyl)-",390.15,1,C=CCc1ccc(OC)c(OC)c1,le15
8658,"Phenol, 2-ethoxy-5-(1-propenyl)-",438.35,1,CC=Cc1ccc(OCC)c(O)c1,le15
8659,"Propanoic acid, 2-methyl-, phenylmethyl ester",368.65,1,CC(C)C(=O)OCc1ccccc1,le15
8660,"Propanoic acid, 2-methyl-, 4-methylphenyl ester",366.95,1,Cc1ccc(OC(=O)C(C)C)cc1,le15
8661,"2-Butanone, 4-(p-methoxyphenyl)- (6CI,7CI,8CI)",385.15,1,COc1ccc(CCC(C)=O)cc1,le15
8662,"Benzenemethanol, alpha-methyl-, propanoate",379.15,1,CCC(=O)OC(C)c1ccccc1,le15
8663,"Benzoic acid, isobutyl ester (6CI,7CI,8CI)",374.55,1,CC(C)COC(=O)c1ccccc1,le15
8664,"Propanoic acid, 2-phenylethyl ester",367.55,1,CCC(=O)OCCc1ccccc1,le15
8665,"Benzoic acid, butyl ester",380.15,1,CCCCOC(=O)c1ccccc1,le15
8666,"4-methyl-4-phenyl-1,3-dioxane",386.95,1,CC1(c2ccccc2)CCOCO1,le15
8667,ethyl 3-phenylpropanoate,381.15,1,CCOC(=O)CCc1ccccc1,le15
8668,"Acetic acid, alpha-methyl-phenethyl ester",376.15,1,CC(=O)OC(C)Cc1ccccc1,le15
8669,methyl 2-phenylbutanoate,366.75,1,CCC(C(=O)OC)c1ccccc1,le15
8670,"Benzene, (3,3-dimethoxy-1-propenyl)-",372.55,1,COC(C=Cc1ccccc1)OC,le15
8671,"Benzaldehyde, 4-butoxy-",396.95,1,CCCCOc1ccc(C=O)cc1,le15
8672,"2-Propenoic acid, bicyclo(2.2.1)hept-5-en-2-ylmethyl ester",395.55,1,C=CC(=O)OCC1CC2C=CC1C2,le15
8673,"Benzoic acid, 4-(1,1-dimethylethyl)-",408.05,1,CC(C)(C)c1ccc(C(=O)O)cc1,le15
8674,"Butanoic acid, phenylmethyl ester",421.722,1,CCCC(=O)OCc1ccccc1,le15
8675,"Benzeneacetic acid, 1-methylethyl ester",370.65,1,CC(C)OC(=O)Cc1ccccc1,le15
8676,"N,N-diethylpyridine-3-carboxamide",414.25,1,CCN(CC)C(=O)c1cccnc1,le15
8677,"1,2-Bis(2-methoxyethoxy)ethane",386.15,1,COCCOCCOCCOC,le15
8678,"Ethanol, 2-(2-(2-ethoxyethoxy)ethoxy)-",405.15,1,CCOCCOCCOCCO,le15
8679,"Benzenamine, N,N-diethyl-4-nitroso-",402.55,1,CCN(CC)c1ccc(N=O)cc1,le15
8680,"Phenol, 5-methyl-2-pentyl- (9CI)",398.45,1,CCCCCc1ccc(C)cc1O,le15
8681,"3,4-Xylenol, 6-tert-butyl-",388.85,1,Cc1cc(O)c(C(C)(C)C)cc1C,le15
8682,2-(1-Cyclohexen-1-yl)cyclohexan-1-one,389.25,1,O=C1CCCCC1C1=CCCCC1,le15
8683,"Phenol, 2-(1,1-dimethylethyl)-4,6-dimethyl-",384.85,1,Cc1cc(C)c(O)c(C(C)(C)C)c1,le15
8684,"Phenol, 2,6-bis(1-methylethyl)-",380.65,1,CC(C)c1cccc(C(C)C)c1O,le15
8685,Benzenehexanol,394.95,1,OCCCCCCc1ccccc1,le15
8686,"Phenol, 2-hexyl- (9CI)",413.05,1,CCCCCCc1ccccc1O,le15
8687,"Benzenemethanol, alpha,alpha-dimethyl-4-(1-methylethyl)- (9CI)",378.65,1,CC(C)c1ccc(C(C)(C)O)cc1,le15
8688,"4-tert-butyl-2,5-dimethylphenol",390.95,1,Cc1cc(C(C)(C)C)c(C)cc1O,le15
8689,3-methylbutoxymethylbenzene,366.85,1,CC(C)CCOCc1ccccc1,le15
8690,"13-Oxabicyclo(10.1.0)trideca-4,8-diene",386.75,1,C1=CCCC2OC2CCC=CCC1,le15
8691,Butyl sulfone (8CI),412.75,1,CCCCS(=O)(=O)CCCC,le15
8692,"1,3,6-Thiadiazepine-2,7-dithione, tetrahydro-",395.05,1,S=C1NCCNC(=S)S1,le15
8693,2-methyl-1-(2-methylpropylsulfonyl)propane,383.35,1,CC(C)CS(=O)(=O)CC(C)C,le15
8694,"Disulfide, bis(1,1-dimethylethyl)",335.35,1,CC(C)(C)SSC(C)(C)C,le15
8695,1-(butyldisulfanyl)butane,366.45,1,CCCCSSCCCC,le15
8696,"Octane-1,8-dithiol",374.256,1,SCCCCCCCCS,le15
8697,Ditertbutyldisulfide,340.0,1,CC(C)(C)SSC(C)(C)C,le15
8698,dimethyl (E)-2-chlorobut-2-enedioate,364.65,1,COC(=O)/C=C(/Cl)C(=O)OC,le15
8699,"Phosphonous dichloride, phenyl-",362.45,1,ClP(Cl)c1ccccc1,le15
8700,"1,2-Benzenediol, 4,5-dichloro-",409.75,1,Oc1cc(Cl)c(Cl)cc1O,le15
8701,"1,2-Benzenediol, 3,4-dichloro-",392.45,1,Oc1ccc(Cl)c(Cl)c1O,le15
8702,"Hydroquinone, 2,5-dichloro- (8CI)",392.65,1,Oc1cc(Cl)c(O)cc1Cl,le15
8703,"Phosphorodichloridothioic acid, O-ethyl ester",336.15,1,CCOP(=S)(Cl)Cl,le15
8704,"2-Propenoic acid, 2-bromoethyl ester (9CI)",340.75,1,C=CC(=O)OCCBr,le15
8705,"2-Butanone, 1-bromo-3,3-dimethyl-",348.15,1,CC(C)(C)C(=O)CBr,le15
8706,6-bromohexan-2-one,351.35,1,CC(=O)CCCCBr,le15
8707,"2H-Pyran, 2-(bromomethyl)tetrahydro-",338.15,1,BrCC1CCCCO1,le15
8708,"Heptane, 1-bromo-",333.75,1,CCCCCCCBr,le15
8709,"alpha,alpha,alpha,4-Tetrafluoro-o-toluidine",345.35,1,Nc1ccc(F)cc1C(F)(F)F,le15
8710,"alpha,alpha,alpha,4-Tetrafluoro-m-toluidine",364.15,1,Nc1ccc(F)c(C(F)(F)F)c1,le15
8711,"Benzamide, N-acetyl-2-hydroxy- (9CI)",454.05,1,CC(=O)NC(=O)c1ccccc1O,le15
8712,"Benzoic acid, p-acetamido- (8CI)",492.85,1,CC(=O)Nc1ccc(C(=O)O)cc1,le15
8713,"Hydrazine, 1-acetyl-2-isonicotinoyl-",504.25,1,CC(=O)NNC(=O)c1ccncc1,le15
8714,phenanthridine,429.05,1,c1ccc2c(c1)cnc1ccccc12,le15
8715,Benzo(h)quinoline,429.05,1,c1ccc2c(c1)ccc1cccnc12,le15
8716,"Carbamic acid, phenyl-, 1-methylethyl ester",284.15,1,CC(C)OC(=O)Nc1ccccc1,le15
8717,"2-Pyridinecarboxylic acid, 5-butyl-",426.05,1,CCCCc1ccc(C(=O)O)nc1,le15
8718,"Phosphoric triamide, hexamethyl-",367.85,1,CN(C)P(=O)(N(C)C)N(C)C,le15
8719,"Carbamic acid, alpha-methylphenethyl ester",445.55,1,CC(Cc1ccccc1)OC(N)=O,le15
8720,ethyl 2-anilinoacetate,392.75,1,CCOC(=O)CNc1ccccc1,le15
8721,"Carbamic acid, methyl-, 3,4-xylyl ester",389.35,1,CNC(=O)Oc1ccc(C)c(C)c1,le15
8722,ethyl N-benzylcarbamate,411.05,1,CCOC(=O)NCc1ccccc1,le15
8723,"Phenol, 3,5-dimethyl-, methylcarbamate (9CI)",387.35,1,CNC(=O)Oc1cc(C)cc(C)c1,le15
8724,"Ether, butyl p-nitrosophenyl",396.15,1,CCCCOc1ccc(N=O)cc1,le15
8725,1-tert-butyl-3-nitrobenzene,360.95,1,CC(C)(C)c1cccc([N+](=O)[O-])c1,le15
8726,"Ethanol, 2-(ethyl(3-methylphenyl)amino)-",397.15,1,CCN(CCO)c1cccc(C)c1,le15
8727,"1-Propene, 1,1,2,3-tetrachloro-",335.45,1,ClCC(Cl)=C(Cl)Cl,le15
8728,"1,2,4,5-tetrafluoro-3-methoxybenzene",314.85,1,COc1c(F)c(F)cc(F)c1F,le15
8729,"Benzoic acid, 2-(acetyloxy)-",523.15,1,CC(=O)Oc1ccccc1C(=O)O,le15
8730,"2-Propenoic acid, 3-(3,4-dihydroxyphenyl)- (9CI)",493.15,1,O=C(O)C=Cc1ccc(O)c(O)c1,le15
8731,4-methoxycarbonylbenzoic acid,409.15,1,COC(=O)c1ccc(C(=O)O)cc1,le15
8732,D-Glucose,559.85,1,O=C[C@H](O)[C@@H](O)[C@H](O)[C@H](O)CO,le15
8733,"Acetanilide, 4'-nitro- (8CI)",474.25,1,CC(=O)Nc1ccc([N+](=O)[O-])cc1,le15
8734,[fluoro(methyl)phosphoryl]oxycyclohexane,370.45,1,CP(=O)(F)OC1CCCCC1,le15
8735,"cyclohexane-1,2,3,4,5,6-hexol",416.537,1,OC1C(O)C(O)C(O)C(O)C1O,le15
8736,"1H-Purine-2,6-dione, 3,7-dihydro-1,3-dimethyl-",501.57599999999996,1,Cn1c(=O)c2[nH]cnc2n(C)c1=O,le15
8737,9H-Fluoren-9-one,417.292,1,O=C1c2ccccc2-c2ccccc21,le15
8738,1H-Phenalen-1-one (9CI),431.05,1,O=C1C=Cc2cccc3cccc1c23,le15
8739,"Phosphonic acid, methyl-, bis(1-methylethyl) ester",370.85,1,CC(C)OP(C)(=O)OC(C)C,le15
8740,"1,10-Phenanthroline",437.906,1,c1cnc2c(c1)ccc1cccnc12,le15
8741,"Benzoic acid, 4-hydroxy-, propyl ester",397.75,1,CCCOC(=O)c1ccc(O)cc1,le15
8742,"Benzoic acid, 4-methoxy-, ethyl ester",379.25,1,CCOC(=O)c1ccc(OC)cc1,le15
8743,(4-methoxyphenyl)methyl acetate,408.15,1,COc1ccc(COC(C)=O)cc1,le15
8744,"1,7-Phenanthroline",437.95,1,c1cnc2c(c1)ccc1ncccc12,le15
8745,propan-2-yl 2-hydroxybenzoate,369.65,1,CC(C)OC(=O)c1ccccc1O,le15
8746,propyl 2-hydroxybenzoate,373.65,1,CCCOC(=O)c1ccccc1O,le15
8747,"1-(3,4-dimethoxyphenyl)ethanone",386.55,1,COc1ccc(C(C)=O)cc1OC,le15
8748,"1,3-Dioxolane-4-methanol, 2-phenyl-",426.45,1,OCC1COC(c2ccccc2)O1,le15
8749,2-phenoxybutanoic acid,388.45,1,CCC(Oc1ccccc1)C(=O)O,le15
8750,ethyl 3-methoxybenzoate,298.55,1,CCOC(=O)c1cccc(OC)c1,le15
8751,2-Acetylamino-5-aminoanisole,396.75,1,COc1cc(N)ccc1NC(C)=O,le15
8752,"Urea, (4-ethoxyphenyl)- (9CI)",407.75,1,CCOc1ccc(NC(N)=O)cc1,le15
8753,"Benzothiazole, 2-amino-6-methoxy-",437.05,1,COc1ccc2nc(N)sc2c1,le15
8754,"2-Benzothiazolamine, 4-methoxy- (9CI)",437.05,1,COc1cccc2sc(N)nc12,le15
8755,"Benzene, 1,1'-(1,2-ethenediyl)bis-, (E)- (9CI)",401.65,1,C(=C/c1ccccc1)\c1ccccc1,le15
8756,"9,10-dihydroanthracene",404.95,1,c1ccc2c(c1)Cc1ccccc1C2,le15
8757,(Z)-stilbene,401.65,1,C(=C\c1ccccc1)\c1ccccc1,le15
8758,"9H-Fluorene, 9-methyl- (9CI)",410.65,1,CC1c2ccccc2-c2ccccc21,le15
8759,1-phenylethenylbenzene,386.15,1,C=C(c1ccccc1)c1ccccc1,le15
8760,(E)-stilbene,401.65,1,C(=C/c1ccccc1)\c1ccccc1,le15
8761,"Butanoic acid, 2-amino-4-(S-methylsulfonimidoyl)- (9CI)",439.95,1,CS(=N)(=O)CCC(N)C(=O)O,le15
8762,"Phenol, 2-(1,1-dimethylethyl)-4-methoxy-",378.75,1,COc1ccc(O)c(C(C)(C)C)c1,le15
8763,"Phenol, (1,1-dimethylethyl)-4-methoxy-",378.75,1,COc1ccc(O)c(C(C)(C)C)c1,le15
8764,"Urea, 1-ethyl-3-phenyl-2-thio- (8CI)",387.15,1,CCNC(=S)Nc1ccccc1,le15
8765,"2,5-ditert-butylfuran",345.25,1,CC(C)(C)c1ccc(C(C)(C)C)o1,le15
8766,"Silane, dimethylethoxyphenyl-",346.25,1,CCO[Si](C)(C)c1ccccc1,le15
8767,"2,4,6-trimethyl-1,3,5-trithiane",375.75,1,CC1SC(C)SC(C)S1,le15
8768,"Toluene, o-chloro-alpha,alpha,alpha-trifluoro- (8CI)",317.15,1,FC(F)(F)c1ccccc1Cl,le15
8769,"Toluene, p-chloro-alpha,alpha,alpha-trifluoro-",320.15,1,FC(F)(F)c1ccc(Cl)cc1,le15
8770,"Toluene, m-chloro-alpha,alpha,alpha-trifluoro- (8CI)",309.15,1,FC(F)(F)c1cccc(Cl)c1,le15
8771,"Propionic acid, 2-bromo-, ethyl ester (6CI,7CI,8CI)",331.55,1,CCOC(=O)C(C)Br,le15
8772,"Valeric acid, 2-bromo- (8CI)",367.35,1,CCCC(Br)C(=O)O,le15
8773,"Butanoic acid, 2-bromo-, methyl ester",331.55,1,CCC(Br)C(=O)OC,le15
8774,methyl 4-bromobutanoate,360.15,1,COC(=O)CCCBr,le15
8775,"Propionic acid, 3-bromo-, ethyl ester (8CI)",343.15,1,CCOC(=O)CCBr,le15
8776,"Butanoic acid, 2-bromo-3-methyl-",380.15,1,CC(C)C(Br)C(=O)O,le15
8777,"Pentanoic acid, 5-bromo-",387.55,1,O=C(O)CCCCBr,le15
8778,"1-Hexanol, 6-bromo-",368.75,1,OCCCCCCBr,le15
8779,methyl 3-nitrobenzoate,409.95,1,COC(=O)c1cccc([N+](=O)[O-])c1,le15
8780,"Benzoic acid, 2-methyl-3-nitro-",425.05,1,Cc1c(C(=O)O)cccc1[N+](=O)[O-],le15
8781,"Benzoic acid, 2-methyl-5-nitro-",432.75,1,Cc1ccc([N+](=O)[O-])cc1C(=O)O,le15
8782,"Benzoic acid, 5-methyl-2-nitro-",438.15,1,Cc1ccc([N+](=O)[O-])c(C(=O)O)c1,le15
8783,"Acetic acid, (o-nitrophenyl)-",429.05,1,O=C(O)Cc1ccccc1[N+](=O)[O-],le15
8784,"Benzoic acid, 3-methyl-2-nitro-",426.50800000000004,1,Cc1cccc(C(=O)O)c1[N+](=O)[O-],le15
8785,"p-Toluic acid, 3-nitro- (8CI)",432.15,1,Cc1ccc(C(=O)O)c([N+](=O)[O-])c1,le15
8786,"Acetic acid, (p-nitrophenyl)-",444.75,1,O=C(O)Cc1ccc([N+](=O)[O-])cc1,le15
8787,"Benzeneacetic acid, 3-nitro- (9CI)",442.95,1,O=C(O)Cc1cccc([N+](=O)[O-])c1,le15
8788,"Benzoic acid, 3-methyl-4-nitro-",434.35,1,Cc1cc(C(=O)O)ccc1[N+](=O)[O-],le15
8789,"Benzenamine, N-methyl-4-nitro-N-nitroso- (9CI)",457.05,1,CN(N=O)c1ccc([N+](=O)[O-])cc1,le15
8790,9H-Fluoren-2-amine,477.95,1,Nc1ccc2c(c1)Cc1ccccc1-2,le15
8791,9-Aminofluorene,441.25,1,NC1c2ccccc2-c2ccccc21,le15
8792,"N,1-diphenylmethanimine",400.324,1,C(=Nc1ccccc1)c1ccccc1,le15
8793,3-methyl-9H-carbazole,438.55,1,Cc1ccc2[nH]c3ccccc3c2c1,le15
8794,9H-Fluoren-1-amine (9CI),461.95,1,Nc1cccc2c1Cc1ccccc1-2,le15
8795,diphenylmethanimine,397.45,1,N=C(c1ccccc1)c1ccccc1,le15
8796,"9H-Carbazole, 9-methyl- (9CI)",431.25,1,Cn1c2ccccc2c2ccccc21,le15
8797,9H-Fluoren-3-amine (9CI),466.45,1,Nc1ccc2c(c1)-c1ccccc1C2,le15
8798,9H-Fluoren-4-amine (9CI),477.95,1,Nc1cccc2c1-c1ccccc1C2,le15
8799,"Ethanol, 2,2'-(phenylimino)bis-",473.15,1,OCCN(CCO)c1ccccc1,le15
8800,"3-methyl-1,3-benzothiazole-2-thione",408.75,1,Cn1c(=S)sc2ccccc21,le15
8801,Lauronitrile (8CI),387.15,1,CCCCCCCCCCCC#N,le15
8802,"Cyclohexanamine, N-cyclohexyl-",369.25,1,C1CCC(NC2CCCCC2)CC1,le15
8803,2-chloro-5-(trifluoromethyl)pyridine,330.754,1,FC(F)(F)c1ccc(Cl)nc1,le15
8804,"Acetyl chloride, trichloro-",304.15,1,O=C(Cl)C(Cl)(Cl)Cl,le15
8805,"Propane, 1,1,1,3-tetrachloro-",324.55,1,ClCCC(Cl)(Cl)Cl,le15
8806,"Propane, 1,2,2,3-tetrachloro-",335.65,1,ClCC(Cl)(Cl)CCl,le15
8807,"1,1,2,2-tetrachloropropane",319.05,1,CC(Cl)(Cl)C(Cl)Cl,le15
8808,"1,1,2,3-tetrachloropropane",336.75,1,ClCC(Cl)C(Cl)Cl,le15
8809,4-bromobenzonitrile,370.15,1,N#Cc1ccc(Br)cc1,le15
8810,2-bromobenzonitrile,386.85,1,N#Cc1ccccc1Br,le15
8811,3-bromobenzonitrile,363.45,1,N#Cc1cccc(Br)c1,le15
8812,"1,1,1-trifluoro-2-(2,2,2-trifluoroethoxy)ethane",274.85,1,FC(F)(F)COCC(F)(F)F,le15
8813,"2,2,3,4,4,4-hexafluorobutan-1-ol",324.85,1,OCC(F)(F)C(F)C(F)(F)F,le15
8814,"2,3,5,6-Tetrafluorohydroquinone",351.25,1,Oc1c(F)c(F)c(O)c(F)c1F,le15
8815,"1,2,3,4,5-pentafluoro-6-methylbenzene",307.55,1,Cc1c(F)c(F)c(F)c(F)c1F,le15
8816,"1,2,3-Propanetriol, 1,3-dinitrate (9CI)",329.95,1,O=[N+]([O-])OCC(O)CO[N+](=O)[O-],le15
8817,"Butanenitrile, 4-(dichloromethylsilyl)-",365.15,1,N#CCCC[SiH2]C(Cl)Cl,le15
8818,"Benzene, 1-methyl-2,3-dinitro-",443.35,1,Cc1cccc([N+](=O)[O-])c1[N+](=O)[O-],le15
8819,"Benzoic acid, 2-amino-4-nitro-",487.85,1,Nc1cc([N+](=O)[O-])ccc1C(=O)O,le15
8820,"Phosphoric acid, triethyl ester",388.75,1,CCOP(=O)(OCC)OCC,le15
8821,"1,2-Acenaphthylenedione",423.35,1,O=c1c(=O)c2cccc3cccc1c32,le15
8822,"2,5-Cyclohexadiene-1,4-dione, 2,3-dimethoxy-5-methyl-",421.75,1,COC1=C(OC)C(=O)C(C)=CC1=O,le15
8823,"Benzoic acid, 2,6-dimethoxy-",399.65,1,COc1cccc(OC)c1C(=O)O,le15
8824,"1-Propanone, 1-(2,4,6-trihydroxyphenyl)-",447.85,1,CCC(=O)c1c(O)cc(O)cc1O,le15
8825,"4,6-Dimethoxysalicylaldehyde",411.15,1,COc1cc(O)c(C=O)c(OC)c1,le15
8826,methyl 4-hydroxy-3-methoxybenzoate,393.35,1,COC(=O)c1ccc(O)c(OC)c1,le15
8827,D-Glucitol,565.65,1,OC[C@H](O)[C@@H](O)[C@H](O)[C@H](O)CO,le15
8828,"Phosphonofluoridic acid, methyl-, 1,2,2-trimethylpropyl ester",348.65,1,CC(OP(C)(=O)F)C(C)(C)C,le15
8829,"Benzenamine, 4-ethoxy-2-nitro-",436.35,1,CCOc1ccc(N)c([N+](=O)[O-])c1,le15
8830,D-Mannitol,565.6469999999999,1,OC[C@@H](O)[C@@H](O)[C@H](O)[C@H](O)CO,le15
8831,"1H-Imidazole-4-carboxamide, 5-(3,3-dimethyl-1-triazenyl)-",502.85,1,CN(C)N=Nc1[nH]cnc1C(N)=O,le15
8832,"Methanone, diphenyl-",396.85,1,O=C(c1ccccc1)c1ccccc1,le15
8833,"(1,1'-Biphenyl)-4-carboxaldehyde (9CI)",459.25,1,O=Cc1ccc(-c2ccccc2)cc1,le15
8834,"3-Biphenylcarboxaldehyde (6CI,7CI,8CI)",465.15,1,O=Cc1cccc(-c2ccccc2)c1,le15
8835,"1,2-Propanediol, 3-(2-methylphenoxy)-",434.65,1,Cc1ccccc1OCC(O)CO,le15
8836,"Diazene, diphenyl-",396.05,1,c1ccc(N=Nc2ccccc2)cc1,le15
8837,"Ethanol, 2-(2-phenoxyethoxy)-",414.05,1,OCCOCCOc1ccccc1,le15
8838,"5,8,8-trimethyl-3-oxabicyclo[3.2.1]octane-2,4-dione",394.25,1,CC12CCC(C(=O)OC1=O)C2(C)C,le15
8839,"6-Oxabicyclo(3.1.0)hexane, 2,2'-oxybis-",366.35,1,C1CC2OC2C1OC1CCC2OC12,le15
8840,"Butanedioic acid, 2,3-dimercapto-",388.772,1,O=C(O)C(S)C(S)C(=O)O,le15
8841,9H-Carbazol-2-amine (9CI),523.75,1,Nc1ccc2c(c1)[nH]c1ccccc12,le15
8842,diphenyldiazene,396.05,1,c1ccc(N=Nc2ccccc2)cc1,le15
8843,furan-2-ylmethyl pentanoate,371.45,1,CCCCC(=O)OCc1ccco1,le15
8844,"Phosphonothioic acid, ethyl-, O,O-diethyl ester",345.35,1,CCOP(=S)(CC)OCC,le15
8845,"Phosphonothioic acid, ethyl-, O,S-diethyl ester",364.85,1,CCOP(=O)(CC)SCC,le15
8846,1-methyl-2-(2-methylphenyl)benzene,380.05,1,Cc1ccccc1-c1ccccc1C,le15
8847,1-phenylethylbenzene,382.75,1,CC(c1ccccc1)c1ccccc1,le15
8848,1-benzyl-4-methylbenzene,393.75,1,Cc1ccc(Cc2ccccc2)cc1,le15
8849,1-benzyl-2-methylbenzene,395.45,1,Cc1ccccc1Cc1ccccc1,le15
8850,1-ethyl-2-phenylbenzene,410.05,1,CCc1ccccc1-c1ccccc1,le15