,compound,flashpoint,pure substance,smiles,source
12498,p-HYDROXYBENZALDEHYDE,445.0,1,O=Cc1ccc(O)cc1,didier14
12499,4-HEPTANONE,321.1,1,CCCC(=O)CCC,didier14
12500,DIETHYL SUCCINATE,363.0,1,CCOC(=O)CCC(=O)OCC,didier14
12501,PROPANAL,243.2,1,CCC=O,didier14
12502,N-METHYLFORMAMIDE,376.0,1,CNC=O,didier14
12503,DIACETONE ALCOHOL,331.0,1,CC(=O)CC(C)(C)O,didier14
12504,3-METHYL-1-BUTANOL,316.0,1,CC(C)CCO,didier14
12505,ACETYLACETONE,307.1,1,CC(=O)CC(C)=O,didier14
12506,BUTANAL,262.1,1,CCCC=O,didier14
12507,LEVULINIC ACID,410.0,1,CC(=O)CCC(=O)O,didier14
12508,DIOCTYL ADIPATE,500.1,1,CCCCCCCCOC(=O)CCCCC(=O)OCCCCCCCC,didier14
12509,n-BUTYL ACETATE,295.0,1,CCCCOC(C)=O,didier14
12510,n-BUTYL STEARATE,433.1,1,CCCCCCCCCCCCCCCCCC(=O)OCCCC,didier14
12511,2-OCTANOL,344.3,1,CCCCCCC(C)O,didier14
12512,AZELAIC ACID,492.0,1,O=C(O)CCCCCCCC(=O)O,didier14
12513,n-OCTANOIC ACID,393.0,1,CCCCCCCC(=O)O,didier14
12514,HEXAMETHYLENEDIAMINE,366.0,1,NCCCCCCN,didier14
12515,1-NONENE,295.0,1,C=CCCCCCCC,didier14
12516,OCTANAL,324.1,1,CCCCCCCC=O,didier14
12517,DIETHYLENE GLYCOL MONOBUTYL ETHER ACETATE,375.1,1,CCCCOCCOCCOC(C)=O,didier14
12518,n-DECANE,319.0,1,CCCCCCCCCC,didier14
12519,NONANAL,336.1,1,CCCCCCCCC=O,didier14
12520,DIMETHYLAMINE,223.2,1,CNC,didier14
12521,NEOPENTYL GLYCOL,371.1,1,CC(C)(CO)CO,didier14
12522,PYRUVIC ACID,355.1,1,CC(=O)C(=O)O,didier14
12523,"N,N-DIMETHYLACETAMIDE",336.1,1,CC(=O)N(C)C,didier14
12524,PYRENE,472.0,1,c1cc2ccc3cccc4ccc(c1)c2c34,didier14
12525,DIMETHYL PHTHALATE,419.0,1,COC(=O)c1ccccc1C(=O)OC,didier14
12526,DI-n-PROPYL PHTHALATE,433.0,1,CCCOC(=O)c1ccccc1C(=O)OCCC,didier14
12527,trans-3-HEXENE,261.1,1,CC/C=C/CC,didier14
12528,DIPROPYLENE GLYCOL t-BUTYL ETHER,392.0,1,CC(CO)OCC(C)OC(C)(C)C,didier14
12529,1-PENTADECENE,385.0,1,C=CCCCCCCCCCCCCC,didier14
12530,trans-2-OCTENE,294.3,1,C/C=C/CCCCC,didier14
12531,o-DIETHYLBENZENE,330.4,1,CCc1ccccc1CC,didier14
12532,sec-BUTYLBENZENE,325.0,1,CCC(C)c1ccccc1,didier14
12533,2-METHYL-1-BUTANOL,316.1,1,CCC(C)CO,didier14
12534,ACETOXYACETIC ACID,440.0,1,CC(=O)OCC(=O)O,didier14
12535,sec-BUTYLAMINE,244.3,1,CCC(C)N,didier14
12536,"trans-1,4-DIETHYLCYCLOHEXANE",320.0,1,CC[C@H]1CC[C@H](CC)CC1,didier14
12537,DIETHYL MALEATE,366.1,1,CCOC(=O)/C=C\C(=O)OCC,didier14
12538,MONOETHANOLAMINE,358.1,1,NCCO,didier14
12539,GLYCOL ALDEHYDE,360.0,1,O=CCO,didier14
12540,ETHYL ACETATE,269.0,1,CCOC(C)=O,didier14
12541,MALONIC ACID,496.0,1,O=C(O)CC(=O)O,didier14
12542,m-DIETHYLBENZENE,329.0,1,CCc1cccc(CC)c1,didier14
12543,ETHYL ACETOACETATE,330.4,1,CCOC(=O)CC(C)=O,didier14
12544,"1,3-DICHLOROPROPANE",294.1,1,ClCCCCl,didier14
12545,n-HEXANOIC ACID,375.0,1,CCCCCC(=O)O,didier14
12546,n-HEPTANE,269.0,1,CCCCCCC,didier14
12547,DI-n-PROPYLAMINE,290.1,1,CCCNCCC,didier14
12548,n-DODECANOIC ACID,430.0,1,CCCCCCCCCCCC(=O)O,didier14
12549,1-NONANOL,368.0,1,CCCCCCCCCO,didier14
12550,n-NONYL ACETATE,372.1,1,CCCCCCCCCOC(C)=O,didier14
12551,TRIETHYLENE GLYCOL n-BUTYL ETHER,416.0,1,CCCCOCCOCCOCCO,didier14
12552,TETRAETHYLENE GLYCOL DIMETHYL ETHER,414.1,1,COCCOCCOCCOCCOC,didier14
12553,"2,2,4-TRIMETHYL-1,3-PENTANEDIOL",383.1,1,CC(C)C(O)C(C)(C)CO,didier14
12554,DIMETHYL ISOPHTHALATE,411.1,1,COC(=O)c1cccc(C(=O)OC)c1,didier14
12555,trans-2-HEPTENE,272.0,1,C/C=C/CCCC,didier14
12556,trans-3-HEPTENE,267.1,1,CC/C=C/CCC,didier14
12557,"1,4-DICHLORO-cis-2-BUTENE",323.0,1,ClC/C=C\CCl,didier14
12558,8-HYDROXYQUINOLINE,404.0,1,Oc1cccc2cccnc12,didier14
12559,cis-3-OCTENE,290.0,1,CC/C=C\CCCC,didier14
12560,trans-4-OCTENE,281.0,1,CCC/C=C/CCC,didier14
12561,trans-3-OCTENE,282.0,1,CC/C=C/CCCC,didier14
12562,"2-METHYL-1,3-PENTANEDIOL",394.0,1,CCC(O)C(C)CO,didier14
12563,2-ETHYL HEXANOIC ACID,387.1,1,CCCCC(CC)C(=O)O,didier14
12564,p-METHOXYPHENOL,398.0,1,COc1ccc(O)cc1,didier14
12565,TRI-n-HEPTYL TRIMELLITATE,546.0,1,CCCCCCCOC(=O)c1ccc(C(=O)OCCCCCCC)c(C(=O)OCCCCCCC)c1,didier14
12566,TETRAETHYLENE GLYCOL MONOBUTYL ETHER,436.0,1,CCCCOCCOCCOCCOCCO,didier14
12567,ETHYLENE GLYCOL 2-ETHYLHEXYL ETHER,383.1,1,CCCCC(CC)COCCO,didier14
12568,"cis-1,2-DICHLOROETHYLENE",277.0,1,Cl/C=C\Cl,didier14
12569,"trans-1,2-DICHLOROETHYLENE",275.0,1,Cl/C=C/Cl,didier14
12570,3-AMINO-1-PROPANOL,352.6,1,NCCCO,didier14
12571,PROPYLENE GLYCOL n-PROPYL ETHER,321.1,1,CCCOCC(C)O,didier14
12572,1-ETHOXY-2-PROPANOL,315.1,1,CCOCC(C)O,didier14
12573,CYCLOHEXYL MERCAPTAN,316.1,1,SC1CCCCC1,didier14
12574,METHYL-4-FORMYLBENZOATE,403.0,1,COC(=O)c1ccc(C=O)cc1,didier14
12575,3-ETHYLHEPTANE,295.0,1,CCCCC(CC)CC,didier14
12576,5-METHYLNONANE,311.0,1,CCCCC(C)CCCC,didier14
12577,METHYL tert-BUTYL ETHER,240.2,1,COC(C)(C)C,didier14
12578,1-n-BUTYLNAPHTHALENE,401.0,1,CCCCc1cccc2ccccc12,didier14
12579,"1,1-DIMETHYLCYCLOPENTANE",257.0,1,CC1(C)CCCC1,didier14
12580,n-HEPTYL MERCAPTAN,319.1,1,CCCCCCCS,didier14
12581,ETHYLCYCLOPENTANE,269.0,1,CCC1CCCC1,didier14
12582,BIS(CYANOETHYL)ETHER,445.0,1,N#CCCOCCC#N,didier14
12583,"2,4,4-TRIMETHYLHEXANE",283.0,1,CCC(C)(C)CC(C)C,didier14
12584,"2,3,3,4-TETRAMETHYLPENTANE",304.0,1,CC(C)C(C)(C)C(C)C,didier14
12585,1-METHYL-1-ETHYLCYCLOPENTANE,279.0,1,CCC1(C)CCCC1,didier14
12586,ETHYLCYCLOHEXANE,295.1,1,CCC1CCCCC1,didier14
12587,n-PROPYLCYCLOHEXANE,304.0,1,CCCC1CCCCC1,didier14
12588,n-BUTYLCYCLOHEXANE,321.0,1,CCCCC1CCCCC1,didier14
12589,4-METHYLNONANE,311.0,1,CCCCCC(C)CCC,didier14
12590,n-DECYLCYCLOHEXANE,404.0,1,CCCCCCCCCCC1CCCCC1,didier14
12591,1-TRIACONTENE,517.0,1,C=CCCCCCCCCCCCCCCCCCCCCCCCCCCCC,didier14
12592,2-(2-PENTOXYETHOXY)ETHANOL,383.0,1,CCCCCOCCOCCO,didier14
12593,"1,2-BENZENEDICARBOXYLIC ACID, HEPTYL, NONYL ESTER",500.0,1,CCCCCCCCCOC(=O)c1ccccc1C(=O)OCCCCCCC,didier14
12594,n-BUTYLCYCLOPENTANE,305.0,1,CCCCC1CCCC1,didier14
12595,n-PROPYLCYCLOPENTANE,288.0,1,CCCC1CCCC1,didier14
12596,DIMERCAPTOETHYL ETHER,371.1,1,SC(S)COCC(S)S,didier14
12597,"2-METHYL-1,3-PROPANEDIOL",386.0,1,CC(CO)CO,didier14
12598,CHRYSENE,510.0,1,c1ccc2c(c1)ccc1c3ccccc3ccc21,didier14
12599,"trans-3,5-DIMETHOXYSTILBENE",489.0,1,COc1cc(/C=C/c2ccccc2)cc(OC)c1,didier14
12600,3-METHYLOCTANE,297.0,1,CCCCCC(C)CC,didier14
12601,4-METHYLOCTANE,295.0,1,CCCCC(C)CCC,didier14
12602,ETHYLENE GLYCOL DIACRYLATE,373.1,1,C=CC(=O)OCCOC(=O)C=C,didier14
12603,tert-BUTYLFORMAMIDE,368.1,1,CC(C)(C)NC=O,didier14
12604,DIPROPYL MALEATE,391.0,1,CCCOC(=O)/C=C\C(=O)OCCC,didier14
12605,AMINOCAPRONITRILE,378.0,1,CCCCC(N)C#N,didier14
12606,"BENZENE-1,2,4-TRICARBOXYLIC ACID TRIMETHYL ESTER",468.0,1,COC(=O)c1ccc(C(=O)OC)c(C(=O)OC)c1,didier14
12607,ACRYLOXY PROPIONIC ACID,419.0,1,C=CC(=O)OC(C)C(=O)O,didier14
12608,TRIPROPYLENE GLYCOL,413.1,1,CC(O)COC(C)COC(C)CO,didier14
12609,DIPROPYLENE GLYCOL,391.0,1,CC(O)COC(C)CO,didier14
12610,TRIPROPYLENE GLYCOL MONOMETHYL ETHER,384.0,1,COC(C)COC(C)COC(C)CO,didier14
12611,4-HYDROXYBUTYRALDEHYDE,346.0,1,O=CCCCO,didier14
12612,ACRIDINE,445.0,1,c1ccc2nc3ccccc3cc2c1,didier14
12613,1-n-NONYLNAPHTHALENE,449.0,1,CCCCCCCCCc1cccc2ccccc12,didier14
12614,1-n-DECYLNAPHTHALENE,458.0,1,CCCCCCCCCCc1cccc2ccccc12,didier14
12615,DIISODECYL PHTHALATE,505.4,1,CC(C)CCCCCCCOC(=O)c1ccccc1C(=O)OCCCCCCCC(C)C,didier14
12616,DIISOOCTYL PHTHALATE,504.0,1,CC(C)CCCCCOC(=O)c1ccccc1C(=O)OCCCCCC(C)C,didier14
12617,1-n-PROPYLNAPHTHALENE,387.0,1,CCCc1cccc2ccccc12,didier14
12618,ETHYLENE GLYCOL MONOPROPYL ETHER,322.1,1,CCCOCCO,didier14
12619,ADAMANTANE,316.0,1,C1C2CC3CC1CC(C2)C3,didier14
12620,DIISONONYL PHTHALATE,489.0,1,CC(C)CCCCCCOC(=O)c1ccccc1C(=O)OCCCCCCC(C)C,didier14
12621,1-n-HEXYLNAPHTHALENE,425.0,1,CCCCCCc1cccc2ccccc12,didier14
12622,CYCLOPENTANE,233.0,1,C1CCCC1,didier14
12623,PYRIDAZINE,358.1,1,c1ccnnc1,didier14
12624,DIPROPYLENE GLYCOL n-PROPYL ETHER,370.9,1,CCCOC(C)COC(C)CO,didier14
12625,DIPROPYLENE GLYCOL MONOETHYL ETHER,364.0,1,CCOC(C)COC(C)CO,didier14
12626,4-HYDROXYMETHYL BENZOIC ACID,495.0,1,O=C(O)c1ccc(CO)cc1,didier14
12627,HYDRAZINE,311.0,1,NN,didier14
12628,"1,2,4-BUTANETRIOL",440.0,1,OCCC(O)CO,didier14
12629,ETHYLBENZENE HYDROPEROXIDE,414.0,1,CCc1ccccc1.[O-]O,didier14
12630,2-METHYLOCTANE,296.0,1,CCCCCCC(C)C,didier14
12631,n-DECANOIC ACID,412.0,1,CCCCCCCCCC(=O)O,didier14
12632,3-METHYL-1-HEXENE,267.1,1,C=CC(C)CCC,didier14
12633,DIPROPYLENE GLYCOL MONOMETHYL ETHER,347.1,1,COC(C)COC(C)CO,didier14
12634,"2,2,5-TRIMETHYLHEXANE",286.0,1,CC(C)CCC(C)(C)C,didier14
12635,DI-n-UNDECYL PHTHALATE,535.0,1,CCCCCCCCCCCOC(=O)c1ccccc1C(=O)OCCCCCCCCCCC,didier14
12636,DI-n-HEPTYL PHTHALATE,485.0,1,CCCCCCCOC(=O)c1ccccc1C(=O)OCCCCCCC,didier14
12637,"1,2,3,4-TETRAMETHYLCYCLOHEXANE",319.0,1,CC1CCC(C)C(C)C1C,didier14
12638,6-AMINOHEXANAMIDE,444.0,1,NCCCCCC(N)=O,didier14
12639,3-HYDROXY-2-METHYL PROPIONALDEHYDE,352.0,1,CC(C=O)CO,didier14
12640,ISOPROPYLCYCLOPENTANE,283.0,1,CC(C)C1CCCC1,didier14
12641,1-ISOPROPOXY-2-PROPANOL,309.0,1,CC(O)COC(C)C,didier14
12642,ALLYL-TERT-BUTYLPEROXIDE,286.0,1,C=CCOOC(C)(C)C,didier14
12643,6-AMINOHEXANOL,390.0,1,NCCCCCCO,didier14
12644,"N,N'-DI-tert-BUTYLETHYLENEDIAMINE",334.0,1,CC(C)(C)NCCNC(C)(C)C,didier14
12645,CYCLOHEXYL FORMATE,324.1,1,O=COC1CCCCC1,didier14
12646,"1,2,3-BUTANETRIOL",474.0,1,CC(O)C(O)CO,didier14
12647,CYANOGEN,204.0,1,N#CC#N,didier14
12648,"1,5-PENTANEDIAMINE",335.1,1,NCCCCCN,didier14
12649,DI-n-OCTYL TEREPHTHALATE,507.0,1,CCCCCCCCOC(=O)c1ccc(C(=O)OCCCCCCCC)cc1,didier14
12650,n-BUTYLHYDROPEROXIDE,325.0,1,CCCCOO,didier14
12651,"1,2,3,4-TETRAMETHYLBENZENE",341.1,1,Cc1ccc(C)c(C)c1C,didier14
12652,CITRACONIC ACID,493.0,1,C/C(=C/C(=O)O)C(=O)O,didier14
12653,FORMALDEHYDE,206.0,1,C=O,didier14
12654,LACTIC ACID,410.0,1,CC(O)C(=O)O,didier14
12655,5-NONANONE,333.1,1,CCCCC(=O)CCCC,didier14
12656,ISOVALERIC ACID,350.0,1,CC(C)CC(=O)O,didier14
12657,SUBERIC ACID,489.0,1,O=C(O)CCCCCCC(=O)O,didier14
12658,ACETYLSALICYLIC ACID,436.0,1,CC(=O)Oc1ccccc1C(=O)O,didier14
12659,2-METHYL-2-BUTENE,228.2,1,CC=C(C)C,didier14
12660,ISOBUTYL MERCAPTAN,264.1,1,CC(C)CS,didier14
12661,"2,3-BUTANEDIOL",358.1,1,CC(O)C(C)O,didier14
12662,"1,2,3-TRIMETHYLBENZENE",317.1,1,Cc1cccc(C)c1C,didier14
12663,"2,3-XYLENOL",365.0,1,Cc1cccc(O)c1C,didier14
12664,TRIMELLITIC ACID,550.0,1,O=C(O)c1ccc(C(=O)O)c(C(=O)O)c1,didier14
12665,"1,1-DIMETHOXYETHANE",256.1,1,COC(C)OC,didier14
12666,n-PENTYLBENZENE,338.1,1,CCCCCc1ccccc1,didier14
12667,AMINOACETONITRILE,339.0,1,N#CCN,didier14
12668,"1,2-ETHANEDITHIOL",317.1,1,SCCS,didier14
12669,m-DICHLOROBENZENE,345.0,1,Clc1cccc(Cl)c1,didier14
12670,ETHYLIDENE DIACETATE,337.0,1,CC(=O)OC(C)OC(C)=O,didier14
12671,ISOBUTYL FORMATE,277.0,1,CC(C)COC=O,didier14
12672,2-HEPTANOL,332.1,1,CCCCCC(C)O,didier14
12673,1-CHLOROPENTANE,286.0,1,CCCCCCl,didier14
12674,GLUTARONITRILE,417.0,1,N#CCCCC#N,didier14
12675,n-HEXADECANE,408.1,1,CCCCCCCCCCCCCCCC,didier14
12676,METHYL ISOBUTYRATE,276.1,1,COC(=O)C(C)C,didier14
12677,METHYL LACTATE,322.1,1,COC(=O)C(C)O,didier14
12678,PROPYLENE GLYCOL ETHYL ETHER ACETATE,327.0,1,CCOCC(C)OC(C)=O,didier14
12679,BENZAMIDE,430.0,1,NC(=O)c1ccccc1,didier14
12680,METHYL PROPIONATE,271.0,1,CCC(=O)OC,didier14
12681,"3,3-DIMETHYL-1-BUTENE",245.2,1,C=CC(C)(C)C,didier14
12682,"2,3,3-TRIMETHYLPENTANE",273.0,1,CCC(C)(C)C(C)C,didier14
12683,3-METHYL-1-BUTENE,217.2,1,C=CC(C)C,didier14
12684,"2,3-DIMETHYL-2-BUTENE",257.1,1,CC(C)=C(C)C,didier14
12685,METHYL ISOPROPYL KETONE,279.1,1,CC(=O)C(C)C,didier14
12686,"2,2,3-TRIMETHYLPENTANE",270.0,1,CCC(C)C(C)(C)C,didier14
12687,BENZANTHRACENE,508.0,1,c1ccc2cc3c(ccc4ccccc43)cc2c1,didier14
12688,3-METHYL-2-PENTANONE,285.1,1,CCC(C)C(C)=O,didier14
12689,ETHYL ISOPROPYL KETONE,286.1,1,CCC(=O)C(C)C,didier14
12690,"2,3,4-TRIMETHYLPENTANE",273.0,1,CC(C)C(C)C(C)C,didier14
12691,DIISOPROPYL KETONE,288.1,1,CC(C)C(=O)C(C)C,didier14
12692,n-OCTADECANOIC ACID,476.1,1,CCCCCCCCCCCCCCCCCC(=O)O,didier14
12693,"1,2-PROPYLENE GLYCOL",372.0,1,CC(O)CO,didier14
12694,"2,6-XYLENOL",346.1,1,Cc1cccc(C)c1O,didier14
12695,"2,6-DIMETHYLNAPHTHALENE",381.0,1,Cc1ccc2cc(C)ccc2c1,didier14
12696,"2,7-DIMETHYLNAPHTHALENE",382.0,1,Cc1ccc2ccc(C)cc2c1,didier14
12697,"3,4-DIMETHYLHEXANE",277.0,1,CCC(C)C(C)CC,didier14
12698,3-PENTANOL,300.0,1,CCC(O)CC,didier14
12699,"1,2-BUTANEDIOL",363.1,1,CCC(O)CO,didier14
12700,METHOXYACETONE,293.0,1,COCC(C)=O,didier14
12701,1-tert-BUTOXY-2-[2-(HYDROXY)PROPOXY]PROPANE,400.0,1,CC(O)COC(C)COC(C)(C)C,didier14
12702,3-METHYL-1-PENTANOL,331.1,1,CCC(C)CCO,didier14
12703,"2,4-DIMETHYLHEXANE",283.1,1,CCC(C)CC(C)C,didier14
12704,4-METHYLHEPTANE,279.1,1,CCCC(C)CCC,didier14
12705,3-METHYLHEPTANE,279.0,1,CCCCC(C)CC,didier14
12706,n-BUTYL PROPIONATE,305.4,1,CCCCOC(=O)CC,didier14
12707,"1,1-DIMETHYLCYCLOHEXANE",276.0,1,CC1(C)CCCCC1,didier14
12708,1-METHYLCYCLOHEXANOL,338.1,1,CC1(O)CCCCC1,didier14
12709,3-METHYLNONANE,311.0,1,CCCCCCC(C)CC,didier14
12710,2-HEXANONE,296.1,1,CCCCC(C)=O,didier14
12711,ALLYL ACETATE,295.4,1,C=CCOC(C)=O,didier14
12712,"2,5-DIMETHYLHEXANE",271.0,1,CC(C)CCC(C)C,didier14
12713,2-METHYLHEPTANE,277.1,1,CCCCCC(C)C,didier14
12714,1-HEXENE,242.0,1,C=CCCCC,didier14
12715,1-HEPTENE,265.1,1,C=CCCCCC,didier14
12716,n-HEPTACOSANE,475.0,1,CCCCCCCCCCCCCCCCCCCCCCCCCCC,didier14
12717,alpha-HYDROXYISOBUTYRIC ACID,396.0,1,CC(C)(O)C(=O)O,didier14
12718,NEOHEXANOIC ACID,352.1,1,CC(C)(C)CC(=O)O,didier14
12719,3-METHYL-2-BUTANOL,299.1,1,CC(C)C(C)O,didier14
12720,"2,6-DIETHYLNAPHTHALENE",410.0,1,CCc1ccc2cc(CC)ccc2c1,didier14
12721,p-AMINOAZOBENZENE,466.0,1,Nc1ccc(N=Nc2ccccc2)cc1,didier14
12722,2-MERCAPTOETHANOL,340.1,1,OCCS,didier14
12723,DIETHYL ETHER,228.2,1,CCOCC,didier14
12724,2-PENTANOL,307.0,1,CCCC(C)O,didier14
12725,ACETAMIDE,398.0,1,CC(N)=O,didier14
12726,1-PHENYLNAPHTHALENE,435.0,1,c1ccc(-c2cccc3ccccc23)cc1,didier14
12727,"2,6-DINITROTOLUENE",417.0,1,Cc1c([N+](=O)[O-])cccc1[N+](=O)[O-],didier14
12728,2-METHYL-1-HEXENE,267.1,1,C=C(C)CCCC,didier14
12729,"3,4-DINITROTOLUENE",453.0,1,Cc1ccc([N+](=O)[O-])c([N+](=O)[O-])c1,didier14
12730,o-ETHYLTOLUENE,312.1,1,CCc1ccccc1C,didier14
12731,"cis-2-BUTENE-1,4-DIOL",401.1,1,OC/C=C\CO,didier14
12732,"1,2-DICHLOROBUTANE",297.0,1,CCC(Cl)CCl,didier14
12733,"2,3-DICHLORO-1-PROPANOL",365.0,1,OCC(Cl)CCl,didier14
12734,METHYL t-BUTYL SULFIDE,270.1,1,CSC(C)(C)C,didier14
12735,DIMETHYL CARBONATE,289.9,1,COC(=O)OC,didier14
12736,m-CHLOROBENZOYL CHLORIDE,372.0,1,O=C(Cl)c1cccc(Cl)c1,didier14
12737,"3,5-DINITROTOLUENE",443.0,1,Cc1cc([N+](=O)[O-])cc([N+](=O)[O-])c1,didier14
12738,"2,5-DINITROTOLUENE",438.0,1,Cc1cc([N+](=O)[O-])ccc1[N+](=O)[O-],didier14
12739,2-PENTOXYETHANOL,347.0,1,CCCCCOCCO,didier14
12740,4-CARBOXYBENZALDEHYDE,548.0,1,O=Cc1ccc(C(=O)O)cc1,didier14
12741,"1,4-CYCLOHEXANEDICARBOXYLIC ACID",508.1,1,O=C(O)C1CCC(C(=O)O)CC1,didier14
12742,3-ETHYLHEXANE,279.0,1,CCCC(CC)CC,didier14
12743,m-ETHYLTOLUENE,311.1,1,CCc1cccc(C)c1,didier14
12744,CYCLOHEXYL ACETATE,330.1,1,CC(=O)OC1CCCCC1,didier14
12745,p-ETHYLTOLUENE,309.1,1,CCc1ccc(C)cc1,didier14
12746,METHYL n-BUTYRATE,287.0,1,CCCC(=O)OC,didier14
12747,DIMETHYL MALEATE,386.1,1,COC(=O)/C=C\C(=O)OC,didier14
12748,METHYL ETHYL SULFIDE,258.1,1,CCSC,didier14
12749,ANILINE,343.1,1,Nc1ccccc1,didier14
12750,METHOXYACETIC ACID,388.0,1,COCC(=O)O,didier14
12751,"2,4-PENTANEDIOL",374.1,1,CC(O)CC(C)O,didier14
12752,2-HEXANOL,319.3,1,CCCCC(C)O,didier14
12753,1-NITROBUTANE,320.1,1,CCCC[N+](=O)[O-],didier14
12754,1-CHLORO-3-PROPANOL,346.1,1,OCCCCl,didier14
12755,HEXANAMIDE,410.0,1,CCCCCC(N)=O,didier14
12756,METHYL n-BUTYL SULFIDE,289.0,1,CCCCSC,didier14
12757,ETHYL PROPYL ETHER,247.0,1,CCCOCC,didier14
12758,n-PENTYL ACETATE,296.1,1,CCCCCOC(C)=O,didier14
12759,HEXANENITRILE,320.0,1,CCCCCC#N,didier14
12760,"2,2'-IMINOBIS-ACETONITRILE",413.0,1,N#CCNCC#N,didier14
12761,"1,2-DIETHOXYETHANE",300.1,1,CCOCCOCC,didier14
12762,n-TRIDECANE,352.0,1,CCCCCCCCCCCCC,didier14
12763,n-TETRADECANE,373.1,1,CCCCCCCCCCCCCC,didier14
12764,1-HEXADECENE,405.1,1,C=CCCCCCCCCCCCCCC,didier14
12765,n-HEPTADECANE,421.1,1,CCCCCCCCCCCCCCCCC,didier14
12766,n-NONADECANE,441.0,1,CCCCCCCCCCCCCCCCCCC,didier14
12767,n-OCTACOSANE,475.0,1,CCCCCCCCCCCCCCCCCCCCCCCCCCCC,didier14
12768,n-NONACOSANE,475.0,1,CCCCCCCCCCCCCCCCCCCCCCCCCCCCC,didier14
12769,"1,1,1,2-TETRACHLOROETHANE",334.0,1,ClCC(Cl)(Cl)Cl,didier14
12770,n-TRIACONTANE,475.0,1,CCCCCCCCCCCCCCCCCCCCCCCCCCCCCC,didier14
12771,ETHANOL,286.0,1,CCO,didier14
12772,ACETIC ACID,316.0,1,CC(=O)O,didier14
12773,cis-2-HEPTENE,265.0,1,C/C=C\CCCC,didier14
12774,trans-2-PENTENE,225.0,1,C/C=C/CC,didier14
12775,n-NONYL n-UNDECYL PHTHALATE,524.0,1,CCCCCCCCCCCOC(=O)c1ccccc1C(=O)OCCCCCCCCC,didier14
12776,BENZOIC ACID,394.3,1,O=C(O)c1ccccc1,didier14
12777,HEXANAL,300.0,1,CCCCCC=O,didier14
12778,METHANOL,284.0,1,CO,didier14
12779,ISOPROPANOL,285.1,1,CC(C)O,didier14
12780,THIOGLYCOLIC ACID,398.0,1,O=C(O)CS,didier14
12781,"N,N-DIMETHYLFORMAMIDE",331.0,1,CN(C)C=O,didier14
12782,"2,2,4-TRIMETHYL-1,3-PENTANEDIOL DIISOBUTYRATE",394.0,1,CC(C)C(=O)OCC(C)(C)C(OC(=O)C(C)C)C(C)C,didier14
12783,DIETHYLENE GLYCOL MONOPROPYL ETHER,372.0,1,CCCOCCOCCO,didier14
12784,MALIC ACID,515.0,1,O=C(O)CC(O)C(=O)O,didier14
12785,ISOPROPYLCYCLOHEXANE,308.1,1,CC(C)C1CCCCC1,didier14
12786,SALICYLIC ACID,430.0,1,O=C(O)c1ccccc1O,didier14
12787,"1,3-DIMETHYLADAMANTANE",325.1,1,CC12CC3CC(C1)CC(C)(C3)C2,didier14
12788,sec-BUTYLCYCLOHEXANE,319.0,1,CCC(C)C1CCCCC1,didier14
12789,1-PROPANOL,291.0,1,CCCO,didier14
12790,DICYCLOHEXYL SULFIDE,393.0,1,C1CCC(SC2CCCCC2)CC1,didier14
12791,1-BUTANOL,306.0,1,CCCCO,didier14
12792,1-PENTANOL,320.0,1,CCCCCO,didier14
12793,BENZENE,262.0,1,c1ccccc1,didier14
12794,"2,2,3,3-TETRAMETHYLPENTANE",289.0,1,CCC(C)(C)C(C)(C)C,didier14
12795,"3,3,5-TRIMETHYLHEPTANE",301.0,1,CCC(C)CC(C)(C)CC,didier14
12796,"2,2',2''-NITRILOTRIS-ACETONITRILE",487.0,1,N#CCN(CC#N)CC#N,didier14
12797,ETHANE,138.2,1,CC,didier14
12798,ETHYLENE,124.0,1,C=C,didier14
12799,METHYLAMINE,215.0,1,CN,didier14
12800,PROPANE,169.2,1,CCC,didier14
12801,ACETONITRILE,275.1,1,CC#N,didier14
12802,ACETALDEHYDE,235.0,1,CC=O,didier14
12803,DIMETHYL SULFIDE,237.2,1,CSC,didier14
12804,ISOPROPYL CHLORIDE,238.2,1,CC(C)Cl,didier14
12805,ISOPROPYLAMINE,236.2,1,CC(C)N,didier14
12806,ISOPROPYL MERCAPTAN,238.2,1,CC(C)S,didier14
12807,"1,1-DICHLOROETHANE",261.1,1,CC(Cl)Cl,didier14
12808,"1,1-DICHLOROETHYLENE",251.2,1,C=C(Cl)Cl,didier14
12809,NITROMETHANE,308.1,1,C[N+](=O)[O-],didier14
12810,2-METHYL-2-PROPANOL,284.3,1,CC(C)(C)O,didier14
12811,"2,3-DICHLOROBUTANE",291.1,1,CC(Cl)C(C)Cl,didier14
12812,2-METHYL-2-BUTANOL,293.1,1,CCC(C)(C)O,didier14
12813,ACETONE CYANOHYDRIN,336.1,1,CC(C)(O)C#N,didier14
12814,TRICHLOROACETALDEHYDE,323.0,1,O=CC(Cl)(Cl)Cl,didier14
12815,TRIPROPYLENE GLYCOL MONOETHYL ETHER,405.0,1,CCOC(C)COC(C)COC(C)CO,didier14
12816,t-BUTYL HYDROPEROXIDE,299.8,1,CC(C)(C)OO,didier14
12817,"3,3-DIMETHYL-2-BUTANONE",285.1,1,CC(=O)C(C)(C)C,didier14
12818,3-METHYL-1-PENTENE,245.2,1,C=CC(C)CC,didier14
12819,"3,4-DICHLORO-1-BUTENE",301.1,1,C=CC(Cl)CCl,didier14
12820,ETHYL-3-ETHOXYPROPIONATE,331.1,1,CCOCCC(=O)OCC,didier14
12821,cis-2-OCTENE,294.0,1,C/C=C\CCCCC,didier14
12822,cis-4-OCTENE,290.0,1,CCC/C=C\CCC,didier14
12823,CYCLOHEXYL PEROXIDE,381.0,1,C1CCC(OOC2CCCCC2)CC1,didier14
12824,3-METHYL-3-PENTANOL,297.1,1,CCC(C)(O)CC,didier14
12825,"1,2-DIMETHOXYPROPANE",273.7,1,COCC(C)OC,didier14
12826,CITRIC ACID,549.0,1,O=C(O)CC(O)(CC(=O)O)C(=O)O,didier14
12827,TRIMETHYLOLPROPANE,445.1,1,CCC(CO)(CO)CO,didier14
12828,"1,1-DIETHYLCYCLOHEXANE",322.1,1,CCC1(CC)CCCCC1,didier14
12829,ISOBUTYLAMINE,255.3,1,CC(C)CN,didier14
12830,ISOBUTYRONITRILE,281.5,1,CC(C)C#N,didier14
12831,2-METHYL-1-PROPANOL,301.0,1,CC(C)CO,didier14
12832,sec-BUTYL CHLORIDE,244.0,1,CCC(C)Cl,didier14
12833,"1,2-DICHLOROPROPANE",286.1,1,CC(Cl)CCl,didier14
12834,"2,3-DICHLOROPROPENE",283.1,1,C=C(Cl)CCl,didier14
12835,"1,2-PROPANEDIAMINE",306.1,1,CC(N)CN,didier14
12836,2-BUTANOL,296.1,1,CCC(C)O,didier14
12837,1-AMINO-2-PROPANOL,347.0,1,CC(O)CN,didier14
12838,LACTONITRILE,350.1,1,CC(O)C#N,didier14
12839,N-METHYLACETAMIDE,381.1,1,CNC(C)=O,didier14
12840,METHYL ACETATE,263.1,1,COC(C)=O,didier14
12841,PERACETIC ACID,313.1,1,CC(=O)OO,didier14
12842,METHYL CHLOROFORMATE,285.1,1,COC(=O)Cl,didier14
12843,NITROETHANE,301.0,1,CC[N+](=O)[O-],didier14
12844,ISOBUTYRIC ACID,329.1,1,CC(C)C(=O)O,didier14
12845,DICHLOROACETYL CHLORIDE,339.0,1,O=C(Cl)C(Cl)Cl,didier14
12846,DICHLOROACETIC ACID,383.1,1,O=C(O)C(Cl)Cl,didier14
12847,2-NITROPROPANE,297.1,1,CC(C)[N+](=O)[O-],didier14