smiles,compound,flashpoint,source,pure substance
Cc1ccnc(C)c1C,"2,3,4-trimethylpyridine",335.0499999999999,le15,1
Cc1ccc(N)cc1C,"Benzenamine, 3,4-dimethyl-",371.45,le15,1
CNCc1ccccc1,N-methyl-1-phenylmethanamine,350.95,le15,1
CCc1ccc(C)nc1,"Pyridine, 5-ethyl-2-methyl-",339.25,le15,1
CCc1cccc(N)c1,"Benzenamine, 3-ethyl- (9CI)",358.15,le15,1
CCc1ccc(N)cc1,"Aniline, p-ethyl- (8CI)",358.15,le15,1
CNc1ccc(C)cc1,"N,4-dimethylaniline",345.25,le15,1
CC(C)c1ccccn1,2-propan-2-ylpyridine,296.35,le15,1
Cc1cnc(C)c(C)c1,"2,3,5-trimethylpyridine",315.95,le15,1
O=Cc1ccccc1O,"Benzaldehyde, 2-hydroxy-",349.85,le15,1
O=Cc1ccc(O)cc1,"Benzaldehyde, 4-hydroxy-",374.45,le15,1
c1ccc2c(c1)OCO2,"Benzene, 1,2-methylenedioxy-",328.15,le15,1
CC1=CC(=O)C=CC1=O,"2,5-Cyclohexadiene-1,4-dione, 2-methyl-",338.0499999999999,le15,1
O=Cc1cccc(O)c1,"Benzaldehyde, 3-hydroxy-",371.75,le15,1
O=CC=Cc1ccco1,"2-Propenal, 3-(2-furanyl)-",361.95,le15,1
NC(=O)c1cccnc1,3-Pyridinecarboxamide,429.15,le15,1
OC[C@H](O)[C@H](O)CO,"1,2,3,4-Butanetetrol, (2R,3S)-rel-",481.95,le15,1
ON=Cc1ccncc1,"4-Pyridinecarboxaldehyde, oxime",345.25,le15,1
ON=Cc1ccccn1,"2-Pyridinecarboxaldehyde, oxime",346.65,le15,1
NC(=O)c1ccncc1,4-Pyridinecarboxamide,429.15,le15,1
O=S1(=O)CCCO1,"1,2-Oxathiolane, 2,2-dioxide",406.931,le15,1
OCCc1ccccc1,Phenethyl alcohol,371.55,le15,1
Cc1ccccc1CO,"Benzyl alcohol, o-methyl- (8CI)",377.55,le15,1
CCc1ccccc1O,"Phenol, 2-ethyl-",351.45,le15,1
Cc1ccc(O)cc1C,"Phenol, 3,4-dimethyl-",367.15,le15,1
COc1cccc(C)c1,1-methoxy-3-methylbenzene,327.15,le15,1
COc1ccc(C)cc1,"Benzene, 1-methoxy-4-methyl-",326.45,le15,1
COCc1ccccc1,"Ether, benzyl methyl (8CI)",326.15,le15,1
Cc1cccc(C)c1O,"Phenol, 2,6-dimethyl-",351.45,le15,1
COc1ccccc1C,1-methoxy-2-methylbenzene,324.15,le15,1
Cc1cccc(CO)c1,"Benzenemethanol, 3-methyl-",378.75,le15,1
Cc1ccc(CO)cc1,4-Methyl-benzenemethanol (9CI),378.15,le15,1
CCc1cccc(O)c1,"Phenol, m-ethyl- (8CI)",367.15,le15,1
CC(O)c1ccccc1,1-phenylethanol,358.15,le15,1
COC1=CC=CC=CC1,"Ether, 1,3,5-cycloheptatrien-1-yl methyl (7CI,8CI)",345.65,le15,1
CCOc1ccccc1,"Benzene, ethoxy-",328.15,le15,1
Cc1cc(C)cc(O)c1,"Phenol, 3,5-dimethyl-",365.45,le15,1
Cc1cc(N)ccc1N,"1,4-Benzenediamine, 2-methyl-",413.75,le15,1
Cc1ccc(N)cc1N,"1,3-Benzenediamine, 4-methyl-",422.65,le15,1
Cc1ccc(N)c(N)c1,"1,2-Benzenediamine, 4-methyl-",405.25,le15,1
Cc1c(N)cccc1N,"1,3-Benzenediamine, 2-methyl-",421.45,le15,1
CN(C)c1ccncc1,"4-Pyridinamine, N,N-dimethyl-",344.85,le15,1
Cc1cc(N)cc(C)n1,"2,6-dimethylpyridin-4-amine",399.607,le15,1
CN(C)c1ccccn1,"2-Pyridinamine, N,N-dimethyl- (9CI)",347.15,le15,1
Cc1cnc(C)c(C)n1,"2,3,5-Trimethylpyrazine",327.5499999999999,le15,1
CN(N)c1ccccc1,1-methyl-1-phenylhydrazine,366.75,le15,1
Cc1cccc(N)c1N,"1,2-Benzenediamine, 3-methyl-",404.25,le15,1
CCS(=O)(=O)CC,Ethyl sulfone (8CI),391.55,le15,1
CO[SiH](OC)OC,"Silane, trimethoxy-",268.75,le15,1
C#CCC1CCCCC1,prop-2-ynylcyclohexane,310.65,le15,1
C[Si]c1ccccc1,methyl(phenyl)silicon,311.65,le15,1
CCSSCC,Ethyl disulfide (8CI),313.15,le15,1
CSCCSC,"1,2-bis(methylsulfanyl)ethane",333.0499999999999,le15,1
CCSSCC,DiethylDisulfide,313.0,le15,1
COC(=O)C(=O)Cl,methyl 2-chloro-2-oxoacetate,319.85,le15,1
CC(C)OC(=O)Cl,"Carbonochloridic acid, 1-methylethyl ester",298.15,le15,1
CCCOC(=O)Cl,propyl carbonochloridate,302.25,le15,1
O=C(O)CCCCl,"Butyric acid, 4-chloro- (8CI)",374.25,le15,1
COC(=O)CCCl,methyl 3-chloropropanoate,313.65,le15,1
CCOCC(=O)Cl,2-ethoxyacetyl chloride,480.55,le15,1
COC(=O)C(C)Cl,methyl 2-chloropropanoate,310.75,le15,1
CCOC(=O)CCl,"Acetic acid, chloro-, ethyl ester",338.75,le15,1
CCOC(=O)CCl,Ethylchloroacetate,326.0,le15,1
CC(=O)Br,Acetyl bromide,322.75,le15,1
O=CCBr,"Acetaldehyde, bromo-",346.75,le15,1
ClCC#CCCl,"1,4-dichlorobut-2-yne",433.15,le15,1
C=C(Cl)C(=C)Cl,"2,3-dichlorobuta-1,3-diene",310.35,le15,1
CC(C)Br,"Propane, 2-bromo-",292.5499999999999,le15,1
O=C(O)c1cccnc1,3-Pyridinecarboxylic acid,403.85,le15,1
O=C(O)c1ccncc1,4-Pyridinecarboxylic acid,466.45,le15,1
NC(=O)c1cnccn1,2-Pyrazinecarboxamide,443.05,le15,1
COc1ccccc1N,"Benzenamine, 2-methoxy-",380.15,le15,1
OCCc1ccccn1,2-(2-Pyridyl)ethanol,365.95,le15,1
CNc1ccc(O)cc1,"Phenol, 4-(methylamino)- (9CI)",421.75,le15,1
COc1cccc(N)c1,"Benzenamine, 3-methoxy-",382.75,le15,1
Nc1cccc(CO)c1,"Benzenemethanol, 3-amino- (9CI)",402.75,le15,1
Cc1ccc(N)cc1O,"Phenol, 5-amino-2-methyl-",389.45,le15,1
Cc1cccc(O)c1N,"Phenol, 2-amino-3-methyl-",372.05,le15,1
Cc1ccc(N)c(O)c1,"Phenol, 2-amino-5-methyl-",372.95,le15,1
OCCc1ccncc1,4-Pyridineethanol,374.65,le15,1
Nc1ccccc1CO,"Benzenemethanol, 2-amino-",399.45,le15,1
Cc1ccc(O)c(N)c1,"p-Cresol, 2-amino- (8CI)",371.75,le15,1
COc1ccc(N)cc1,"Benzenamine, 4-methoxy-",377.65,le15,1
CC(=O)c1cccn1C,"Ethanone, 1-(1-methyl-1H-pyrrol-2-yl)-",349.35,le15,1
CCc1c(C)c[nH]c1C,"3-ethyl-2,4-dimethyl-1H-pyrrole",344.15,le15,1
CCCCn1cccc1,1-butylpyrrole,330.0499999999999,le15,1
CC(C)(Cl)[N+](=O)[O-],"Propane, 2-chloro-2-nitro-",310.5499999999999,le15,1
CC(Cl)C[N+](=O)[O-],2-chloro-1-nitropropane,332.95,le15,1
CC(CCl)[N+](=O)[O-],"Propane, 1-chloro-2-nitro-",332.95,le15,1
N#CC(Cl)CCl,"Propionitrile, 2,3-dichloro- (6CI,7CI,8CI)",357.0499999999999,le15,1
COP(OC)OC,"Phosphorous acid, trimethyl ester",356.85,le15,1
COP(C)(=O)OC,"Phosphonic acid, methyl-, dimethyl ester",342.0499999999999,le15,1
OCP(CO)CO,"Methanol, phosphinidynetri- (7CI,8CI)",415.45,le15,1
COP(OC)OC,Trimethylphosphite,300.0,le15,1
CCOC(=O)C(F)F,"Acetic acid, 2,2-difluoro-, ethyl ester",298.15,le15,1
O=C(F)c1ccccc1,benzoyl fluoride,327.45,le15,1
O=Cc1cccc(F)c1,"Benzaldehyde, m-fluoro- (8CI)",329.85,le15,1
O=Cc1ccc(F)cc1,"Benzaldehyde, p-fluoro- (8CI)",329.85,le15,1
O=Cc1ccccc1F,"Benzaldehyde, o-fluoro- (8CI)",328.15,le15,1
O=S1(=O)OCCO1,"1,3,2-Dioxathiolane, 2,2-dioxide",366.65,le15,1
COc1ccccc1O,"Phenol, 2-methoxy-",355.35,le15,1
Cc1cc(O)ccc1O,"1,4-Benzenediol, 2-methyl-",413.35,le15,1
COc1cccc(O)c1,"Phenol, 3-methoxy-",392.25,le15,1
COc1ccc(O)cc1,"Phenol, 4-methoxy-",393.95,le15,1
Cc1ccc(O)c(O)c1,"1,2-Benzenediol, 4-methyl- (9CI)",394.25,le15,1
Cc1cccc(O)c1O,"1,2-Benzenediol, 3-methyl-",389.85,le15,1
Cc1ccc(O)cc1O,"4-methylbenzene-1,3-diol",403.25,le15,1
Cc1cc(O)cc(O)c1,"1,3-Benzenediol, 5-methyl-",432.15,le15,1
Cc1c(O)cccc1O,"1,3-Benzenediol, 2-methyl-",416.05,le15,1
OCc1cccc(O)c1,"Benzyl alcohol, m-hydroxy- (8CI)",420.485,le15,1
Cc1cc(C)oc(=O)c1,"4,6-dimethylpyran-2-one",363.25,le15,1
Cc1cc(=O)cc(C)o1,"2,6-dimethylpyran-4-one",376.55,le15,1
OCc1ccc(O)cc1,"Benzyl alcohol, p-hydroxy- (8CI)",418.95,le15,1
CCOS(C)(=O)=O,ethyl methanesulfonate,373.15,le15,1
C#CC1(O)CCCCC1,"Cyclohexanol, 1-ethynyl-",346.15,le15,1
CC1CC=CCC1C=O,"3-Cyclohexene-1-carboxaldehyde, 6-methyl-",326.35,le15,1
C=CC1CCC2OC2C1,"7-Oxabicyclo(4.1.0)heptane, 3-ethenyl-",321.25,le15,1
CC(=O)C1=CCCCC1,1-(cyclohexen-1-yl)ethanone,346.35,le15,1
CC1=CC(=O)CC(C)C1,"3,5-dimethylcyclohex-2-en-1-one",352.15,le15,1
CC(C)(C)c1ccco1,2tertbutylfuran,280.0,le15,1
SCc1ccccc1,Benzenemethanethiol,343.15,le15,1
CSc1ccccc1,"Sulfide, methyl phenyl (6CI,8CI)",330.35,le15,1
Cc1cccc(S)c1,3-methylbenzenethiol,345.95,le15,1
Cc1ccccc1S,2-methylbenzenethiol,337.0499999999999,le15,1
Cc1ccc(S)cc1,4-methylbenzenethiol,342.65,le15,1
SCc1ccccc1,Benzenemethanethiol,343.0,le15,1
C1CC2CCCC(C1)C2,bicyclo[3.3.1]nonane,310.45,le15,1
C1CCC2CCCC2C1,"1H-Indene, octahydro-",310.45,le15,1
CC#CCCCCCC,non-2-yne,312.15,le15,1
CCC#CCCCCC,non-3-yne,310.75,le15,1
CCCC#CCCCC,non-4-yne,311.45,le15,1
COC(CCl)OC,"2-chloro-1,1-dimethoxyethane",302.039,le15,1
OCCOCCCl,"Ethanol, 2-(2-chloroethoxy)-",363.75,le15,1
CCSC(=O)Cl,"Formic acid, chlorothio-, S-ethyl ester (7CI,8CI)",303.75,le15,1
FCCCCCCl,1-chloro-5-fluoropentane,310.0499999999999,le15,1
CCSCCCl,"Sulfide, 2-chloroethyl ethyl (8CI)",325.15,le15,1
O=CC=C(Cl)Cl,"2-Propenal, 3,3-dichloro- (9CI)",327.15,le15,1
OCCBr,2-Bromo-1-ethanol,313.15,le15,1
COCBr,bromo(methoxy)methane,299.85,le15,1
ClCC=CCCl,"2-Butene, 1,4-dichloro-",327.5499999999999,le15,1
C=C(CCl)CCl,"1-Propene, 3-chloro-2-(chloromethyl)- (9CI)",309.85,le15,1
C/C=C(\Cl)CCl,"(Z)-1,2-dichlorobut-2-ene",305.5499999999999,le15,1
CCN1C(=O)C=CC1=O,"1H-Pyrrole-2,5-dione, 1-ethyl-",346.15,le15,1
C=C(C#N)C(=O)OCC,"2-Propenoic acid, 2-cyano-, ethyl ester",352.35,le15,1
Cc1nc(N)nc(N)n1,"s-Triazine, 2,4-diamino-6-methyl- (8CI)",525.15,le15,1
CNc1ccc(F)cc1,4-Fluoro-N-methylaniline,336.65,le15,1
N#CC1(O)CCCCC1,1-Hydroxy-1-cyclohexanecarbonitrile,385.25,le15,1
Nc1ccccc1S,"Benzenethiol, 2-amino-",368.95,le15,1
CN1C2CCCC1CC2,8-methyl-8-azabicyclo[3.2.1]octane,315.35,le15,1
C1CCC2NCCC2C1,"2,3,3a,4,5,6,7,7a-octahydro-1H-indole",332.5499999999999,le15,1
CCCCCCCC#N,Octanenitrile,346.0,le15,1
COP(=O)([O-])OC,"Phosphoric acid, dimethyl ester",323.5499999999999,le15,1
CCOP(=O)([O-])[O-],"Phosphoric acid, monoethyl ester",379.55,le15,1
O=P(O)(CO)CO,Bis-(hydroxymethyl)-phosphinic acid,578.25,le15,1
O=Cc1ccc(CO)o1,"2-Furancarboxaldehyde, 5-(hydroxymethyl)-",352.5499999999999,le15,1
Oc1cc(O)cc(O)c1,"1,3,5-Benzenetriol",448.05,le15,1
Cc1occc(=O)c1O,"4H-Pyran-4-one, 3-hydroxy-2-methyl-",400.47,le15,1
Oc1ccc(O)c(O)c1,"1,2,4-Trihydroxybenzene",307.35,le15,1
COC(=O)c1ccco1,"2-Furancarboxylic acid, methyl ester",331.75,le15,1
Cc1cc(O)nc(=O)[nH]1,"2(1H)-Pyrimidinone, 4-hydroxy-6-methyl- (8CI)",481.15,le15,1
COc1ccccc1F,1-fluoro-2-methoxybenzene,322.95,le15,1
COc1cccc(F)c1,1-fluoro-3-methoxybenzene,317.0499999999999,le15,1
OCc1ccc(F)cc1,"Benzenemethanol, 4-fluoro- (9CI)",363.15,le15,1
COc1ccc(F)cc1,1-fluoro-4-methoxybenzene,316.15,le15,1
COS(=O)(=O)OC,"Sulfuric acid, dimethyl ester",356.48299999999995,le15,1
C=CCOC(=O)C(=C)C,"2-Propenoic acid, 2-methyl-, 2-propenyl ester",310.15,le15,1
O=C(O)C1=CCCCC1,cyclohexene-1-carboxylic acid,384.15,le15,1
C/C=C/C=C/C(=O)OC,"methyl (2E,4E)-hexa-2,4-dienoate",343.15,le15,1
C/C=C/C=C/C(=O)OC,"methyl (2E,4E)-hexa-2,4-dienoate",336.25,le15,1
CC(=O)C1CCCC1=O,2-Acetylcyclopentan-1-one,345.95,le15,1
O=C(O)C1CC=CCC1,Cyclohex-3-ene-1-carboxylic acid,383.05,le15,1
CCOCc1ccco1,2-(ethoxymethyl)furan,314.35,le15,1
N#CCN1CCOCC1,4-Morpholineacetonitrile,360.15,le15,1
Oc1ccccc1S,"Phenol, o-mercapto- (6CI,7CI,8CI)",362.25,le15,1
CC(=O)c1cccs1,1-thiophen-2-ylethanone,355.5499999999999,le15,1
CC(=O)c1ccsc1,1-thiophen-3-ylethanone,342.15,le15,1
C#CC(C)(O)CC(C)C,"1-Hexyn-3-ol, 3,5-dimethyl-",317.5499999999999,le15,1
CC(=O)CCC=C(C)C,"5-Hepten-2-one, 6-methyl-",323.15,le15,1
C1CCCC2OC2CC1,9-Oxabicyclo(6.1.0)nonane (8CI)(9CI),329.25,le15,1
CCCC=C(C=O)CC,"2-Hexenal, 2-ethyl-",341.15,le15,1
CC(=O)C1CCCCC1,1-cyclohexylethanone,334.5499999999999,le15,1
CC1(C)CCCCC1=O,"2,2-dimethylcyclohexan-1-one",323.25,le15,1
CC/C(C)=C(/C)C(C)=O,"(Z)-3,4-dimethylhex-3-en-2-one",334.5499999999999,le15,1
CC1CCCC(C)C1=O,"2,6-dimethylcyclohexan-1-one",326.95,le15,1
CC1(C)CCCC(=O)C1,"3,3-dimethylcyclohexan-1-one",323.25,le15,1
OCC1CC2CCC1C2,Bicyclo(2.2.1)heptane-2-methanol,357.15,le15,1
CCC1CCC(=O)CC1,4-ethylcyclohexan-1-one,331.65,le15,1
C=CCC(C)(O)CC=C,"4-methylhepta-1,6-dien-4-ol",341.95,le15,1
CC1CC(=O)C(C)(C)C1,"2,2,4-trimethylcyclopentan-1-one",318.5499999999999,le15,1
O=C1CCCCCCC1,cyclooctanone,345.92800000000005,le15,1
CC1CC(C)(C)CC1=O,"2,4,4-trimethylcyclopentan-1-one",318.5499999999999,le15,1
CCCc1cccs1,2-propylthiophene,305.45,le15,1
Cc1cc(C)c(C)s1,"2,3,5-trimethylthiophene",309.35,le15,1
CCc1sccc1C,2-ethyl-3-methylthiophene,306.85,le15,1
CC1CCCC(C)C1C,"1,2,3-trimethylcyclohexane",301.0499999999999,le15,1
CCCC1CCCCC1,propylcyclohexane,308.15,le15,1
CC1CC(C)CC(C)C1,"1,3,5-trimethylcyclohexane",301.0499999999999,le15,1
CC1CC(C)CC(C)C1,"1,3,5-Trimethylcyclohexane",301.0499999999999,le15,1
CCCCC1CCCC1,butylcyclopentane,307.85,le15,1
CC1CCCC(C)(C)C1,"1,1,3-trimethylcyclohexane",298.35,le15,1
CC(C)CC1CCCC1,2-methylpropylcyclopentane,304.65,le15,1
CCC1CCCCC1C,1-ethyl-2-methylcyclohexane,305.0499999999999,le15,1
CCC1(C)CCCCC1,1-ethyl-1-methylcyclohexane,302.35,le15,1
CC1CCCCC1(C)C,"1,1,2-trimethylcyclohexane",298.35,le15,1
CC1[C@H](C)CCC[C@H]1C,"(1R,3R)-1,2,3-trimethylcyclohexane",301.0499999999999,le15,1
CC1CCC(C)C(C)C1,"1,2,4-trimethylcyclohexane",301.0499999999999,le15,1
CC[C@@H]1CCC[C@H](C)C1,"(1R,3S)-1-ethyl-3-methylcyclohexane",305.0499999999999,le15,1
CC1(C)CCC(C)(C)C1,"1,1,3,3-tetramethylcyclopentane",291.0499999999999,le15,1
C=CCCCCCCC,1-Nonene,297.15,le15,1
CC(C)C1CCCCC1,propan-2-ylcyclohexane,308.75,le15,1
C/C=C/CCCCCC,(E)-non-2-ene,305.35,le15,1
CC(C)C1CCCCC1,IsopropylCyclohexane,308.0,le15,1
CCCC1CCCCC1,propylcyclohexane,308.0,le15,1
ClCc1ccccc1,"Benzene, (chloromethyl)-",347.039,le15,1
Cc1ccc(Cl)cc1,4chlorotoluene,322.0,le15,1
O=C(Cl)C(=O)Cl,oxalyl dichloride,277.65,le15,1
FCCBr,"Ethane, 1-bromo-2-fluoro-",272.15,le15,1
CC(=O)C(Cl)Cl,"2-Propanone, 1,1-dichloro-",297.5499999999999,le15,1
O=C(Cl)CCCl,3-chloropropanoyl chloride,334.85,le15,1
O=C(CCl)CCl,"2-Propanone, 1,3-dichloro-",362.15,le15,1
CCCC(Cl)Cl,"1,1-dichlorobutane",291.45,le15,1
CC(C)C(Cl)Cl,"1,1-dichloro-2-methylpropane",288.75,le15,1
CC(C)C(Cl)Cl,"1,1-dichloro-2-methylpropane",288.85,le15,1
CC(Cl)CCCl,"1,3-dichlorobutane",303.75,le15,1
C[C@@H](Cl)[C@@H](C)Cl,"(2R,3R)-2,3-dichlorobutane",291.45,le15,1
CCC(C)(Cl)Cl,"2,2-dichlorobutane",288.75,le15,1
ClCCCCCl,"Butane, 1,4-dichloro-",313.95,le15,1
Nc1nc(=O)cc(O)[nH]1,"4(1H)-Pyrimidinone, 2-amino-6-hydroxy-",553.55,le15,1
Cn1cncc1[N+](=O)[O-],1-Methyl-5-nitro-1H-imidazole,425.85,le15,1
Cn1ccnc1[N+](=O)[O-],"1H-Imidazole, 1-methyl-2-nitro- (9CI)",413.75,le15,1
O=C1CCCCC(=O)N1,Adipimide,421.95,le15,1
N#CCCCCC(=O)O,"Valeric acid, 5-cyano-",419.55,le15,1
CC(=O)N1CCCCC1,1-piperidin-1-ylethanone,370.15,le15,1
O=CNC1CCCCC1,N-cyclohexylformamide,422.15,le15,1
CN1CCCCCC1=O,"2H-Azepin-2-one, hexahydro-1-methyl- (8CI)(9CI)",376.45,le15,1
C=CC(=O)N(CC)CC,"2-Propenamide, N,N-diethyl- (9CI)",364.625,le15,1
CC(C)N1CCCC1=O,"2-Pyrrolidinone, 1-(1-methylethyl)-",366.15,le15,1
CCCCOCCC#N,"Propanenitrile, 3-butoxy-",361.35,le15,1
CCC1CCC(C)NC1,"Piperidine, 5-ethyl-2-methyl-",317.35,le15,1
CCCCN1CCCC1,1-butylpyrrolidine,309.25,le15,1
NC1CCCCCCC1,cyclooctanamine,335.95,le15,1
CCNC1CCCCC1,"Cyclohexanamine, N-ethyl-",316.0499999999999,le15,1
CCCN1CCCCC1,1-propylpiperidine,312.95,le15,1
CCCC1CCNCC1,4-propylpiperidine,321.5499999999999,le15,1
CNCC1CCCCC1,"Cyclohexanemethylamine, N-methyl-",314.45,le15,1
CCCC1CCCCN1,2-propylpiperidine,321.5499999999999,le15,1
Nc1ccccc1Cl,"Benzenamine, 2-chloro-",371.15,le15,1
Nc1cccc(Cl)c1,"Benzenamine, 3-chloro-",397.05,le15,1
Cc1cccc(Cl)n1,6-Chloro-2-methylpyridine,346.15,le15,1
Nc1ccc(Cl)cc1,"Benzenamine, 4-chloro-",333.85,le15,1
Cc1ccnc(Cl)c1,2-chloro-4-methylpyridine,362.75,le15,1
C[As](F)F,difluoro(methyl)arsane,279.04999999999995,le15,1
NC(=O)C(Cl)Cl,"Acetamide, 2,2-dichloro-",377.45,le15,1
COC(=O)C(F)(F)F,"methyl 2,2,2-trifluoroacetate",266.15,le15,1
O=C1CC(=O)NC(=O)N1,"2,4,6(1H,3H,5H)-Pyrimidinetrione",423.15,le15,1
CC(C)(O)C(F)(F)F,"1,1,1-Trifluoro-2-methylpropan-2-ol",320.5499999999999,le15,1
OCCCC(F)(F)F,"4,4,4-trifluorobutan-1-ol",306.95,le15,1
N#Cc1ccc(C#N)cc1,"1,4-Benzenedicarbonitrile",415.95,le15,1
O=C1OC2CCCC1O2,"6,8-Dioxabicyclo(3.2.1)octan-7-one",362.95,le15,1
N#Cc1ccccc1C#N,"1,2-Benzenedicarbonitrile",426.45,le15,1
C=CC(=O)OCC1CO1,"2-Propenoic acid, oxiranylmethyl ester",349.25,le15,1
N#Cc1cccc(C#N)c1,"1,3-Benzenedicarbonitrile",416.15,le15,1
O=C(O)C1CCCCC1,Cyclohexanecarboxylic acid,380.15,le15,1
C=CC(=O)OCC(C)C,"2-Propenoic acid, 2-methylpropyl ester",305.95,le15,1
C=CC(=O)OCCCC,Acrylic acid butyl ester (8CI),312.5499999999999,le15,1
C=CCCCCC(=O)O,hept-6-enoic acid,386.45,le15,1
O=C(O)CC1CCCC1,2-cyclopentylacetic acid,387.15,le15,1
CC(=O)OCC=C(C)C,"2-Buten-1-ol, 3-methyl-, acetate",322.15,le15,1
CC1CCCCOC1=O,"2-Oxepanone, methyl-",359.15,le15,1
C=C(C)C(=O)OCCC,"2-Propenoic acid, 2-methyl-, propyl ester",307.85,le15,1
CC(=O)C(C)(C)C(C)=O,"3,3-dimethylpentane-2,4-dione",330.15,le15,1
C=COC(=O)CCCC,ethenyl pentanoate,311.5499999999999,le15,1
O=COC1CCCCC1,cyclohexyl formate,326.45,le15,1
CC(=O)CC(C)C(C)=O,"3-methylhexane-2,5-dione",344.15,le15,1
C=C(C)C(=O)OC(C)C,"2-Propenoic acid, 2-methyl-, 1-methylethyl ester",304.15,le15,1
C/C=C(\C)C(=O)OCC,"Crotonic acid, 2-methyl-, ethyl ester, (E)- (8CI)",317.15,le15,1
CCC(=O)CC(=O)CC,"3,5-Heptanedione",336.5499999999999,le15,1
C#CC(OCC)OCC,"3,3-diethoxyprop-1-yne",305.35,le15,1
CC(=O)C(=O)CC(C)C,"2,3-Hexanedione, 5-methyl-",306.15,le15,1
CCOC(=O)C1CCC1,ethyl cyclobutanecarboxylate,316.35,le15,1
CCOC1CCC=CO1,"3,4-Dihydro-2H-pyran-2-yl ethyl ether",297.5499999999999,le15,1
CCOC(=O)C=C(C)C,"2-Butenoic acid, 3-methyl-, ethyl ester",307.0499999999999,le15,1
CC1CC(=O)CC(C)O1,"4H-Pyran-4-one, tetrahydro-2,6-dimethyl-",338.65,le15,1
CCC(C(C)=O)C(C)=O,"3-ethylpentane-2,4-dione",333.35,le15,1
C=CC(=O)OC(C)(C)C,"Acrylic acid, tert-butyl ester (8CI)",304.75,le15,1
C=CCOC(=O)CCC,"Butanoic acid, 2-propenyl ester",314.85,le15,1
CCCC/C=C/C(=O)O,(E)-hept-2-enoic acid,406.55,le15,1
C=CC(=O)OCCCC,butyl2propenoat,310.0,le15,1
O=NN1CCCCCC1,"1H-Azepine, hexahydro-1-nitroso-",376.35,le15,1
CN1CCCN(C)C1=O,"2(1H)-Pyrimidinone, tetrahydro-1,3-dimethyl-",358.45,le15,1
CCCCCC(=O)CC,octan-3-one,319.15,le15,1
CC(C)(C)CC1(C)CO1,"2-(2,2-dimethylpropyl)-2-methyloxirane",301.15,le15,1
CCCCC(C=O)CC,"Hexanal, 2-ethyl-",323.15,le15,1
CC(=O)CCCC(C)C,6-methylheptan-2-one,317.75,le15,1
CC(O)C1CCCCC1,"Cyclohexanemethanol, alpha-methyl-",346.15,le15,1
CC(C)=CCCC(C)O,6-methylhept-5-en-2-ol,340.95,le15,1
CCCCC(C)C(C)=O,3-methylheptan-2-one,317.75,le15,1
CCCCCCC1CO1,"Oxirane, hexyl- (9CI)",310.35,le15,1
CC1(C)COC(C)(C)C1,"2,2,4,4-tetramethyloxolane",297.45,le15,1
C=CC(O)CCCCC,Oct-1-ene-3-ol,334.25,le15,1
CC1(O)CCCCCC1,1-methylcycloheptan-1-ol,344.75,le15,1
OCCC1CCCCC1,"Ethanol, 2-cyclohexyl-",359.85,le15,1
C=COCCCCCC,1-ethenoxyhexane,282.95,le15,1
CC1CC(C)CC(O)C1,"3,5-dimethylcyclohexan-1-ol",346.45,le15,1
CC1CCC(O)CC1C,"3,4-dimethylcyclohexan-1-ol",351.45,le15,1
CCCCC(=O)C(C)C,2-methylheptan-3-one,317.35,le15,1
CC1(C)CCC(C)(C)O1,"Furan, tetrahydro-2,2,5,5-tetramethyl-",277.04999999999995,le15,1
CCCC(=O)C(C)CC,3-methylheptan-4-one,317.75,le15,1
CCC(C)C(C)C(C)=O,"3,4-dimethylhexan-2-one",307.35,le15,1
CCCC(C)(C)C(C)=O,"3,3-dimethylhexan-2-one",307.5499999999999,le15,1
CC(C)CC(=O)C(C)C,"2,5-dimethylhexan-3-one",307.35,le15,1
CCC1(O)CCCCC1,1-ethylcyclohexan-1-ol,341.35,le15,1
C=CC(C)(O)CC(C)C,"3,5-dimethylhex-1-en-3-ol",313.25,le15,1
CCCC(=O)C(C)(C)C,tert-Butyl propyl ketone,307.5499999999999,le15,1
CCCCCC(=O)CC,3octanone,326.0,le15,1
CCC(=O)CC(C)CC,5methyl3heptanone,316.0,le15,1
CC1CN(C)CCN1C,"1,2,4-trimethylpiperazine",304.25,le15,1
CC(C)N1CCNCC1,"Piperazine, 1-(1-methylethyl)- (9CI)",329.5499999999999,le15,1
CCN1CCCC(N)C1,1-ethylpiperidin-3-amine,333.75,le15,1
CCC(C)C(C)C(C)C,"2,3,4-trimethylhexane",301.15,le15,1
CCCC(C)C(C)CC,"3,4-dimethylheptane",333.15,le15,1
CCC(C)CC(C)CC,"3,5-dimethylheptane",328.0499999999999,le15,1
CCC(CC)(CC)CC,"3,3-diethylpentane",305.95,le15,1
CC(C)(C)CC(C)(C)C,"2,2,4,4-tetramethylpentane",292.45,le15,1
CCCCCC(C)(C)C,"2,2-dimethylheptane",297.5499999999999,le15,1
CC(C)CCCC(C)C,"2,6-dimethylheptane",326.25,le15,1
CC(C)C(C)C(C)(C)C,"2,2,3,4-tetramethylpentane",298.65,le15,1
CCC(C)CCC(C)C,"2,5-dimethylheptane",327.35,le15,1
CCCC(CC)CCC,4-ethylheptane,297.15,le15,1
CCCCCC(C)CC,3-methyloctane,298.45,le15,1
CCCCC(C)C(C)C,"Heptane, 2,3-dimethyl-",333.25,le15,1
CCCC(C)(CC)CC,3-ethyl-3-methylhexane,302.35,le15,1
CCCCC(C)(C)CC,"3,3-dimethylheptane",300.35,le15,1
CCC(C)(C)C(C)(C)C,"2,2,3,3-tetramethylpentane",302.15,le15,1
CCCCC(CC)CC,3-ethylheptane,298.25,le15,1
CCCC(C)C(C)(C)C,"2,2,3-trimethylhexane",298.5499999999999,le15,1
CCC(C)CC(C)(C)C,"2,2,4-trimethylhexane",294.0499999999999,le15,1
CCCC(C)(C)C(C)C,"2,3,3-trimethylhexane",300.85,le15,1
CCC(C)(C)CC(C)C,"2,4,4-trimethylhexane",296.25,le15,1
CC(C)C(C)(C)C(C)C,"2,3,3,4-tetramethylpentane",302.65,le15,1
CCCC(CC)C(C)C,3-ethyl-2-methylhexane,330.45,le15,1
CCCCC(C)CCC,4-methyloctane,297.35,le15,1
CCC(CC)CC(C)C,4-ethyl-2-methylhexane,325.35,le15,1
CCCCCCC(C)C,2-methyloctane,298.35,le15,1
CCC(C)C(C)(C)CC,"3,3,4-trimethylhexane",301.75,le15,1