smiles,compound,flashpoint,source,pure substance
Cc1cccc(C(=O)O)c1O,"Benzoic acid, 2-hydroxy-3-methyl-",418.55,le15,1
COc1ccc(C(=O)O)cc1,4-methoxybenzoic acid,388.61,le15,1
COC(=O)c1ccccc1O,"Benzoic acid, 2-hydroxy-, methyl ester",359.95,le15,1
COc1cc(C=O)ccc1O,"Benzaldehyde, 4-hydroxy-3-methoxy-",390.75,le15,1
O=C(O)COc1ccccc1,"Acetic acid, phenoxy-",388.25,le15,1
COc1cccc(C=O)c1O,"m-Anisaldehyde, 2-hydroxy- (8CI)",367.15,le15,1
O=C(O)Cc1ccccc1O,2-(2-hydroxyphenyl)acetic acid,435.75,le15,1
COc1ccc(C=O)cc1O,"p-Anisaldehyde, 3-hydroxy- (8CI)",393.05,le15,1
COc1ccc(O)c(C=O)c1,2-hydroxy-5-methoxybenzaldehyde,381.25,le15,1
COC(=O)c1cccc(O)c1,methyl 3-hydroxybenzoate,399.85,le15,1
CC(=O)c1ccc(O)cc1O,"Ethanone, 1-(2,4-dihydroxyphenyl)-",434.25,le15,1
OC[C@H](O)[C@@H](O)[C@H](O)CO,Xylitol,535.05,le15,1
Cc1ccc(N)c([N+](=O)[O-])c1,"Benzenamine, 4-methyl-2-nitro-",410.15,le15,1
Cc1cc([N+](=O)[O-])ccc1N,"Benzenamine, 2-methyl-4-nitro-",430.35,le15,1
Cc1ccc(N)cc1[N+](=O)[O-],"Benzenamine, 4-methyl-3-nitro-",412.05,le15,1
Cc1cccc([N+](=O)[O-])c1N,"Benzenamine, 2-methyl-6-nitro- (9CI)",409.25,le15,1
Cc1ccc([N+](=O)[O-])c(N)c1,5-Methyl-o-nitroaniline,415.95,le15,1
Cc1c(N)cccc1[N+](=O)[O-],"Benzenamine, 2-methyl-3-nitro- (9CI)",411.25,le15,1
NNc1ccc(C(=O)O)cc1,"Benzoic acid, 4-hydrazinyl-",455.05,le15,1
Cc1ccc([N+](=O)[O-])cc1N,"Benzenamine, 2-methyl-5-nitro-",426.15,le15,1
CNc1ccc([N+](=O)[O-])cc1,"Aniline, N-methyl-p-nitro- (8CI)",402.65,le15,1
S=c1[nH]cnc2nc[nH]c12,"6H-Purine-6-thione, 1,7-dihydro- (9CI)",528.55,le15,1
CC(C)(OO)c1ccccc1,"Hydroperoxide, alpha,alpha-dimethylbenzyl-",329.25,le15,1
OCCOCc1ccccc1,"Ethanol, 2-(phenylmethoxy)-",383.15,le15,1
Cc1cc(O)c(C)c(C)c1O,"1,4-Benzenediol, 2,3,5-trimethyl-",464.15,le15,1
CCc1ccc(O)c(OC)c1,4-ethyl-2-methoxyphenol,380.85,le15,1
C1C2CC3OC3C2CC2OC12,"Indan, 1,2:5,6-diepoxyhexahydro-",391.45,le15,1
COc1cc(C)cc(OC)c1,"1,3-dimethoxy-5-methylbenzene",374.85,le15,1
COc1cccc(C)c1OC,"1,2-dimethoxy-3-methylbenzene",340.75,le15,1
COc1cccc(OC)c1C,"2,6-Dimethoxytoluene",369.85,le15,1
COc1ccccc1C(C)O,1-(2-methoxyphenyl)ethanol,383.95,le15,1
COc1ccc(C)cc1OC,"1,2-dimethoxy-4-methylbenzene",358.15,le15,1
CC(C)c1ccc(O)c(O)c1,"4-propan-2-ylbenzene-1,2-diol",402.35,le15,1
CC(CO)Oc1ccccc1,"1-Propanol, 2-phenoxy-",377.55,le15,1
CCCOc1ccccc1O,2-propoxyphenol,370.35,le15,1
Cc1cc(=O)nc(C(C)C)[nH]1,"4(1H)-Pyrimidinone, 6-methyl-2-(1-methylethyl)-",366.35,le15,1
COc1cc(N)c(C)cc1N,"Toluene-2,5-diamine, 4-methoxy-",433.45,le15,1
CCOc1ccc(N)cc1N,"1,3-Benzenediamine, 4-ethoxy- (9CI)",439.55,le15,1
CCOc1ccc(N)c(N)c1,"4-ethoxybenzene-1,2-diamine",436.95,le15,1
NC(=S)Nc1ccccc1,"Urea, 1-phenyl-2-thio-",388.25,le15,1
CCCCOS(C)(=O)=O,"Methanesulfonic acid, butyl ester",375.15,le15,1
CO[Si](OC)(OC)OC,tetramethyl silicate,302.0499999999999,le15,1
CC12CCC(CC1=O)C2(C)C,"Bicyclo(2.2.1)heptan-2-one, 1,7,7-trimethyl-",337.5499999999999,le15,1
CC1=CC(=O)C(C(C)C)CC1,"2-Cyclohexen-1-one, 3-methyl-6-(1-methylethyl)-",364.05,le15,1
C=C(C)C1CC=C(C)C(O)C1,"2-Cyclohexen-1-ol, 2-methyl-5-(1-methylethenyl)-",364.35,le15,1
CC1(C)[C@H]2CC[C@]1(C)C(=O)C2,"Bicyclo(2.2.1)heptan-2-one, 1,7,7-trimethyl-, (1S,4S)-",337.5499999999999,le15,1
C=C1[C@H]2C[C@@]2(C(C)C)C[C@H]1O,"(1S,3R,5S)-2-methylidene-5-propan-2-ylbicyclo[3.1.0]hexan-3-ol",356.85,le15,1
CC1(C)C2CC=C(CO)C1C2,"6,6-Dimethyl-2-(hydroxymethyl)bicyclo[3.1.1]hept-2-ene",362.55,le15,1
CC(C)[C@]12CC(=O)[C@H](C)[C@H]1C2,"Bicyclo(3.1.0)hexan-3-one, 4-methyl-1-(1-methylethyl)-, (1S,4R,5R)-",337.5499999999999,le15,1
CC12CCC(C1)C(C)(C)C2=O,"Bicyclo(2.2.1)heptan-2-one, 1,3,3-trimethyl-",325.95,le15,1
CC(C)=CC1CC(C)=CCO1,"2H-Pyran, 3,6-dihydro-4-methyl-2-(2-methylpropenyl)- (7CI)",343.95,le15,1
CC1=CCC2CC1OC2(C)C,"4,7,7-trimethyl-6-oxabicyclo[3.2.1]oct-3-ene",336.35,le15,1
CC(C)=CCC1CCCC1=O,"Cyclopentanone, 2-(3-methyl-2-buten-1-yl)-",353.65,le15,1
CC1(C)C(=O)[C@@]2(C)CC[C@@H]1C2,"Bicyclo(2.2.1)heptan-2-one, 1,3,3-trimethyl-, (1S,4R)-",325.95,le15,1
O=C1CCCC1C1CCCC1,2-cyclopentylcyclopentan-1-one,363.45,le15,1
C=C(C)C1CCC(C)C(=O)C1,"Cyclohexanone, 2-methyl-5-(1-methylethenyl)-",354.25,le15,1
CC12CCC(C(=O)C1)C2(C)C,"4,7,7-trimethylbicyclo[2.2.1]heptan-2-one",342.45,le15,1
CC(C)C1CC=C(C=O)CC1,4-propan-2-ylcyclohexene-1-carbaldehyde,356.75,le15,1
CC(C)=CCC/C(C)=C/C=O,"2,6-Octadienal, 3,7-dimethyl-, (2E)-",374.85,le15,1
C=C(C)C1CC=C(CO)CC1,"1-Cyclohexene-1-methanol, 4-(1-methylethenyl)-",372.75,le15,1
CC1(C)C2CCC3(CO3)C1C2,"Spiro(bicyclo(3.1.1)heptane-2,2'-oxirane), 6,6-dimethyl-",339.15,le15,1
C[C@@H]1C(=O)C[C@H]2C[C@@H]1C2(C)C,"(1R,4S,5S)-4,6,6-trimethylbicyclo[3.1.1]heptan-3-one",345.95,le15,1
CC12CCC(CC1=O)C2(C)C,Camphor,339.0,le15,1
CCSc1ccc(C)cc1,1-ethylsulfanyl-4-methylbenzene,359.15,le15,1
CC(C)Sc1ccccc1,propan-2-ylsulfanylbenzene,356.35,le15,1
C1CCC2(CC1)CCCCC2,Spiro(5.5)undecane,344.95,le15,1
CCCCC#CCCCCC,undec-5-yne,338.75,le15,1
CCCC#CCCCCCC,undec-4-yne,338.75,le15,1
C#CCCCCCCCCC,1undecyne,338.0,le15,1
N#Cc1cc(Cl)ccc1N,"Benzonitrile, 2-amino-5-chloro-",402.85,le15,1
C=C(C)c1ccc(Cl)cc1,"Benzene, 1-chloro-4-(1-methylethenyl)-",347.039,le15,1
Cl/C=C/Cc1ccccc1,[(E)-3-chloroprop-2-enyl]benzene,562.05,le15,1
CCOC(CCl)OCC,"2-chloro-1,1-diethoxyethane",302.5499999999999,le15,1
O=C(Cl)/C=C/C(=O)Cl,"2-Butenedioyl dichloride, (2E)-",346.15,le15,1
COC(=O)CBr,methyl 2-bromoacetate,335.95,le15,1
O=C(O)CCBr,"Propanoic acid, 3-bromo-",371.85,le15,1
CC(Br)C(=O)O,2-bromopropanoic acid,349.45,le15,1
CCOCCBr,1-bromo-2-ethoxyethane,294.15,le15,1
Clc1ccc(Cl)s1,"2,5-dichlorothiophene",332.5499999999999,le15,1
Cl[C@@H]1CCCC[C@H]1Cl,"trans-1,2-Dichlorocyclohexane",339.25,le15,1
ClC1(Cl)CCCCC1,"1,1-dichlorocyclohexane",339.15,le15,1
Cl[C@H]1CCCC[C@H]1Cl,"(1R,2S)-1,2-dichlorocyclohexane",339.25,le15,1
Nc1ccc(O)c(C(=O)O)c1,"Benzoic acid, 5-amino-2-hydroxy-",471.25,le15,1
COc1ccc([N+](=O)[O-])cc1,"Benzene, 1-methoxy-4-nitro-",407.75,le15,1
Cc1ccc(O)c([N+](=O)[O-])c1,"Phenol, 4-methyl-2-nitro-",381.15,le15,1
Nc1c(O)cccc1C(=O)O,"Anthranilic acid, 3-hydroxy- (8CI)",442.75,le15,1
O=[N+]([O-])c1ccccc1CO,"Benzenemethanol, 2-nitro- (9CI)",404.25,le15,1
O=[N+]([O-])c1cccc(CO)c1,"Benzenemethanol, 3-nitro-",419.35,le15,1
O=[N+]([O-])c1ccc(CO)cc1,"Benzenemethanol, 4-nitro-",421.25,le15,1
Cc1ccc([N+](=O)[O-])c(O)c1,"Phenol, 5-methyl-2-nitro-",382.15,le15,1
Cc1ccc(O)cc1[N+](=O)[O-],3-Nitro-p-cresol,398.35,le15,1
Cc1cc(O)ccc1[N+](=O)[O-],"Phenol, 3-methyl-4-nitro-",383.15,le15,1
Cc1cccc(O)c1[N+](=O)[O-],"Phenol, 3-methyl-2-nitro- (9CI)",380.15,le15,1
Cc1ccc([N+](=O)[O-])cc1O,"Phenol, 2-methyl-5-nitro-",407.35,le15,1
Cc1c(O)cccc1[N+](=O)[O-],3-Nitro-o-cresol,394.95,le15,1
COc1ccccc1[N+](=O)[O-],"Benzene, 1-methoxy-2-nitro-",415.15,le15,1
Nc1ccc([N+](=O)[O-])cc1N,"1,2-Benzenediamine, 4-nitro-",481.65,le15,1
NNc1ccc([N+](=O)[O-])cc1,"Hydrazine, (4-nitrophenyl)-",434.95,le15,1
Nc1ccc(N)c([N+](=O)[O-])c1,"1,4-Benzenediamine, 2-nitro-",460.05,le15,1
Nc1cccc([N+](=O)[O-])c1N,"1,2-Benzenediamine, 3-nitro- (9CI)",450.55,le15,1
Nc1ccc([N+](=O)[O-])c(N)c1,"1,3-Benzenediamine, 4-nitro-",487.15,le15,1
O=C(CF)Nc1ccccc1,"Acetamide, 2-fluoro-N-phenyl- (9CI)",418.25,le15,1
N#Cc1cccc2ccccc12,naphthalene-1-carbonitrile,413.85,le15,1
Fc1cccc(N=C=S)c1,1-fluoro-3-isothiocyanatobenzene,358.15,le15,1
Fc1ccc(N=C=S)cc1,1-fluoro-4-isothiocyanatobenzene,362.55,le15,1
COc1ccc(OC)c(N)c1,"2,5-dimethoxyaniline",403.252,le15,1
NCC(O)c1cccc(O)c1,"Benzyl alcohol, alpha-(aminomethyl)-m-hydroxy-",445.15,le15,1
COc1ccc(N)c(OC)c1.Cl,"2,4-Dimethoxyaniline hydrochloride",397.95,le15,1
NCC(O)c1ccc(O)cc1,"Benzenemethanol, alpha-(aminomethyl)-4-hydroxy-",445.15,le15,1
CN1C2CCCC1CC(=O)C2,9-methyl-9-azabicyclo[3.3.1]nonan-3-one,369.05,le15,1
CCCCCCCCCC#N,decanenitrile,365.15,le15,1
O=C=Nc1cccc(Cl)c1,"Isocyanic acid, m-chlorophenyl ester",355.15,le15,1
O=C=Nc1ccccc1Cl,1-chloro-2-isocyanatobenzene,361.15,le15,1
Clc1nc2ccccc2o1,"2-chloro-1,3-benzoxazole",358.15,le15,1
C=CI,iodoethene,279.35,le15,1
CC(=O)CC(=O)C(F)(F)F,"1,1,1-trifluoropentane-2,4-dione",299.25,le15,1
O=C(O)c1ccc(O)cc1O,"Benzoic acid, 2,4-dihydroxy-",491.95,le15,1
O=C(O)c1ccc(O)c(O)c1,"Benzoic acid, 3,4-dihydroxy- (9CI)",489.45,le15,1
O=C1C=C2C(=CCOC2O)O1,"4,6-Dihydro-4-hydroxy-2H-furo(3,2-c)pyran-2-one",499.95,le15,1
O=C(O)c1cc(O)ccc1O,"Benzoic acid, 2,5-dihydroxy-",487.15,le15,1
O=Cc1ccc(O)c(O)c1O,"Benzaldehyde, 2,3,4-trihydroxy-",423.75,le15,1
O=Cc1c(O)cc(O)cc1O,"Benzaldehyde, 2,4,6-trihydroxy-",434.15,le15,1
Nc1cc([N+](=O)[O-])ccc1O,"Phenol, 2-amino-4-nitro-",449.55,le15,1
Nc1ccc(O)c([N+](=O)[O-])c1,"Phenol, 4-amino-2-nitro-",429.25,le15,1
Nc1c(O)cccc1[N+](=O)[O-],2-Amino-3-nitrophenol,417.95,le15,1
Nc1cccc([N+](=O)[O-])c1O,2-Nitro-6-aminophenol,396.45,le15,1
CN(C)P(=O)(F)N(C)C,"Phosphorodiamidic fluoride, tetramethyl-",321.85,le15,1
CN(N=O)c1ccc(F)cc1,"Aniline, p-fluoro-N-methyl-N-nitroso-",391.25,le15,1
COc1cccc(OC)c1O,"Phenol, 2,6-dimethoxy-",373.05,le15,1
COc1cc(CO)ccc1O,"Benzenemethanol, 4-hydroxy-3-methoxy-",416.35,le15,1
COc1cc(O)cc(OC)c1,"Phenol, 3,5-dimethoxy- (8CI)(9CI)",351.15,le15,1
CCC(=O)OCc1ccco1,furan-2-ylmethyl propanoate,354.85,le15,1
CC=CC(=O)OC(=O)C=CC,"2-Butenoic acid, anhydride",383.75,le15,1
N#CC(C#N)=Cc1ccccc1,"Propanedinitrile, (phenylmethylene)- (9CI)",411.15,le15,1
N#Cc1ccnc2ccccc12,"Cinchoninonitrile(6CI,7CI,8CI)",368.35,le15,1
C=CC(=O)NCNC(=O)C=C,"2-Propenamide, N,N'-methylenebis-",488.15,le15,1
CCOP([O-])(=S)CC,"Phosphonothioic acid, ethyl-, O-ethyl ester",354.0499999999999,le15,1
CNc1nc(C)nc(OC)n1,"1,3,5-Triazin-2-amine, 4-methoxy-N,6-dimethyl-",411.35,le15,1
CCOS(=O)(=O)OCC,DiethylSulfate,377.0,le15,1
c1cc2c3c(cccc3c1)CC2,"Acenaphthylene, 1,2-dihydro-",408.15,le15,1
c1ccc(-c2ccccc2)cc1,Biphenyl,386.0,le15,1
CCCCCC#CC(=O)OC,"2-Octynoic acid, methyl ester",362.05,le15,1
C=CC(=O)OC1CCCCC1,"2-Propenoic acid, cyclohexyl ester",344.45,le15,1
O=C1CCC2CCCCC2O1,"2H-1-Benzopyran-2-one, octahydro-",382.15,le15,1
O=C(O)C1CCC2CCCC21,"1,2,3,3a,4,5,6,6a-octahydropentalene-1-carboxylic acid",396.85,le15,1
CCCCOCc1ccco1,2-(butoxymethyl)furan,347.75,le15,1
CCCCCCC#CC(=O)O,2-Nonynoic acid,405.95,le15,1
CCCCCC#CC(=O)OC,Methyl2octynoate,361.0,le15,1
CSc1ccc(O)cc1C,"Phenol, 3-methyl-4-(methylthio)-",401.85,le15,1
CC(C)(C)C1CCC(=O)CC1,"Cyclohexanone, 4-(1,1-dimethylethyl)-",369.25,le15,1
CC(C)=CCCC(C)CC=O,"6-Octenal, 3,7-dimethyl-",348.75,le15,1
CC(C)=CCC/C(C)=C\CO,"2,6-Octadien-1-ol, 3,7-dimethyl-, (2Z)-",372.65,le15,1
CC1(C)[C@@H]2CC[C@@]1(C)[C@H](O)C2,"Bicyclo(2.2.1)heptan-2-ol, 1,7,7-trimethyl-, (1R,2R,4R)-rel-",347.15,le15,1
CC1(C)[C@H]2CC[C@]1(C)[C@H](O)C2,"Bicyclo(2.2.1)heptan-2-ol, 1,7,7-trimethyl-, (1S,2R,4S)-",338.15,le15,1
CC1(C)[C@@H]2CC[C@@]1(C)[C@@H](O)C2,"Bicyclo(2.2.1)heptan-2-ol, 1,7,7-trimethyl-, (1R,2S,4R)-rel-",338.75,le15,1
CC1C(O)CC2(C(C)C)CC12,2-methyl-5-propan-2-ylbicyclo[3.1.0]hexan-3-ol,356.85,le15,1
CC1=CCC(O)(C(C)C)CC1,"3-Cyclohexen-1-ol, 4-methyl-1-(1-methylethyl)-",355.15,le15,1
CC(C)C1=CC(O)C(C)CC1,6-methyl-3-propan-2-ylcyclohex-2-en-1-ol,362.95,le15,1
C=C(C)C1CCC(C)C(O)C1,"Cyclohexanol, 2-methyl-5-(1-methylethenyl)-",364.85,le15,1
CC1CC(C=O)CC(C)(C)C1,"Cyclohexanecarboxaldehyde, 3,3,5-trimethyl-",336.95,le15,1
OCCSSCCO,"Ethanol, 2,2'-dithiobis-",422.45,le15,1
CCCCCCCC#CCO,2-Decyn-1-ol,331.5499999999999,le15,1
OC1CCCC1C1CCCC1,2-cyclopentylcyclopentan-1-ol,375.05,le15,1
CC(C)[C@@H]1CC[C@@H](C)CC1=O,"(2S,5R)-5-methyl-2-propan-2-ylcyclohexan-1-one",345.95,le15,1
CC(C)[C@H]1CC[C@H](C)CC1=O,"Cyclohexanone, 5-methyl-2-(1-methylethyl)-, (2R,5S)-rel-",342.15,le15,1
CC(C)=CCC/C(C)=C/CO,"2,6-Octadien-1-ol, 3,7-dimethyl-, (2E)-",349.81699999999995,le15,1
C=C(C)C1CCC(C)(O)CC1,p-Menth-8-en-1-ol(8CI),360.65,le15,1
CC(C)C12CCC(C)(CC1)O2,"7-Oxabicyclo(2.2.1)heptane, 1-methyl-4-(1-methylethyl)-",320.95,le15,1
CC12CCC(CC1)C(C)(C)O2,"2-Oxabicyclo(2.2.2)octane, 1,3,3-trimethyl-",322.15,le15,1
C=CC(=C)CCCC(C)(C)O,"7-Octen-2-ol, 2-methyl-6-methylene-",357.95,le15,1
CC(C)=CCC[C@@H](C)CC=O,"(3R)-3,7-dimethyloct-6-enal",348.75,le15,1
CC1=CCCC(C)(C)C1CO,"(2,6,6-trimethylcyclohex-2-en-1-yl)methanol",354.85,le15,1
CC1=CCC(C(C)(C)O)CC1,2-(4-methylcyclohex-3-en-1-yl)propan-2-ol,362.55,le15,1
CC(C)=CCCC(C)CC=O,Citronellal,348.0,le15,1
C/C=C\CCCCCCCC,(Z)-undec-2-ene,334.35,le15,1
CCCCCC1CCCCC1,pentylcyclohexane,339.25,le15,1
FC(F)(F)C(F)(F)Cl,"Ethane, 1-chloro-1,1,2,2,2-pentafluoro-",343.15,le15,1
O=C(Cl)Cc1ccccc1,Benzeneacetyl chloride,363.15,le15,1
O=C(CCl)c1ccccc1,"Ethanone, 2-chloro-1-phenyl-",377.95,le15,1
Cc1ccc(C(=O)Cl)cc1,"Benzoyl chloride, 4-methyl-",355.15,le15,1
Cc1ccccc1C(=O)Cl,"Benzoyl chloride, 2-methyl-",349.15,le15,1
Cc1cccc(C(=O)Cl)c1,"Benzoyl chloride, 3-methyl-",349.15,le15,1
CC(=O)c1ccccc1Cl,"Ethanone, 1-(2-chlorophenyl)-",361.15,le15,1
ClCCCc1ccccc1,3-chloropropylbenzene,360.35,le15,1
Cc1ccc(CCl)c(C)c1,"1-(chloromethyl)-2,4-dimethylbenzene",369.15,le15,1
CC(C)c1ccc(Cl)cc1,1-chloro-4-propan-2-ylbenzene,587.15,le15,1
Cc1cc(C)c(Cl)c(C)c1,"2-chloro-1,3,5-trimethylbenzene",349.95,le15,1
CC(C)c1ccccc1Cl,1-chloro-2-propan-2-ylbenzene,344.15,le15,1
O=C(Cl)CCC(=O)Cl,butanedioyl dichloride,349.85,le15,1
FCCCCBr,1-bromo-4-fluorobutane,306.45,le15,1
ClCC1(CCl)COC1,"Oxetane, 3,3-bis(chloromethyl)-",388.95,le15,1
CCCCC(Cl)CCl,"1,2-dichlorohexane",329.75,le15,1
ClCCCCCCCl,"1,6-dichlorohexane",347.0499999999999,le15,1
O=C(O)c1cc(O)[nH]c(=O)c1,"4-Pyridinecarboxylic acid, 1,2-dihydro-6-hydroxy-2-oxo-",454.05,le15,1
O=[N+]([O-])c1c(O)cccc1O,"1,3-Benzenediol, 2-nitro-",384.55,le15,1
O=[N+]([O-])c1ccc(O)c(O)c1,4-Nitropyrocatechol,441.95,le15,1
Cc1ccc(F)cc1[N+](=O)[O-],4-fluoro-1-methyl-2-nitrobenzene,372.05,le15,1
N[C@@H](Cc1c[nH]cn1)C(=O)O,L-Histidine,555.15,le15,1
c1ccc(-c2ccncc2)cc1,"Pyridine, 4-phenyl-",384.25,le15,1
c1ccc(-c2ccccn2)cc1,"Pyridine, 2-phenyl-",386.45,le15,1
c1ccc(-c2cccnc2)cc1,"Pyridine, 3-phenyl-",392.44699999999995,le15,1
COC(=O)C1=CCCN(C)C1,"3-Pyridinecarboxylic acid, 1,2,5,6-tetrahydro-1-methyl-, methyl ester",354.25,le15,1
OCC1=CCN2CC[C@@H](O)[C@@H]12,"1H-Pyrrolizine-7-methanol, 2,3,5,7a-tetrahydro-1-hydroxy-, (1R-trans)-",434.55,le15,1
C=CCC(CC)(CC)C(N)=O,"4-Pentenamide, 2,2-diethyl-",389.35,le15,1
CC1(C)CC(=O)CC(C)(C)N1,"4-Piperidinone, 2,2,6,6-tetramethyl-",346.35,le15,1
CCCCNC1CCCCC1,"Cyclohexanamine, N-butyl-",345.25,le15,1
CCCCCN1CCCCC1,1-pentylpiperidine,351.45,le15,1
CN1C(C)(C)CCCC1(C)C,"1,2,2,6,6-pentamethylpiperidine",323.15,le15,1
NC(=O)c1ccccc1Cl,"Benzamide, o-chloro- (8CI)",393.25,le15,1
NC(=O)c1ccc(Cl)cc1,"Benzamide, p-chloro- (6CI,7CI,8CI)",402.45,le15,1
O=CNc1ccc(Cl)cc1,"Formamide, N-(4-chlorophenyl)- (9CI)",417.35,le15,1
NCCc1ccc(Cl)cc1,4-Chlorobenzeneethanamine,379.15,le15,1
CN(C)c1ccccc1Cl,"2-chloro-N,N-dimethylaniline",347.5499999999999,le15,1
CN(CCCl)CCCl,"Ethanamine, 2-chloro-N-(2-chloroethyl)-N-methyl-",293.65,le15,1
N#Cc1nc(C#N)nc(C#N)n1,"S-TRIAZINE-2,4,6-TRICARBONITRILE",414.55,le15,1
Nc1ccc(F)c([N+](=O)[O-])c1,"Benzenamine, 4-fluoro-3-nitro-",364.15,le15,1
COP(=S)(OC)OC,"Phosphorothioic acid, O,O,O-trimethyl ester",306.35,le15,1
COP(=O)(OC)SC,"Phosphorothioic acid, O,O,S-trimethyl ester",329.15,le15,1
CCOC(=O)C1CCCC1=O,ethyl 2-oxocyclopentane-1-carboxylate,350.15,le15,1
c1cncc(-c2cccnc2)c1,3-pyridin-3-ylpyridine,388.75,le15,1
CS(=O)(=O)c1ccccc1,"Benzene, (methylsulfonyl)- (9CI)",444.55,le15,1
CCOC(=O)c1cccs1,ethyl thiophene-2-carboxylate,359.25,le15,1
Cc1cccc2cccc(C)c12,"1,8-dimethylnaphthalene",388.45,le15,1
Cc1ccc(C)c2ccccc12,"1,4-dimethylnaphthalene",382.35,le15,1
Cc1cccc2c(C)cccc12,"1,5-dimethylnaphthalene",384.55,le15,1
Cc1ccc2ccccc2c1C,"1,2-dimethylnaphthalene",387.15,le15,1
Cc1ccc2cccc(C)c2c1,"1,7-dimethylnaphthalene",381.85,le15,1
Cc1cc(C)c2ccccc2c1,"Naphthalene, 1,3-dimethyl-",382.55,le15,1
Cc1cc2ccccc2cc1C,"Naphthalene, 2,3-dimethyl- (8CI)(9CI)",387.15,le15,1
Cc1ccc2ccc(C)cc2c1,"2,7-dimethylnaphthalene",383.65,le15,1
CCc1ccc2ccccc2c1,2-ethylnaphthalene,377.55,le15,1
CCc1cccc2ccccc12,1-ethylnaphthalene,384.85,le15,1
Cc1ccc2c(C)cccc2c1,"Naphthalene, 1,6-dimethyl- (8CI)(9CI)",383.65,le15,1
Cc1ccc2cc(C)ccc2c1,"2,6-dimethylnaphthalene",383.65,le15,1
CCCCCC1CCC(=O)O1,"2(3H)-Furanone, dihydro-5-pentyl-",371.95,le15,1
C=CCOC(=O)CCCCC,"Hexanoic acid, 2-propenyl ester",347.15,le15,1
O=C(O)CCC1CCCCC1,3-cyclohexylpropanoic acid,404.65,le15,1
C=C(C)C(=O)OCC(C)(C)C,"2-Propenoic acid, 2-methyl-, 2,2-dimethylpropyl ester",327.0499999999999,le15,1
C=CC(=O)OCCCCCC,"2-Propenoic acid, hexyl ester",331.45,le15,1
C=C(C)C(=O)OCCCCC,"Methacrylic acid, pentyl ester (8CI)",333.45,le15,1
CCOC(=O)C1CCCCC1,"Cyclohexanecarboxylic acid, ethyl ester",341.65,le15,1
CCCCCCC=CC(=O)O,2-Nonenoic acid,441.45,le15,1
C=CC(=O)OCC(CC)CC,"2-Propenoic acid, 2-ethylbutyl ester",328.85,le15,1
CCC(=O)OC1CCCCC1,cyclohexyl propanoate,340.95,le15,1
CC1(NC(N)=O)CCCCC1,"Urea, (1-methylcyclohexyl)-",373.65,le15,1
CCC1(NC(N)=O)CCCC1,"Urea, (1-ethylcyclopentyl)-",372.35,le15,1
C=CC(=O)NCCCN(C)C,"2-Propenamide, N-(3-(dimethylamino)propyl)-",400.95,le15,1
CC(C)(C)C1CCC(O)CC1,"Cyclohexanol, 4-(1,1-dimethylethyl)-",378.15,le15,1
C=COCC(CC)CCCC,"Heptane, 3-((ethenyloxy)methyl)- (9CI)",291.75,le15,1
CC(C)=CCCC(C)CCO,"6-Octen-1-ol, 3,7-dimethyl-",371.45,le15,1
CC1CCC(C(C)(C)O)CC1,"Cyclohexanemethanol, alpha,alpha,4-trimethyl-",362.85,le15,1
CCCCCCCCC(C)=O,2-Decanone,344.15,le15,1
CCCCCCCC(=O)CC,3-Decanone,299.85,le15,1
CC(C)C1CCC(C)C(O)C1,2-methyl-5-propan-2-ylcyclohexan-1-ol,359.85,le15,1
CC(C)CCCCCCC=O,8-methylnonanal,343.85,le15,1
CC(C)C1CCC(C)(O)CC1,1-methyl-4-propan-2-ylcyclohexan-1-ol,356.5499999999999,le15,1
C=CCCCCCCCCO,9decen1ol,392.0,le15,1
CCCCCCCCCC=O,Decanal,358.0,le15,1
CC1(C)CC(N)CC(C)(C)N1,"Piperidine, 4-amino-2,2,6,6-tetramethyl-",345.15,le15,1
CCCCCCC(C)CCC,4-methyldecane,322.5499999999999,le15,1
CCCCCCCC(C)CC,3-methyldecane,323.5499999999999,le15,1
CCOP(Cl)OCC,chloro(diethoxy)phosphane,274.25,le15,1
O=C(O)c1ccccc1Cl,"Benzoic acid, 2-chloro-",393.65,le15,1
O=C(O)c1cccc(Cl)c1,"Benzoic acid, 3-chloro-",397.05,le15,1
O=Cc1cc(Cl)ccc1O,"Benzaldehyde, 5-chloro-2-hydroxy-",365.35,le15,1
O=C(Cl)Oc1ccccc1,"Formic acid, chloro-, phenyl ester (8CI)",352.15,le15,1
O=C(O)c1ccc(Cl)cc1,"Benzoic acid, 4-chloro-",511.15,le15,1
Cc1cc(O)cc(C)c1Cl,"Phenol, 4-chloro-3,5-dimethyl-",379.05,le15,1
CCOc1ccc(Cl)cc1,1-chloro-4-ethoxybenzene,356.85,le15,1
ClCCOc1ccccc1,2-chloroethoxybenzene,373.75,le15,1
COc1ccc(CCl)cc1,"Benzene, 1-(chloromethyl)-4-methoxy- (9CI)",382.55,le15,1
CCOc1cccc(Cl)c1,1-chloro-3-ethoxybenzene,356.85,le15,1
CCOc1ccccc1Cl,1-chloro-2-ethoxybenzene,355.45,le15,1
Cc1cc(O)c(Cl)cc1C,"Phenol, 2-chloro-4,5-dimethyl- (9CI)",370.25,le15,1
O=C(Cl)OCCCCl,3-chloropropyl carbonochloridate,347.65,le15,1
CCOC(=O)C(Cl)Cl,"ethyl 2,2-dichloroacetate",328.75,le15,1
Cl[C@@H]1OCCO[C@H]1Cl,"p-Dioxane, 2,3-dichloro-, trans-",367.05,le15,1
O=[N+]([O-])c1ccc(F)cc1O,5-Fluoro-2-nitrophenol,364.15,le15,1
O=[N+]([O-])c1ccc(O)cc1F,"Phenol, 3-fluoro-4-nitro-",422.65,le15,1
CCC1(C)OC(=O)N(C)C1=O,"2,4-Oxazolidinedione, 5-ethyl-3,5-dimethyl-",335.0499999999999,le15,1
NS(=O)(=O)c1ccccc1,Benzenesulphonamide,417.75,le15,1
Cc1ccc2nc(C)ccc2c1,"Quinoline, 2,6-dimethyl-",379.65,le15,1
Cc1cc(C)c2ccccc2n1,"2,4-dimethylquinoline",380.75,le15,1
CCc1ccc2ccccc2n1,2-ethylquinoline,371.85,le15,1
Cc1cc2ccccc2nc1C,"2,3-dimethylquinoline",382.85,le15,1
CCc1cnc2ccccc2c1,3-ethylquinoline,381.15,le15,1
c1ccc(Cn2cccc2)cc1,1-benzylpyrrole,376.35,le15,1
Cc1ccc2ccccc2c1N,"1-Naphthylamine, 2-methyl-",430.25,le15,1
Cc1cnc2ccccc2c1C,"3,4-dimethylquinoline",391.95,le15,1
Cc1cc(C)c2ncccc2c1,"6,8-dimethylquinoline",386.65,le15,1
Cc1ccc(C)c2ncccc12,"5,8-dimethylquinoline",386.05,le15,1
NC[C@H]1CC[C@H](C(=O)O)CC1,"Cyclohexanecarboxylic acid, 4-(aminomethyl)-, trans-",408.507,le15,1
C=CC(=O)NCOCCCC,"2-Propenamide, N-(butoxymethyl)-",397.05,le15,1
C=C(C)C(=O)OCCN(C)C,"2-Propenoic acid, 2-methyl-, 2-(dimethylamino)ethyl ester",343.75,le15,1
CCCC1OC1(CC)C(N)=O,"Hexanamide, 2,3-epoxy-2-ethyl-",418.95,le15,1
CCN(CC)C(=O)CC(C)=O,"Butanamide, N,N-diethyl-3-oxo-",367.15,le15,1
CCN(CC)CCCC(C)=O,"2-Pentanone, 5-(diethylamino)-",338.15,le15,1
CCN(CC)C(=O)CC(C)C,"N,N-diethyl-3-methylbutanamide",351.85,le15,1
CCCCN(C=O)CCCC,"Formamide, N,N-di-n-butyl-",373.15,le15,1