smiles,compound,flashpoint,source,pure substance,canonical smiles
CC#CCCC,2-hexyne,263.0,carroll11,1,CCCCCCCCCC(CCCC)(CCCC)c1ccccc1
CC#CCCCC,2-heptyne,281.0,carroll11,1,CCc1cccc2c1CCCC2
CC#CCCCCC,2-octyne,297.0,carroll11,1,CCCCC(C)(CCCC)c1ccc2ccccc2c1
CC#CCCCCCC,2-nonyne,312.0,carroll11,1,Cc1cccc2c1CCCC2
CC#CCCCCCCC,2-decyne,326.0,carroll11,1,CCCCCCCCCCCCCCC[C@@H](CCCC)c1ccccc1
CC#CCCCCCCCCC,2-dodecyne,351.0,carroll11,1,CCCCCCCCCCCCCCC[C@H](CCCC)c1ccccc1
CCC#CCC,3-hexyne,259.0,carroll11,1,CCCCCCC(CCCCCC)c1ccccc1
CCC#CCCC,3-heptyne,278.0,carroll11,1,C=C(C)c1ccccc1
CCC#CCCCCC,3-nonyne,311.0,carroll11,1,c1ccccc1
CCCC#CCCCC,4-nonyne,308.0,carroll11,1,c1ccc(-c2ccccc2)cc1
CCCC#CCCC,4-octyne,291.0,carroll11,1,CCCCC1CCCc2ccccc21
CCC#CCCCCCC,3-decyne,325.0,carroll11,1,c1ccc(C2CCCCC2)cc1
CCCC#CCCCCC,4-decyne,325.0,carroll11,1,c1ccc(Cc2ccccc2)cc1
CCCC#CCCCCCC,4-undecyne,339.0,carroll11,1,CCCCCCCCCCCCCCCCCCCCc1ccccc1
CCCCC#CCCCCC,5-undecyne,339.0,carroll11,1,C=Cc1ccccc1
CC(C#C)(C)C,"3,3-dimethyl-1-butyne",239.0,carroll11,1,CCc1ccccc1
CC(CC#C)C,4-methyl-1-pentyne,249.0,carroll11,1,CCCCCCCCCCCCCCCCCc1ccccc1
CC(C#CC)(C)C,"4,4-dimethyl-2-pentyne",263.0,carroll11,1,CCCCCCCCCCCCCCCCc1ccccc1
CC(CCC#C)C,5-methyl-1-hexyne,266.0,carroll11,1,c1ccc2c(c1)CCC2
C#CCCCC#C,"1,6-heptadiyne",282.0,carroll11,1,CC(C)Cc1ccccc1
C#CCCCCC#C,"1,7-octadiyne",296.0,carroll11,1,CC(C)CCc1ccccc1
C#CCCCCCC#C,"1,8-nonadiyne",315.0,carroll11,1,CC(C)c1ccccc1
C1=CC=CC=C1,benzene,262.0,carroll11,1,CCCCc1ccccc1
CC1=CC=CC=C1,toluene,280.0,carroll11,1,CCCCCCCCCCc1ccccc1
C(C)C1=CC=CC=C1,ethylbenzene,294.0,carroll11,1,CCCCCCCCCCCCc1ccccc1
C(CC)C1=CC=CC=C1,propylbenzene,303.0,carroll11,1,CCCCCCCc1ccccc1
C(CCC)C1=CC=CC=C1,butylbenzene,323.0,carroll11,1,CCCCCCc1ccccc1
C(CCCC)C1=CC=CC=C1,pentylbenzene,339.0,carroll11,1,CCCc1ccccc1
C(CCCCC)C1=CC=CC=C1,hexylbenzene,356.0,carroll11,1,CCCCCCCCCCCc1ccccc1
C(CCCCCC)C1=CC=CC=C1,heptylbenzene,368.0,carroll11,1,CCCCCCCCCCCCCCCCCCCc1ccccc1
C(CCCCCCC)C1=CC=CC=C1,octylbenzene,380.0,carroll11,1,CCCCCCCCCc1ccccc1
C(CCCCCCCC)C1=CC=CC=C1,nonylbenzene,390.0,carroll11,1,CCCCCCCCCCCCCCCCCCc1ccccc1
C(CCCCCCCCCC)C1=CC=CC=C1,undecylbenzene,417.0,carroll11,1,CCCCCCCCc1ccccc1
C1(=CC=C(C=C1)C)C,p-xylene,298.0,carroll11,1,CCCCCCCCC1CCCc2ccccc21
C1(=CC(=CC=C1)C)C,m-xylene,298.0,carroll11,1,CCCCCCCCc1cccc(C)c1C
C=1(C(=CC=CC1)C)C,o-xylene,303.0,carroll11,1,CCCCCCCCCCCCCCCc1ccccc1
C1(=CC=CC=C1)C(C)C,cumene,304.0,carroll11,1,Cc1cc(C)c(C)c(C)c1C
C(C)C1=CC=C(C)C=C1,p-ethyltoluene,309.0,carroll11,1,CCCCCc1ccccc1
C(C)C=1C=C(C)C=CC1,m-ethyltoluene,311.0,carroll11,1,CCCC1CCCc2ccccc21
C(C)C1=C(C)C=CC=C1,o-ethyltoluene,312.0,carroll11,1,CC[C@@H](C)c1ccccc1
CC1=CC(=CC(=C1)C)C,"1,3,5-trimethylbenzene",317.0,carroll11,1,CC[C@@H](C)C1CCCc2ccccc21
CC1=C(C=C(C=C1)C)C,"1,2,4-trimethylbenzene",319.0,carroll11,1,CC[C@H](C)c1ccccc1
C(C)(C)(C)C1=CC=CC=C1,tert-butylbenzene,317.0,carroll11,1,CC[C@H](C)C1CCCc2ccccc21
C(C(C)C)C1=CC=CC=C1,isobutylbenzene,323.0,carroll11,1,CCC(C)c1ccccc1
C(C)(C)C=1C=C(C)C=CC1,m-isopropyltoluene,320.0,carroll11,1,CC(C)(C)c1ccccc1
CC1=C(C(=CC=C1)C)C,"1,2,3-trimethylbenzene",324.0,carroll11,1,CC(C)(C)C1CCCc2ccccc21
C(C)(C)C1=CC=C(C)C=C1,p-isopropyltoluene,320.0,carroll11,1,CCCCCCCCCCCCCCc1ccccc1
C(C)(C)C1=C(C)C=CC=C1,o-isopropyltoluene,323.0,carroll11,1,c1ccc2c(c1)CCCC2
C(C)C1=CC(=CC=C1)CC,m-diethylbenzene,324.0,carroll11,1,Cc1ccccc1
C(CC)C=1C=C(C)C=CC1,m-propyltoluene,325.0,carroll11,1,CCCCCCCCCCCCCc1ccccc1
C(C)C1=CC=C(C=C1)CC,p-diethylbenzene,328.0,carroll11,1,C[C@@H](O)c1ccccc1
C(C)C1=C(C=CC=C1)CC,o-diethylbenzene,328.0,carroll11,1,Cc1ccccc1CO
C(C(C)(C)C)C1=CC=CC=C1,neopentylbenzene,323.0,carroll11,1,Cc1cccc(CO)c1
C(C)C1=C(C=CC(=C1)C)C,"2-ethyl-1,4-dimethylbenzene",329.0,carroll11,1,OCc1ccc(CO)cc1
C(C)C1=C(C=C(C=C1)C)C,"1-ethyl-2,4-dimethylbenzene",330.0,carroll11,1,O=C(OCC1CCC(COC(=O)c2ccccc2)CC1)c1ccccc1
C(C)C1=CC(=C(C=C1)C)C,"4-ethyl-1,2-dimethylbenzene",331.0,carroll11,1,CCC(O)c1ccccc1
C(C)C1=CC(=CC=C1)C(C)C,1-ethyl-3-isopropylbenzene,336.0,carroll11,1,CC(O)Cc1ccccc1
C(C)C1=C(C(=CC=C1)C)C,"1-ethyl-2,3-dimethylbenzene",338.0,carroll11,1,CCc1ccccc1O
C1(=CC=CC=C1)CC(CC)C,1-phenyl-2-methylbutane,337.0,carroll11,1,OCc1ccco1
C(CC(C)C)C1=CC=CC=C1,isopentylbenzene,335.0,carroll11,1,Cc1ccccc1O
CC1=C(C(=CC(=C1)C)C)C,"1,2,3,5-tetramethylbenzene",336.0,carroll11,1,OCCc1ccccc1
C(C)(C)C1=CC(=CC=C1)C(C)C,"1,3-diisopropylbenzene",349.0,carroll11,1,CC(CO)c1ccccc1
CC1=C(C(=C(C=C1)C)C)C,"1,2,3,4-tetramethylbenzene",341.0,carroll11,1,CC(C)(O)c1ccccc1
C1(=CC=CC=C1)C(C)(CC)C,2-phenyl-2-methylbutane,332.0,carroll11,1,Cc1cc(C(C)(C)C)c(O)c(C(C)(C)C)c1
CC1=C(C(=CC=C1)CCC)C,"1,2-dimethyl-3-propylbenzene",345.0,carroll11,1,CCc1cccc(O)c1
C(C)(C)C1=CC=C(C=C1)C(C)C,"1,4-diisopropylbenzene",349.0,carroll11,1,Cc1cccc(O)c1
C1CCCC2=CC=CC=C12,"1,2,3,4-tetrahydronaphthalene",344.0,carroll11,1,OCCCc1ccccc1
C1(CCCCC1)C1=CC=CC=C1,cyclohexylbenzene,371.0,carroll11,1,CCC(C)(C)c1ccc(O)cc1
CC(CCCCCC)C1=CC=CC=C1,(1-methylheptyl)benzene,373.0,carroll11,1,CC(C)(c1ccc(O)cc1)c1ccc(O)cc1
C1(=CC=CC=C1)CC1=CC=CC=C1,diphenylmethane,400.0,carroll11,1,CCc1ccc(O)cc1
C(C)OC=O,ethylformate,254.0,carroll11,1,Cc1ccc(O)cc1
C(CC)OC=O,propylformate,270.0,carroll11,1,CC(C)(C)c1ccc(O)c(O)c1
C(CCC)OC=O,butylformate,291.0,carroll11,1,CC(C)(C)c1ccc(O)cc1
C(CCCC)OC=O,pentylformate,299.0,carroll11,1,Oc1ccccc1O
C(CCCCC)OC=O,hexylformate,317.0,carroll11,1,Oc1cccc(O)c1
C(CCCCCC)OC=O,heptylformate,333.0,carroll11,1,Oc1ccc(O)cc1
C(CCCCCCC)OC=O,octylformate,342.0,carroll11,1,O=C(OCc1ccccc1)c1ccccc1
C(CCCCCCCC)OC=O,nonylformate,361.0,carroll11,1,CC(=O)OCc1ccccc1
C(CCCCCCCCC)OC=O,decylformate,373.0,carroll11,1,O=COCc1ccccc1
C(C)(C)OC=O,isopropylformate,259.0,carroll11,1,CCCCOC(=O)c1ccccc1
C(C)(C)(C)OC=O,tert-butylformate,264.0,carroll11,1,CCCCOC(=O)c1ccccc1C(=O)OCCCC
C(CC(C)C)OC=O,isopentylformate,295.0,carroll11,1,CCCCCCCCCCOC(=O)c1ccccc1C(=O)OCCCCCCCCCC
C(C(C)C)OC=O,isobutylformate,277.0,carroll11,1,CCCCCCOC(=O)c1ccccc1C(=O)OCCCCCC
C1(CCCCC1)C(=O)[O-],cyclohexylformate,324.0,carroll11,1,CCCCCCCCCOC(=O)c1ccccc1C(=O)OCCCCCCCCC
COC(C)=O,methylacetate,260.0,carroll11,1,CCOC(=O)c1ccccc1C(=O)OCC
C(C)OC(C)=O,ethylacetate,269.0,carroll11,1,CC(C)COC(=O)c1ccccc1C(=O)OCC(C)C
C(CC)OC(C)=O,propylacetate,283.0,carroll11,1,CC(C)CCCCCCCOC(=O)c1ccccc1C(=O)OCCCCCCCC(C)C
C(CCC)OC(C)=O,butylacetate,298.0,carroll11,1,COC(=O)c1cccc(C(=O)OC)c1
C(CCCC)OC(C)=O,pentylacetate,312.0,carroll11,1,COC(=O)c1ccccc1C(=O)OC
C(CCCCC)OC(C)=O,hexylacetate,328.0,carroll11,1,CCCCC(CC)COC(=O)c1ccccc1C(=O)OCC(CC)CCCC
C(CCCCCC)OC(C)=O,heptylacetate,340.0,carroll11,1,CCOC(=O)c1ccccc1
C(CCCCCCC)OC(C)=O,octylacetate,355.0,carroll11,1,COC(=O)c1ccccc1
C(CCCCCCCC)OC(C)=O,nonylacetate,364.0,carroll11,1,CCCOC(=O)c1ccccc1
C(CCCCCCCCC)OC(C)=O,decylacetate,377.0,carroll11,1,CCCCCCCCCc1ccccc1O
C(CCCCCCCCCC)OC(C)=O,undecylacetate,384.0,carroll11,1,Oc1ccccc1
C(CCCCCCCCCCC)OC(C)=O,dodecylacetate,393.0,carroll11,1,OCc1ccccc1
C(C)(C)OC(C)=O,isopropylacetate,275.0,carroll11,1,Cc1ccc(O)c(C)c1
C(C)(C)(C)OC(C)=O,tert-butylacetate,277.0,carroll11,1,Cc1cccc(C)c1O
C(C)(CC)OC(C)=O,sec-butylacetate,289.0,carroll11,1,CC(C)[C@H]1CC[C@H](C)C[C@@H]1O
C(C(C)C)OC(C)=O,isobutylacetate,291.0,carroll11,1,CC1(O)CCCCC1
C(CCCC)CC(=O)[O-],2-pentylacetate,305.0,carroll11,1,OCC1CC=CCC1
C(CC(C)C)OC(C)=O,isopentylacetate,309.0,carroll11,1,OCC1CCC(CO)CC1
C(C)(C)(CC)OC(C)=O,tert-pentylacetate,298.0,carroll11,1,CC1=CCC(C(C)(C)O)CC1
C1(CCCCC1)CC(=O)[O-],cyclohexylacetate,331.0,carroll11,1,CC1CCC(CO)CC1
C1(CCCCCCCCC1)CC(=O)[O-],cyclodecylacetate,379.0,carroll11,1,CC1CCC(=O)O1
COC(CC)=O,methylpropanoate,271.0,carroll11,1,C[C@H]1CCCC[C@H]1O
C(C)OC(CC)=O,ethylpropanoate,285.0,carroll11,1,C[C@H]1CCC[C@@H](O)C1
C(C)(C)(C)OC(CC)=O,tert-butylpropanoate,293.0,carroll11,1,C[C@H]1CC[C@@H](O)CC1
C(CC)OC(CC)=O,propylpropanoate,295.0,carroll11,1,OC1CCCCC1
C(CCC)OC(CC)=O,butylpropanoate,311.0,carroll11,1,CC(=O)OC1CCCCC1
C(CC(C)C)OC(CC)=O,isopentylpropanoate,319.0,carroll11,1,O=COC1CCCCC1
C(CCCC)OC(CC)=O,pentylpropanoate,326.0,carroll11,1,COC(=O)C1CCC(C(=O)OC)CC1
C(CCCCC)OC(CC)=O,hexylpropanoate,338.0,carroll11,1,O=C1CCCCCO1
C1(CCCCC1)OC(CC)=O,cyclohexylpropanoate,341.0,carroll11,1,O=C1CCO1
C(C)OC(CCC)=O,ethylbutanoate,293.0,carroll11,1,O=C1CCCO1
C(C)(C)OC(CCC)=O,isopropylbutanoate,297.0,carroll11,1,C[C@@H]1CCCC[C@H]1O
C(CC)OC(CCC)=O,propylbutanoate,308.0,carroll11,1,C[C@@H]1CCC[C@@H](O)C1
C(C(C)C)OC(CCC)=O,isobutylbutanoate,319.0,carroll11,1,CC/C=C\C/C=C\C/C=C\CCCCCCCC(=O)O
C(CCC)OC(CCC)=O,butylbutanoate,322.0,carroll11,1,CCCCC/C=C\C/C=C\CCCCCCCC(=O)O
C(CC(C)C)OC(CCC)=O,isopentylbutanoate,332.0,carroll11,1,CCCCCCCC/C=C\CCCCCCCC(=O)O
COC(CCCC)=O,methylpentanoate,295.0,carroll11,1,CCC(CC)OC(C)=O
C(C)OC(CCCC)=O,ethylpentanoate,308.0,carroll11,1,C=C(C)OC(C)=O
COC(CCCCC)=O,methylhexanoate,314.0,carroll11,1,CC(=O)OC(C)C(C)C
COC(CCCCCC)=O,methylheptanoate,325.0,carroll11,1,CCCCCCCC/C=C\CCCCCCCC(=O)OCCC(CC)CCC
COC(CCCCCCC)=O,methyloctanoate,342.0,carroll11,1,CCCCC(CC)COC(C)=O
COC(C(C)C)=O,methyl2-methylpropanoate,276.0,carroll11,1,CCCCCCCCCCCCCCCC(=O)OCCC(CC)CCC
C(C)OC(C(C)C)=O,ethyl2-methylpropanoate,286.0,carroll11,1,CCCCCCCCCCCCCCCCCC(=O)OCCC(CC)CCC
COC(=O)C1CC1,methylcyclopropanecarboxylate,291.0,carroll11,1,C=CC(=O)OCC(CC)CCCC
C(CC)OC(C(C)C)=O,propyl2-methylpropanoate,303.0,carroll11,1,CC(C)(C)COC=O
C(C(C)C)OC(C(C)C)=O,isobutyl2-methylpropanoate,311.0,carroll11,1,CCC(=O)OCC(C)(C)C
COC(=O)C1CCCCC1,methylcyclohexanecarboxylate,333.0,carroll11,1,CC/C=C\C/C=C\C/C=C\CCCCCCCC(=O)OCC(COC(=O)CCCCCCC/C=C\C/C=C\C/C=C\CC)OC(=O)CCCCCCC/C=C\C/C=C\C/C=C\CC
CC1(CCC(=O)O1)C=C,4-methyl-4-vinylbutyrolactone,348.0,carroll11,1,CCCCC/C=C\C/C=C\CCCCCCCC(=O)OCC(COC(=O)CCCCCCC/C=C\C/C=C\CCCCC)OC(=O)CCCCCCC/C=C\C/C=C\CCCCC
C(C)(C)OC,isopropylmethylether,226.0,carroll11,1,CCCCCCCC/C=C\CCCCCCCC(=O)OCC(COC(=O)CCCCCCC/C=C\CCCCCCCC)OC(=O)CCCCCCC/C=C\CCCCCCCC
C(C)OCC,diethylether,233.0,carroll11,1,CCCC(=O)OCC(COC(=O)CCC)OC(=O)CCC
C1C(C)O1,propyleneoxide,236.0,carroll11,1,CCCCCCCCCCCC(=O)OCC(COC(=O)CCCCCCCCCCC)OC(=O)CCCCCCCCCCC
C(C)(C)(C)OC,tert-butylmethylether,245.0,carroll11,1,CCCCCCCCCCCCCCCC(=O)OCC(COC(=O)CCCCCCCCCCCCCCC)OC(=O)CCCCCCCCCCCCCCC
C(C(C)C)OC,isobutylmethylether,244.0,carroll11,1,CCCCCCCCCCCCCCCCCC(=O)OCC(COC(=O)CCCCCCCCCCCCCCCCC)OC(=O)CCCCCCCCCCCCCCCCC
COC(C)CC,2-methoxybutane,244.0,carroll11,1,CCCCCCCCCCCCCC(=O)OCC(COC(=O)CCCCCCCCCCCCC)OC(=O)CCCCCCCCCCCCC
C(C)OCCC,ethylpropylether,248.0,carroll11,1,C=CCOC(=O)C(=C)C
O1CCCC1,tetrahydrofuran,252.0,carroll11,1,C=CCOC(C)=O
C(C)(C)OC(C)C,diisopropylether,245.0,carroll11,1,C=CC(OC(C)=O)OC(C)=O
C(CCC)OC,butylmethylether,263.0,carroll11,1,CC/C=C\C/C=C\C/C=C\CCCCCCCC(=O)OCCCC
CC1OCCC1,2-methyltetrahydrofuran,261.0,carroll11,1,CCCCC/C=C\C/C=C\CCCCCCCC(=O)OCCCC
COC(C)(C)CC,methyltert-pentylether,266.0,carroll11,1,CCCCCC/C=C\CCCCCCCC(=O)OCCCC
C(CCC)OCC,butylethylether,268.0,carroll11,1,CCCCCCCC/C=C\CCCCCCCC(=O)OCCCC
C1(CCCC1)OC,cyclopentylmethylether,272.0,carroll11,1,C=C(C)C(=O)OCCCC
C(C)(CC)OC(C)CC,di-sec-butylether,288.0,carroll11,1,CCCCOC(=O)CCC
C12C(CCCC1)O2,cyclohexeneoxide,297.0,carroll11,1,CCCCCCCCCC(=O)OCCCC
C1(CCCCC1)OC,cyclohexylmethylether,294.0,carroll11,1,CCCCCCCCCCCC(=O)OCCCC
C(CCC)OCCCC,dibutylether,298.0,carroll11,1,CCCCCCCCCCCCCCCCCCCC(=O)OCCCC
C(CC(C)C)OCCC(C)C,diisopentylether,319.0,carroll11,1,CCCCOC(C)=O
C(CCCC)OCCCCC,dipentylether,330.0,carroll11,1,CCCCCCCCCCCCCCCC(=O)OCCCC
C(C)OCOCC,diethoxymethane,268.0,carroll11,1,CCCCOC=O
COC(C)OC,"1,1-dimethoxyethane",256.0,carroll11,1,CCCCCCCCC(=O)OCCCC
COCCOC,"1,2-dimethoxyethane",271.0,carroll11,1,CCCCCCCC(=O)OCCCC
C(C)(C)OCC1CO1,isopropylglycidylether,306.0,carroll11,1,C=CC(=O)OCCCC
C(C)OC(OCC)OCC,triethoxymethane,308.0,carroll11,1,CCCCOC(=O)CC
O1COCC1,"1,3-dioxolane",267.0,carroll11,1,CCCCCCCCCCCCCC(=O)OCCCC
CC1OCCO1,"2-methyl-1,3-dioxolane",271.0,carroll11,1,CCCCCCCCCCCCC(=O)OCCCC
O1CCOCC1,"1,4-dioxane",284.0,carroll11,1,CCCCCCCCCCC(=O)OCCCC
C(CC)=O,propanal,246.0,carroll11,1,CCCCCCCCCC(=O)O
C(CCC)=O,butanal,266.0,carroll11,1,CCCCCCCCCCOC(=O)CCCCCCCCC
C(CCCC)=O,pentanal,281.0,carroll11,1,CCCCCCCCCCCC(=O)OCCCCCCCCCC
C(CCCCC)=O,hexanal,298.0,carroll11,1,CCCCCCCCCCOC(C)=O
C(CCCCCC)=O,heptanal,313.0,carroll11,1,CCCCCCCCCCCCCCCC(=O)OCCCCCCCCCC
C(CCCCCCC)=O,octanal,324.0,carroll11,1,CCCCCCCCCCOC=O
C(CCCCCCCC)=O,nonanal,336.0,carroll11,1,CCCCCCCCCCOC(=O)CCCC
C(CCCCCCCCC)=O,decanal,356.0,carroll11,1,CCCCCCCCCCCCCC(=O)OCCCCCCCCCC
C(CCCCCCCCCC)=O,undecanal,368.0,carroll11,1,CCCCC(CC)COC(=O)CCCCC(=O)OCC(CC)CCCC
C(CCCCCCCCCCC)=O,dodecanal,375.0,carroll11,1,C=CCOC(=O)/C=C\C(=O)OCC=C
CC(C=O)C,2-methylpropanal,254.0,carroll11,1,CCCCOC(=O)/C=C\C(=O)OCCCC
CC(=O)C,acetone,253.0,carroll11,1,CCCCOC(=O)CCCCCCCCC(=O)OCCCC
CC(CC)=O,2-butanone,266.0,carroll11,1,CCOC(=O)/C=C\C(=O)OCC
CC(CCCCC)=O,2-heptanone,312.0,carroll11,1,CCOC(=O)CCC(=O)OCC
CC(CCCCCC)=O,2-octanone,329.0,carroll11,1,CCOC(=O)OCC
CC(CCCCCCC)=O,2-nonanone,341.0,carroll11,1,CCOC(=O)CCCCC(=O)OCC
CC(CCCCCCCC)=O,2-decanone,358.0,carroll11,1,CCOC(=O)C(=O)OCC
CC(CCCCCCCCC)=O,2-undecanone,362.0,carroll11,1,CCOC(=O)CC(=O)OCC
CC(CCCCCCCCCC)=O,2-dodecanone,381.0,carroll11,1,CCCCCCOC(=O)CCCCC(=O)OCCCCCC
CCC(CC)=O,3-pentanone,280.0,carroll11,1,COC(=O)/C=C\C(=O)OC
CCC(CCC)=O,3-hexanone,296.0,carroll11,1,COC(=O)CC(=O)OC
CCC(CCCC)=O,3-heptanone,311.0,carroll11,1,CCCCCCCCOC(=O)CCCCC(=O)OCCCCCCCC
CCC(CCCCC)=O,3-octanone,324.0,carroll11,1,CCCCCCCC/C=C\CCCCCCCC(=O)OCCCCCCCCCCCC
CCC(CCCCCC)=O,3-nonanone,336.0,carroll11,1,CCCCCCCCCCCCOC(=O)CCC
CCC(CCCCCCCC)=O,3-undecanone,362.0,carroll11,1,CCCCCCCCCCCCOC(=O)CCCCCCCCCCC
CC(C(C)=O)C,3-methyl-2-butanone,272.0,carroll11,1,CCCCCCCCCCCCOC(C)=O
C1(CCC1)=O,cyclobutanone,283.0,carroll11,1,CCCCCCCCCCCCOC(=O)CCCC
CC(C(C)(C)C)=O,pinacolone,278.0,carroll11,1,CCCCCCCCCCCCOC(=O)CC
C1(CC1)C(=O)C,cyclopropylmethylketone,286.0,carroll11,1,CCCCCCCCCCCCCC(=O)OCCCCCCCCCCCC
CC(C)C(CC)=O,2-methyl-3-pentanone,289.0,carroll11,1,C=COC(=O)C(C)(C)C
CC(CC(C)=O)C,4-methyl-2-pentanone,287.0,carroll11,1,C=COC(C)=O
C(C)C(C=O)CC,2-ethylbutanal,294.0,carroll11,1,C=COC=O
CC(C(C)=O)CC,3-methyl-2-pentanone,285.0,carroll11,1,C=COC(=O)CC
C1(CCCC1)=O,cyclopentanone,299.0,carroll11,1,C/C=C/C=C/C(=O)OCC
C(C)C1CC(CC1)=O,3-ethylcyclopentanone,319.0,carroll11,1,CCCCC/C=C\C=C\C(=O)OCC
C[C@@H]1CC(C[C@H]1C)=O,"trans-3,4-dimethylcyclopentanone",314.0,carroll11,1,C/C=C/C(=O)OCC
C(CCC)C1C(CCC1)=O,2-butylcyclopentanone,341.0,carroll11,1,CCCCCCC/C=C/C(=O)OCC
CC1CC(CC1)=O,3-methylcyclopentanone,307.0,carroll11,1,CC/C=C/CC(=O)OCC
CC1C(CCC1)=O,2-methylcyclopentanone,299.0,carroll11,1,CCCCC/C=C/C(=O)OCC
C(CCCC)C1C(CCC1)=O,2-pentylcyclopentanone,351.0,carroll11,1,CCC/C=C/CCC(=O)OCC
C[C@@H]1C(C[C@H](C1)C)=O,"trans-2,4-dimethylcyclopentanone",315.0,carroll11,1,CC/C=C\C/C=C\C/C=C\CCCCCCCC(=O)OCC
CC1(C(CCC1)=O)C,"2,2-dimethylcyclopentanone",306.0,carroll11,1,CCCCC/C=C\C/C=C\CCCCCCCC(=O)OCC
C1(CCCC1)C1C(CCC1)=O,2-cyclopentylcyclopentanone,363.0,carroll11,1,CCCCCC/C=C\CCCCCCCC(=O)OCC
CC1C(CC(C1)(C)C)=O,"2,4,4-trimethylcyclopentanone",316.0,carroll11,1,CCCCCCCC/C=C\CCCCCCCC(=O)OCC
C(C)(C)(C)C1CC(CC1)=O,3-tert-butylcyclopentanone,337.0,carroll11,1,CCOC(=O)C(C)O
C1(CCCC1)C=O,cyclopentanecarboxaldehyde,301.0,carroll11,1,C=C(C)C(=O)OCC
CC(CCC(C)=O)C,5-methyl-2-hexanone,309.0,carroll11,1,CCOC(=O)CCC(C)=O
C1(CCCCC1)=O,cyclohexanone,316.0,carroll11,1,C=C=CC(=O)OCC
COC1C(CCCC1)=O,2-methoxycyclohexanone,342.0,carroll11,1,CCCC(=O)OCC
CC1CC(CCC1)=O,3-methylcyclohexanone,321.0,carroll11,1,CCCCCCCCCC(=O)OCC
C(C)C1C(CCCC1)=O,2-ethylcyclohexanone,332.0,carroll11,1,CCCCCCCCCCCC(=O)OCC
C(C)(C)C1C(CCCC1)=O,2-isopropylcyclohexanone,338.0,carroll11,1,CCCCCCCCCCCCCCCCCCCC(=O)OCC
CC1C(CCCC1)=O,2-methylcyclohexanone,319.0,carroll11,1,CCOC(C)=O
CC1CCC(CC1)=O,4-methylcyclohexanone,321.0,carroll11,1,C=CCCCCC(=O)OCC
C(C)C1CCC(CC1)=O,4-ethylcyclohexanone,336.0,carroll11,1,CCCCCCCCCCCCCCCCC(=O)OCC
C(CC)C1CCC(CC1)=O,4-propylcyclohexanone,359.0,carroll11,1,CCCCCCC(=O)OCC
C(C)(C)C1CCC(CC1)=O,4-isopropylcyclohexanone,338.0,carroll11,1,CCCCCCCCCCCCCCCC(=O)OCC
CC(CC(CC)=O)CC,5-methyl-3-heptanone,316.0,carroll11,1,CCCCCC(=O)OCC
C1(CCCCC1)C=O,cyclohexanecarboxaldehyde,314.0,carroll11,1,CCOC(=O)C(C)C
C(C)C(C=O)CCCC,2-ethylhexanal,319.0,carroll11,1,CCOC(=O)CC(C)C
CCCC(CCCC)=O,4-octanone,318.0,carroll11,1,CCOC=O
CCCC(CCCCC)=O,4-nonanone,335.0,carroll11,1,CCCCCCCCC(=O)OCC
CCCC(CCCCCC)=O,4-decanone,344.0,carroll11,1,CCCCCCCCCCCCCCCCCC(=O)OCC
CCCC(CCCCCCC)=O,4-undecanone,365.0,carroll11,1,CCCCCCCC(=O)OCC
C(C(C)C)C(=O)CC(C)C,diisobutylketone,322.0,carroll11,1,CCCCC(=O)OCC
C1(CCCCCC1)=O,cycloheptanone,329.0,carroll11,1,C=CC(=O)OCC
C(C)C1C(CCCCC1)=O,2-ethylcycloheptanone,344.0,carroll11,1,CCOC(=O)CC
CC1CCCC(CCC1)=O,5-methylcyclooctanone,344.0,carroll11,1,CCCCCCCCCCCCCC(=O)OCC
CC1C(CCCCCC1)=O,2-methylcyclooctanone,344.0,carroll11,1,CCCCCCCCCCCCC(=O)OCC
CCCCC(CCCC)=O,5-nonanone,333.0,carroll11,1,C=CCCCCCCCCC(=O)OCC
C(C)(C)(C)C1C(CCCC1)=O,2-tert-butylcyclohexanone,345.0,carroll11,1,CCCCCCCCCCC(=O)OCC
CC1(CC(CC(C1)(C)C)=O)C,"3,3,5,5-tetramethylcyclohexanone",346.0,carroll11,1,CC(=O)OCCOC(C)=O
CCCCCC(CCCCC)=O,6-undecanone,361.0,carroll11,1,C=CC(=O)OCCOC(=O)C=C
COC(OC)=O,dimethylcarbonate,287.0,carroll11,1,CC(=O)OCC(COC(C)=O)OC(C)=O
C(C)OC(OCC)=O,diethylcarbonate,306.0,carroll11,1,CCCCCCCOC(C)=O
C(CC)OC(OCCC)=O,dipropylcarbonate,328.0,carroll11,1,CCCCCCCCCCCCCCCCOC(=O)CCCCCCCCCCC
C(C=C)CCOC([O-])=O,allylethylcarbonate,319.0,carroll11,1,CCCCCCCCCCCCCCCCOC(C)=O
C(C)O,ethanol,285.0,carroll11,1,CCCCCCCCCCCCCCCCOC(=O)CCCC
C(CC)O,1-propanol,296.0,carroll11,1,CCCCCCCC/C=C\CCCCCCCC(=O)OCCCCCC
C(CCC)O,1-butanol,307.0,carroll11,1,CCCCCCCCCC(=O)OCCCCCC
C(CCCC)O,1-pentanol,322.0,carroll11,1,CCCCCCCCCCCC(=O)OCCCCCC
C(CCCCC)O,1-hexanol,332.0,carroll11,1,CCCCCCOC(C)=O
C(CCCCCC)O,1-heptanol,343.0,carroll11,1,CCCCCCCCCCCCCCCC(=O)OCCCCCC
C(CCCCCCCC)O,1-nonanol,371.0,carroll11,1,CCCCCCOC=O
C(CCCCCCCCC)O,1-decanol,381.0,carroll11,1,CCCCCCCCCCCCCC(=O)OCCCCCC
C(CCCCCCCCCCC)O,1-dodecanol,400.0,carroll11,1,CCCCCCCC/C=C\CCCCCCCC(=O)OCC(C)C
C(CCCCCCCCCC)O,1-undecanol,388.0,carroll11,1,CC(C)COC(=O)C(C)C
CC(C)O,2-propanol,285.0,carroll11,1,C=C(C)C(=O)OCC(C)C
CC(CC)O,2-butanol,297.0,carroll11,1,CCCC(=O)OCC(C)C
CC(CCC)O,2-pentanol,307.0,carroll11,1,CCCCCCCCCC(=O)OCC(C)C
CC(CCCC)O,2-hexanol,319.0,carroll11,1,CCCCCCCCCCCC(=O)OCC(C)C
CC(CCCCC)O,2-heptanol,332.0,carroll11,1,CC(=O)OCC(C)C
CC(CCCCCC)O,2-octanol,345.0,carroll11,1,CCCCCCCCCCCCCCCC(=O)OCC(C)C
CC(CCCCCCC)O,2-nonanol,355.0,carroll11,1,CC(C)COC=O
CC(CCCCCCCC)O,2-decanol,358.0,carroll11,1,CCCCCCCCCCCCCCCCCC(=O)OCC(C)C
CC(CCCCCCCCC)O,2-undecanol,380.0,carroll11,1,C=CC(=O)OCC(C)C
CC(CCCCCCCCCC)O,2-dodecanol,386.0,carroll11,1,CCC(=O)OCC(C)C
CCC(CC)O,3-pentanol,306.0,carroll11,1,CCCCCCCCCCCCCC(=O)OCC(C)C
CCC(CCC)O,3-hexanol,318.0,carroll11,1,CCCC(=O)OCCC(C)C
CCC(CCCC)O,3-heptanol,328.0,carroll11,1,CCCCCCCCCC(=O)OCCC(C)C
CCC(CCCCCC)O,3-nonanol,352.0,carroll11,1,CCCCCCCCCCCC(=O)OCCC(C)C
CCC(CCCCCCC)O,3-decanol,372.0,carroll11,1,CC(=O)OCCC(C)C
CCC(CCCCC)O,3-octanol,341.0,carroll11,1,CCCCCC(=O)OCCC(C)C
C(C)(C)(C)O,tert-butylalcohol,284.0,carroll11,1,CC(C)CCOC(=O)CC(C)C
CC(C)(CC)O,2-methyl-2-butanol,294.0,carroll11,1,CC(C)CCOC=O
C(C=C)O,allylalcohol,295.0,carroll11,1,CCC(=O)OCCC(C)C
CC(CO)C,2-methyl-1-propanol,301.0,carroll11,1,CCCCCCCCCCCCCC(=O)OCCC(C)C
CC(C(C)O)C,3-methyl-2-butanol,300.0,carroll11,1,CCCCCCCC/C=C\CCCCCCCC(=O)OC(C)C
CC(C)C(CC)O,2-methyl-3-pentanol,319.0,carroll11,1,CCCCCCCCCC(=O)OC(C)C
CC(CO)CC,2-methyl-1-butanol,316.0,carroll11,1,CC(=O)OC(C)C
CC(CCO)C,3-methyl-1-butanol,316.0,carroll11,1,CCCCCCCCCCCCCCCC(=O)OC(C)C
CC(CC(C)O)C,4-methyl-2-pentanol,314.0,carroll11,1,CCCCCCCCCCCCCCCCCC(=O)OC(C)C
CC(C(C)O)CC,3-methyl-2-pentanol,314.0,carroll11,1,CCCCCC/C=C/CCCCCCCCCC(=O)OC
C1(CCCC1)O,cyclopentanol,324.0,carroll11,1,CCCCCCCC/C=C\CCCCCCCCCC(=O)OC
CC(CO)CCC,2-methyl-1-pentanol,324.0,carroll11,1,CCCCCC/C=C\CCCCCCCCCC(=O)OC
C(C)C(CO)CC,2-ethyl-1-butanol,330.0,carroll11,1,CCCCCCCC/C=C\CCCCCCCCCCCC(=O)OC
CC(CCCO)C,4-methyl-1-pentanol,324.0,carroll11,1,C/C=C/C=C/C(=O)OC
CC(CCO)CC,3-methyl-1-pentanol,331.0,carroll11,1,CCCCCC/C=C/C(=O)OC