compound,flashpoint,pure substance,smiles,source
"Ethanesulfonyl chloride, 2-chloro-",349.35,1.0,O=S(=O)(Cl)CCCl,le15
"Thiophene, 3-bromo-",329.85,1.0,Brc1ccsc1,le15
2-bromothiophene,320.202,1.0,Brc1cccs1,le15
"Cyclohexane, bromo-",335.95,1.0,BrC1CCCCC1,le15
"Benzimidazole, 5-nitro- (8CI)",514.65,1.0,O=[N+]([O-])c1ccc2nc[nH]c2c1,le15
"1H-Indazole, 7-nitro-",458.75,1.0,O=[N+]([O-])c1cccc2cn[nH]c12,le15
"1H-Indazole, 5-nitro-",458.75,1.0,O=[N+]([O-])c1ccc2[nH]ncc2c1,le15
"1H-Benzimidazole, 2-nitro- (9CI)",478.95,1.0,O=[N+]([O-])c1nc2ccccc2[nH]1,le15
"1H-Indazole, 6-nitro-",458.75,1.0,O=[N+]([O-])c1ccc2cn[nH]c2c1,le15
"2,6-dimethoxybenzonitrile",401.95,1.0,COc1cccc(OC)c1C#N,le15
"1,2-Propanedione, 1-phenyl-, 2-oxime",403.85,1.0,CC(=NO)C(=O)c1ccccc1,le15
"Acetanilide, 4'-formyl- (8CI)",454.95,1.0,CC(=O)Nc1ccc(C=O)cc1,le15
"2-Propenoic acid, 3-(4-aminophenyl)-",455.75,1.0,Nc1ccc(C=CC(=O)O)cc1,le15
Benzoyl isothiocyanate,379.15,1.0,O=C(N=C=S)c1ccccc1,le15
"Adenine, N,N-dimethyl- (8CI)",485.45,1.0,CN(C)c1ncnc2nc[nH]c12,le15
"Glycine, N-(2-mercapto-1-oxopropyl)- (9CI)",479.95,1.0,CC(S)C(=O)NCC(=O)O,le15
"6-methoxy-1,2,3,4-tetrahydroquinoline",389.65,1.0,COc1ccc2c(c1)CCCN2,le15
"Propanamide, 2-methyl-N-phenyl- (9CI)",458.95,1.0,CC(C)C(=O)Nc1ccccc1,le15
"1-Butanone, 1-(4-aminophenyl)-",419.25,1.0,CCCC(=O)c1ccc(N)cc1,le15
"Benzothiazole, 2,5-dimethyl-",383.15,1.0,Cc1ccc2sc(C)nc2c1,le15
"Isothiocyanic acid, phenethyl ester",373.15,1.0,S=C=NCCc1ccccc1,le15
Cyclohexanesulfonamide,408.25,1.0,NS(=O)(=O)C1CCCCC1,le15
"N,N-diethyl-3-methylaniline",374.15,1.0,CCN(CC)c1cccc(C)c1,le15
"N,N-diethyl-2-methylaniline",364.35,1.0,CCN(CC)c1ccccc1C,le15
"N,N-diethyl-4-methylaniline",374.25,1.0,CCN(CC)c1ccc(C)cc1,le15
"N,N,2,4,6-pentamethylaniline",352.04999999999984,1.0,Cc1cc(C)c(N(C)C)c(C)c1,le15
"Acetic acid, trichloro-",339.494,1.0,O=C(O)C(Cl)(Cl)Cl,le15
"2-Propanol, 1,1,1-trichloro-",355.35,1.0,CC(O)C(Cl)(Cl)Cl,le15
dichloro-(chloromethyl)-methylsilane,308.15,1.0,C[Si](Cl)(Cl)CCl,le15
"Quinoline, 8-chloro-",418.35,1.0,Clc1cccc2cccnc12,le15
"Quinoline, 6-chloro-",386.15,1.0,Clc1ccc2ncccc2c1,le15
4-Chloroquinoline,383.15,1.0,Clc1ccnc2ccccc12,le15
3-Chloroquinoline,406.35,1.0,Clc1cnc2ccccc2c1,le15
"Quinoline, 2-chloro-",414.35,1.0,Clc1ccc2ccccc2n1,le15
"Butanamide, 2-chloro-N,N-dimethyl-3-oxo-",362.15,1.0,CC(=O)C(Cl)C(=O)N(C)C,le15
"Methane, bromodichloro-",274.45,1.0,ClC(Cl)Br,le15
"Pyrimidine, 2-amino-4,6-dichloro- (8CI)",437.75,1.0,Nc1nc(Cl)cc(Cl)n1,le15
"2-bromo-1,3-thiazole",336.15,1.0,Brc1nccs1,le15
"2,2,3,3,3-pentafluoropropanoic acid",283.45,1.0,O=C(O)C(F)(F)C(F)(F)F,le15
"3,3,4,4,4-pentafluorobutan-2-ol",295.15,1.0,CC(O)C(F)(F)C(F)(F)F,le15
1-fluoro-2-(trifluoromethyl)benzene,290.15,1.0,Fc1ccccc1C(F)(F)F,le15
1-fluoro-3-(trifluoromethyl)benzene,280.35,1.0,Fc1cccc(C(F)(F)F)c1,le15
1-fluoro-4-(trifluoromethyl)benzene,283.15,1.0,Fc1ccc(C(F)(F)F)cc1,le15
"1,2,4,5-tetrafluoro-3-methylbenzene",296.45,1.0,Cc1c(F)c(F)cc(F)c1F,le15
"Methanesulfonic acid, 1,1,1-trifluoro-, methyl ester",311.48299999999995,1.0,COS(=O)(=O)C(F)(F)F,le15
"Isocyanic acid, p-nitrophenyl ester (8CI)",339.15,1.0,O=C=Nc1ccc([N+](=O)[O-])cc1,le15
1-[ethenyl(ethoxy)phosphoryl]oxyethane,362.05,1.0,C=CP(=O)(OCC)OCC,le15
"Benzoic acid, 4-formyl-, methyl ester",417.15,1.0,COC(=O)c1ccc(C=O)cc1,le15
"Benzaldehyde, 4-(N-nitrosomethylamino)-",425.25,1.0,O=Cc1ccc(NCN=O)cc1,le15
"4,7-Methanoindan, 3a,4,5,6,7,7a-hexahydro-1,2:5,6-diepoxy-",407.55,1.0,C1C2OC2C2C1C1CC2C2OC12,le15
ethyl 2-methylbenzoate,364.85,1.0,CCOC(=O)c1ccccc1C,le15
"Benzenemethanol, alpha-methyl-, acetate",443.35,1.0,CC(=O)OC(C)c1ccccc1,le15
ethyl 4-methylbenzoate,372.55,1.0,CCOC(=O)c1ccc(C)cc1,le15
"Benzene, 1,2-methylenedioxy-4-propyl-",372.45,1.0,CCCc1ccc2c(c1)OCO2,le15
"Phenol, 2-methoxy-4-(2-propenyl)-",392.95,1.0,C=CCc1ccc(O)c(OC)c1,le15
"1,3-Dioxolane, 2-(phenylmethyl)-",380.95,1.0,c1ccc(CC2OCCO2)cc1,le15
"Acetic acid, phenyl-, ethyl ester",371.35,1.0,CCOC(=O)Cc1ccccc1,le15
methyl 3-phenylpropanoate,372.85,1.0,COC(=O)CCc1ccccc1,le15
"1-Propanol, 3-phenyl-, formate",374.55,1.0,O=COCCCc1ccccc1,le15
ethyl 3-methylbenzoate,374.25,1.0,CCOC(=O)c1cccc(C)c1,le15
"2-Propanone, 1-(4-methoxyphenyl)-",374.85,1.0,COc1ccc(CC(C)=O)cc1,le15
"p-Benzoquinone, 2,3,5,6-tetramethyl- (8CI)",356.75,1.0,CC1=C(C)C(=O)C(C)=C(C)C1=O,le15
3-methoxy-2-prop-2-enylphenol,377.05,1.0,C=CCc1c(O)cccc1OC,le15
"Benzoic acid, 1-methylethyl ester",366.15,1.0,CC(C)OC(=O)c1ccccc1,le15
2-methoxy-6-prop-1-enylphenol,397.95,1.0,CC=Cc1cccc(OC)c1O,le15
4-phenylbutanoic acid,461.05,1.0,O=C(O)CCCc1ccccc1,le15
"Benzyl alcohol, p-methyl-, acetate (6CI,7CI,8CI)",371.15,1.0,CC(=O)OCc1ccc(C)cc1,le15
propyl benzoate,371.45,1.0,CCCOC(=O)c1ccccc1,le15
"2,5-Cyclohexadiene-1,4-dione, 2-(1,1-dimethylethyl)- (9CI)",355.75,1.0,CC(C)(C)C1=CC(=O)C=CC1=O,le15
phenyl butanoate,363.45,1.0,CCCC(=O)Oc1ccccc1,le15
"2-Butanone, 4-(4-hydroxyphenyl)-",396.05,1.0,CC(=O)CCc1ccc(O)cc1,le15
"Benzaldehyde, 4-propoxy-",391.45,1.0,CCCOc1ccc(C=O)cc1,le15
"1-Propanone, 2-hydroxy-2-methyl-1-phenyl-",381.35,1.0,CC(C)(O)C(=O)c1ccccc1,le15
"methyl 2,4-dimethylbenzoate",470.85,1.0,COC(=O)c1ccc(C)cc1C,le15
"1-propanone, 1-(3-methoxyphenyl)-",372.05,1.0,CCC(=O)c1cccc(OC)c1,le15
2-phenylbutanoic acid,443.35,1.0,CCC(C(=O)O)c1ccccc1,le15
"Phenol, 2-methoxy-4-(1-propenyl)-",385.15,1.0,CC=Cc1ccc(O)c(OC)c1,le15
"Acetic acid, 2-phenylethyl ester",374.85,1.0,CC(=O)OCCc1ccccc1,le15
"Propionic acid, benzyl ester (6CI,7CI,8CI)",369.25,1.0,CCC(=O)OCc1ccccc1,le15
"(2,4-dimethylphenyl) acetate",362.35,1.0,CC(=O)Oc1ccc(C)cc1C,le15
"Oxirane, ((2-methylphenoxy)methyl)-",372.25,1.0,Cc1ccccc1OCC1CO1,le15
"(3,4-dimethylphenyl) acetate",364.65,1.0,CC(=O)Oc1ccc(C)c(C)c1,le15
"Urea, N,N-dimethyl-N'-phenyl-",426.45,1.0,CN(C)C(=O)Nc1ccccc1,le15
"1,1,3,3-tetramethoxypropane",327.5499999999999,1.0,COC(CC(OC)OC)OC,le15
"Ethanol, 2-(2-(2-methoxyethoxy)ethoxy)-",391.15,1.0,COCCOCCOCCO,le15
"2,2'-Dimethyl-2,2'-azodipropiononitrile",369.75,1.0,CC(C)(C#N)N=NC(C)(C)C#N,le15
"2,1-Benzisothiazole, 3-(methylamino)-",413.65,1.0,CNc1snc2ccccc12,le15
"Benzothiazole, 2-amino-4-methyl-",421.75,1.0,Cc1cccc2sc(N)nc12,le15
"Phenol, 4-(1,1-dimethylpropyl)-",384.15,1.0,CCC(C)(C)c1ccc(O)cc1,le15
4-tert-butyl-2-methylphenol,383.05,1.0,Cc1cc(C(C)(C)C)ccc1O,le15
"1-Propanol, 1,1-dimethyl-3-phenyl- (8CI)",379.85,1.0,CC(C)(O)CCc1ccccc1,le15
"Phenol, 2-pentyl-",399.45,1.0,CCCCCc1ccccc1O,le15
"2-Cyclopenten-1-one, 3-methyl-2-(2-pentenyl)-, (Z)-",380.35,1.0,CC/C=C\CC1=C(C)CCC1=O,le15
"Benzenemethanol, alpha-butyl-",383.85,1.0,CCCCC(O)c1ccccc1,le15
"Benzenemethanol, 4-(1,1-dimethylethyl)-",377.95,1.0,CC(C)(C)c1ccc(CO)cc1,le15
"Benzene, (pentyloxy)-",356.75,1.0,CCCCCOc1ccccc1,le15
"Phenol, 2-(1,1-dimethylethyl)-4-methyl-",375.65,1.0,Cc1ccc(O)c(C(C)(C)C)c1,le15
1-tert-butyl-4-methoxybenzene,361.35,1.0,COc1ccc(C(C)(C)C)cc1,le15
"Phenol, 2-butyl-5-methyl- (9CI)",388.95,1.0,CCCCc1ccc(C)cc1O,le15
4-pentylphenol,406.15,1.0,CCCCCc1ccc(O)cc1,le15
butoxymethylbenzene,356.54999999999984,1.0,CCCCOCc1ccccc1,le15
"Phenethyl alcohol, alpha-ethyl-alpha-methyl-",371.75,1.0,CCC(C)(O)Cc1ccccc1,le15
2-methyl-3-phenylbutan-2-ol,353.15,1.0,CC(c1ccccc1)C(C)(C)O,le15
1-butoxy-4-methylbenzene,368.95,1.0,CCCCOc1ccc(C)cc1,le15
2tertbutyl4methylphenol,373.0,1.0,Cc1ccc(O)c(C(C)(C)C)c1,le15
2tertbutyl6methylphenol,380.0,1.0,Cc1cccc(C(C)(C)C)c1O,le15
"1,4-Benzenediamine, N,N-diethyl-",412.15,1.0,CCN(CC)c1ccc(N)cc1,le15
"2,3,5,6-Tetramethyl-p-phenylenediamine",440.95,1.0,Cc1c(C)c(N)c(C)c(C)c1N,le15
"1,3-dimethyladamantane",325.15,1.0,CC12CC3CC(C1)CC(C)(C3)C2,le15
"Methane, trichloronitro-",346.15,1.0,O=[N+]([O-])C(Cl)(Cl)Cl,le15
"Acetoacetic acid, 2-chloro-, ethyl ester (8CI)",323.15,1.0,CCOC(=O)C(Cl)C(C)=O,le15
"Butanoic acid, 4-chloro-3-oxo-, ethyl ester",369.15,1.0,CCOC(=O)CC(=O)CCl,le15
1-Chlorophthalazine,478.75,1.0,Clc1nncc2ccccc12,le15
2-chloroethyl 3-oxobutanoate,376.55,1.0,CC(=O)CC(=O)OCCCl,le15
"Heptanoic acid, 7-chloro-",390.15,1.0,O=C(O)CCCCCCCl,le15
"Ethane, 2,2-dichloro-1,1-difluoro-1-methoxy-",336.15,1.0,COC(F)(F)C(Cl)Cl,le15
"Phosphorodichloridothioic acid, methyl ester",323.0499999999999,1.0,COP(=S)(Cl)Cl,le15
2-(bromomethyl)oxolane,343.85,1.0,BrCC1CCCO1,le15
1-bromo-4-methylpentane,313.25,1.0,CC(C)CCCBr,le15
2-bromohexane,313.25,1.0,CCCCC(C)Br,le15
3-Bromohexane,313.25,1.0,CCCC(Br)CC,le15
2-bromo-2-methylpentane,306.25,1.0,CCCC(C)(C)Br,le15
1-bromo-2-methylpentane,313.25,1.0,CCCC(C)CBr,le15
1-bromo-3-methylpentane,313.25,1.0,CCC(C)CCBr,le15
3-bromo-3-methylpentane,306.25,1.0,CCC(C)(Br)CC,le15
"2,3,5,6-tetrafluoroaniline",335.15,1.0,Nc1c(F)c(F)cc(F)c1F,le15
"Ethanone, 1-(4-nitrophenyl)- (9CI)",349.85,1.0,CC(=O)c1ccc([N+](=O)[O-])cc1,le15
"Ethanone, 1-(3-nitrophenyl)-",373.05,1.0,CC(=O)c1cccc([N+](=O)[O-])c1,le15
"Benzene, 1-(ethenyloxy)-4-nitro-",397.95,1.0,C=COc1ccc([N+](=O)[O-])cc1,le15
"Ethanone, 1-(2-nitrophenyl)-",410.95,1.0,CC(=O)c1ccccc1[N+](=O)[O-],le15
N-Hydroxy-9-methyladenine,481.65,1.0,Cn1cnc2c(NO)ncnc21,le15
"Anthranilic acid, ethyl ester (6CI,7CI,8CI)",399.65,1.0,CCOC(=O)c1ccccc1N,le15
ethyl N-phenylcarbamate,352.35,1.0,CCOC(=O)Nc1ccccc1,le15
ethyl 3-aminobenzoate,384.55,1.0,CCOC(=O)c1cccc(N)c1,le15
"Benzamide, 2-ethoxy-",426.85,1.0,CCOc1ccccc1C(N)=O,le15
"Carbamic acid, methyl-, 3-methylphenyl ester",373.05,1.0,CNC(=O)Oc1cccc(C)c1,le15
"Benzamide, 2-hydroxy-N,N-dimethyl- (9CI)",417.45,1.0,CN(C)C(=O)c1ccccc1O,le15
(2S)-2-amino-3-phenylpropanoic acid,412.95,1.0,N[C@@H](Cc1ccccc1)C(=O)O,le15
"1,2,4-trimethyl-5-nitrobenzene",395.05,1.0,Cc1cc(C)c([N+](=O)[O-])cc1C,le15
1-isothiocyanato-4-methoxybenzene,392.65,1.0,COc1ccc(N=C=S)cc1,le15
"Phenol, 3-(diethylamino)-",412.25,1.0,CCN(CC)c1cccc(O)c1,le15
"Ethanol, 2-(N-ethylanilino)- (8CI)",404.15,1.0,CCN(CCO)c1ccccc1,le15
"Benzenemethanol, alpha-((1S)-1-(methylamino)ethyl)-, (alphaR)-",358.15,1.0,CN[C@@H](C)[C@H](O)c1ccccc1,le15
"(1S,2R)-2-(methylamino)-1-phenylpropan-1-ol",358.75,1.0,CN[C@H](C)[C@@H](O)c1ccccc1,le15
2-Amino-4-tert-butylphenol,393.25,1.0,CC(C)(C)c1ccc(O)c(N)c1,le15
"Ethanol, 2-((2-phenylethyl)amino)- (9CI)",401.55,1.0,OCCNCCc1ccccc1,le15
"Benzenamine, 4-butoxy-",396.75,1.0,CCCCOc1ccc(N)cc1,le15
"1,1-Ethanediol, 2,2,2-trichloro-",330.45,1.0,OC(O)C(Cl)(Cl)Cl,le15
Tetrachloroethylene,318.0,1.0,ClC(Cl)=C(Cl)Cl,le15
"1H-Pyrrole-2,5-dione, 3,4-dichloro-",367.75,1.0,O=C1NC(=O)C(Cl)=C1Cl,le15
"2,3,5,6-tetrafluorophenol",352.54999999999984,1.0,Oc1c(F)c(F)cc(F)c1F,le15
"1,3-Benzenedicarboxylic acid",469.899,1.0,O=C(O)c1cccc(C(=O)O)c1,le15
"Benzamide, 2-nitro- (9CI)",419.189,1.0,NC(=O)c1ccccc1[N+](=O)[O-],le15
"Benzamide, 4-nitro-",449.45,1.0,NC(=O)c1ccc([N+](=O)[O-])cc1,le15
"Benzaldehyde, 4-nitro-, oxime (9CI)",410.95,1.0,O=[N+]([O-])c1ccc(C=NO)cc1,le15
(Z)-2-fluoro-3-phenylprop-2-enoic acid,401.85,1.0,O=C(O)/C(F)=C/c1ccccc1,le15
"Phosphonic acid, ethyl-, diethyl ester",365.85,1.0,CCOP(=O)(CC)OCC,le15
"Phosphorous acid, triethyl ester",327.25,1.0,CCOP(OCC)OCC,le15
"Phosphonic acid, bis(1-methylethyl) ester",365.95,1.0,CC(C)O[PH](=O)OC(C)C,le15
"Benzaldehyde, 2,5-dimethoxy-",393.79400000000004,1.0,COc1ccc(OC)c(C=O)c1,le15
"Benzeneacetic acid, 4-methoxy-",397.45,1.0,COc1ccc(CC(=O)O)cc1,le15
"Benzaldehyde, 3,4-dimethoxy-",383.55,1.0,COc1ccc(C=O)cc1OC,le15
ethyl 4-hydroxybenzoate,393.45,1.0,CCOC(=O)c1ccc(O)cc1,le15
"Benzaldehyde, 3-ethoxy-4-hydroxy-",392.15,1.0,CCOc1cc(C=O)ccc1O,le15
"Benzoic acid, 4-methoxy-, methyl ester",371.25,1.0,COC(=O)c1ccc(OC)cc1,le15
"Salicylaldehyde, 3-ethoxy- (8CI)",371.05,1.0,CCOc1cccc(C=O)c1O,le15
"Ethanone, 1-(4-hydroxy-3-methoxyphenyl)-",398.65,1.0,COc1cc(C(C)=O)ccc1O,le15
"Ethanone, 1-(2-hydroxy-4-methoxyphenyl)- (9CI)",395.45,1.0,COc1ccc(C(C)=O)c(O)c1,le15
"Benzaldehyde, 2,4-dimethoxy-",397.85,1.0,COc1ccc(C=O)c(OC)c1,le15
2-phenoxypropanoic acid,359.15,1.0,CC(Oc1ccccc1)C(=O)O,le15
alpha-methoxy-alpha-phenylacetic acid,389.25,1.0,COC(C(=O)O)c1ccccc1,le15
"Acetic acid, phenoxy-, methyl ester",361.85,1.0,COC(=O)COc1ccccc1,le15
methyl 2-hydroxy-4-methylbenzoate,370.95,1.0,COC(=O)c1ccc(C)cc1O,le15
methyl 3-methoxybenzoate,366.95,1.0,COC(=O)c1cccc(OC)c1,le15
"Benzenemethanol, 4-(acetyloxy)-",399.25,1.0,CC(=O)Oc1ccc(CO)cc1,le15
methyl 2-hydroxy-5-methylbenzoate,371.65,1.0,COC(=O)c1cc(C)ccc1O,le15
"Benzoic acid, 2-hydroxy-3-methyl-, methyl ester",368.65,1.0,COC(=O)c1cccc(C)c1O,le15
"Benzoic acid, 2-hydroxy-, ethyl ester",380.15,1.0,CCOC(=O)c1ccccc1O,le15
3-phenoxypropanoic acid,357.15,1.0,O=C(O)CCOc1ccccc1,le15
"N,N-dimethyl-3-nitroaniline",390.15,1.0,CN(C)c1cccc([N+](=O)[O-])c1,le15
"Benzo(b)thiophene 1,1-dioxide",517.15,1.0,O=S1(=O)C=Cc2ccccc21,le15
"1,3,2-Dioxathiane, 5,5-dimethyl-, 2,2-dioxide",368.15,1.0,CC1(C)COS(=O)(=O)OC1,le15
"1,2-Benzenediol, 4-(1,1-dimethylethyl)-",408.65,1.0,CC(C)(C)c1ccc(O)c(O)c1,le15
"Phenol, p-butoxy- (8CI)",405.55,1.0,CCCCOc1ccc(O)cc1,le15
"1,4-diethoxybenzene",361.35,1.0,CCOc1ccc(OCC)cc1,le15
"1,4-Benzenediol, 2-(1,1-dimethylethyl)-",411.85,1.0,CC(C)(C)c1cc(O)ccc1O,le15
"1,3-diethoxybenzene",360.25,1.0,CCOc1cccc(OCC)c1,le15
"1,2-diethoxybenzene",346.95,1.0,CCOc1ccccc1OCC,le15
"Phenol, 2-methoxy-4-propyl-",386.15,1.0,CCCc1ccc(O)c(OC)c1,le15
1-(furan-3-yl)-4-methylpentan-1-one,369.95,1.0,CC(C)CCC(=O)c1ccoc1,le15
1-Methyl-1-phenylthiourea,388.45,1.0,CN(C(N)=S)c1ccccc1,le15
"Isonicotinimidic acid, 2-ethylthio-",406.35,1.0,CCc1cc(C(=N)S)ccn1,le15
"Bicyclo(3.1.1)hept-2-ene-2-ethanol, 6,6-dimethyl-",372.05,1.0,CC1(C)C2CC=C(CCO)C1C2,le15
"2-Cyclopenten-1-one, 3-methyl-2-pentyl-",383.15,1.0,CCCCCC1=C(C)CCC1=O,le15
"4,7-Methanoindan, hexahydro-1,8-diamino-",399.75,1.0,NC1CCC2C3CCC(C3N)C12,le15
trimethyl(phenoxy)silane,315.90599999999995,1.0,C[Si](C)(C)Oc1ccccc1,le15
dodec-1-yne,352.54999999999984,1.0,C#CCCCCCCCCCC,le15
"dodeca-1,11-diene",342.45,1.0,C=CCCCCCCCCC=C,le15
cyclohexylcyclohexane,365.35,1.0,C1CCC(C2CCCCC2)CC1,le15
(E)-3-phenylprop-2-enoyl chloride,385.65,1.0,O=C(Cl)/C=C/c1ccccc1,le15
"Benzimidazole, 5-chloro-2-methyl- (8CI)",485.35,1.0,Cc1nc2ccc(Cl)cc2[nH]1,le15
2-iodoacetonitrile,359.25,1.0,N#CCI,le15
"Butyric acid, 2-bromo- (8CI)",357.95,1.0,CCC(Br)C(=O)O,le15
2-bromoethyl acetate,344.25,1.0,CC(=O)OCCBr,le15
"Butanoic acid, 4-bromo-",384.45,1.0,O=C(O)CCCBr,le15
"Propionic acid, 3-bromo-, methyl ester (8CI)",348.15,1.0,COC(=O)CCBr,le15
"Acetic acid, 2-bromo-, ethyl ester",320.95,1.0,CCOC(=O)CBr,le15
"3-Bromo-2,2-dimethyl-1-propanol",348.75,1.0,CC(C)(CO)CBr,le15
"Benzoic acid, 4-nitro-",439.65,1.0,O=C(O)c1ccc([N+](=O)[O-])cc1,le15
"Benzoic acid, 3-nitro-",430.65,1.0,O=C(O)c1cccc([N+](=O)[O-])c1,le15
"2,6-Pyridinedicarboxylic acid",507.35,1.0,O=C(O)c1cccc(C(=O)O)n1,le15
"Benzoic acid, 2-nitro-",430.65,1.0,O=C(O)c1ccccc1[N+](=O)[O-],le15
4-Hydroxy-3-nitrobenzaldehyde,397.45,1.0,O=Cc1ccc(O)c([N+](=O)[O-])c1,le15
"Benzaldehyde, 2-hydroxy-3-nitro-",372.35,1.0,O=Cc1cccc([N+](=O)[O-])c1O,le15
"Salicylaldehyde, 5-nitro- (6CI,7CI,8CI)",410.45,1.0,O=Cc1cc([N+](=O)[O-])ccc1O,le15
"2,5-Pyridinedicarboxylic acid",493.65,1.0,O=C(O)c1ccc(C(=O)O)nc1,le15
5-Nitrofuran-2-acrylaldehyde,414.85,1.0,O=CC=Cc1ccc([N+](=O)[O-])o1,le15
"Phenethyl alcohol, p-nitro-",417.65,1.0,O=[N+]([O-])c1ccc(CCO)cc1,le15
"Phenetole, m-nitro- (8CI)",401.25,1.0,CCOc1cccc([N+](=O)[O-])c1,le15
4-methoxy-1-methyl-2-nitrobenzene,400.35,1.0,COc1ccc(C)c([N+](=O)[O-])c1,le15
9H-Carbazole,433.15,1.0,c1ccc2c(c1)[nH]c1ccccc12,le15
"6H-Purine-6-thione, 2-amino-1,7-dihydro-",562.8499999999998,1.0,Nc1nc2nc[nH]c2c(=S)[nH]1,le15
2-naphthalen-2-ylacetonitrile,453.45,1.0,N#CCc1ccc2ccccc2c1,le15
"Cyclohexanol, 1-ethynyl-, carbamate",404.15,1.0,C#CC1(OC(N)=O)CCCCC1,le15
"Benzenemethanol, 3-hydroxy-alpha-((methylamino)methyl)-, (R)- (9CI)",436.55,1.0,CNC[C@H](O)c1cccc(O)c1,le15
"2-Pyrrolidinone, 1-cyclohexyl-",418.15,1.0,O=C1CCCN1C1CCCCC1,le15
"1H-Benzimidazol-2-amine, 5-chloro-",470.45,1.0,Nc1nc2cc(Cl)ccc2[nH]1,le15
3iodo1propene,291.0,1.0,C=CCI,le15
2-bromo-2-nitropropane,334.25,1.0,CC(C)(Br)[N+](=O)[O-],le15
"2-Propanol, 1,1,1,3,3,3-hexafluoro-",277.54999999999995,1.0,OC(C(F)(F)F)C(F)(F)F,le15
"Benzene, pentafluoro-",287.0499999999999,1.0,Fc1cc(F)c(F)c(F)c1F,le15
"Benzeneacetic acid, 3,4-dihydroxy- (9CI)",494.15,1.0,O=C(O)Cc1ccc(O)c(O)c1,le15
"Benzoic acid, 4-hydroxy-3-methoxy-",422.55,1.0,COc1cc(C(=O)O)ccc1O,le15
"2H-Pyran-2,4(3H)-dione, 3-acetyl-6-methyl-",423.75,1.0,CC(=O)C1C(=O)C=C(C)OC1=O,le15
"Benzoic acid, 3,5-dihydroxy-, methyl ester",420.75,1.0,COC(=O)c1cc(O)cc(O)c1,le15
"Benzoic acid, 2,4-dihydroxy-, methyl ester",421.95,1.0,COC(=O)c1ccc(O)cc1O,le15
"Benzenamine, 4-methoxy-2-nitro-",431.55,1.0,COc1ccc(N)c([N+](=O)[O-])c1,le15
"Benzenamine, 2-methoxy-4-nitro-",447.15,1.0,COc1cc([N+](=O)[O-])ccc1N,le15
"Benzenamine, 2-methoxy-5-nitro-",439.75,1.0,COc1ccc([N+](=O)[O-])cc1N,le15
ethyl 4-fluorobenzoate,354.15,1.0,CCOC(=O)c1ccc(F)cc1,le15
"6-Hydroxy-1,3-benzoxathiol-2-one",455.45,1.0,O=c1oc2cc(O)ccc2s1,le15
"Acetic acid, fluoro-, phenylhydrazone (8CI)",362.75,1.0,OC(CF)=NNc1ccccc1,le15
Dibenzofuran,403.15,1.0,c1ccc2c(c1)oc1ccccc12,le15
"(3,4-dimethoxyphenyl)methanol",394.85,1.0,COc1ccc(CO)cc1OC,le15
"9H-Pyrido(3,4-b)indole",455.25,1.0,c1ccc2c(c1)[nH]c1cnccc12,le15
"3-phenoxypropane-1,2-diol",429.55,1.0,OCC(O)COc1ccccc1,le15
butyl furan-2-carboxylate,367.05,1.0,CCCCOC(=O)c1ccco1,le15
"1,3,5-trimethoxybenzene",358.75,1.0,COc1cc(OC)cc(OC)c1,le15
"1H-Pyrrolo(3,2-h)quinoline",454.05,1.0,c1cnc2c(c1)ccc1cc[nH]c12,le15
"1,2,3-trimethoxybenzene",343.5499999999999,1.0,COc1cccc(OC)c1OC,le15
"Isocyanic acid, hexamethylene ester (8CI)",413.15,1.0,O=C=NCCCCCCN=C=O,le15
"Phosphonothioic acid, methyl-, O,S-diethyl ester",352.75,1.0,CCOP(C)(=O)SCC,le15
"Phosphonothioic acid, ethyl-, O-ethyl S-methyl ester",352.75,1.0,CCOP(=O)(CC)SC,le15
Phenyl vinyl sulphone,451.75,1.0,C=CS(=O)(=O)c1ccccc1,le15
"Benzene, 1,1'-methylenebis-",378.05,1.0,c1ccc(Cc2ccccc2)cc1,le15
1-methyl-2-phenylbenzene,380.15,1.0,Cc1ccccc1-c1ccccc1,le15
1-methyl-3-phenylbenzene,386.95,1.0,Cc1cccc(-c2ccccc2)c1,le15
1-prop-2-enylnaphthalene,392.65,1.0,C=CCc1cccc2ccccc12,le15
"1,1'-Biphenyl, 4-methyl-",383.15,1.0,Cc1ccc(-c2ccccc2)cc1,le15
Diphenylmethane,400.0,1.0,c1ccc(Cc2ccccc2)cc1,le15
"7-Oxabicyclo(4.1.0)heptane, 1-methyl-4-(2-methyloxiranyl)-",373.55,1.0,CC1(C2CCC3(C)OC3C2)CO1,le15
"2-Nonynoic acid, methyl ester",373.75,1.0,CCCCCCC#CC(=O)OC,le15
"2,6-Octadienoic acid, 3,7-dimethyl-",474.25,1.0,CC(C)=CCCC(C)=CC(=O)O,le15
"2,3-Dioxabicyclo(2.2.2)oct-5-ene, 1-methyl-4-(1-methylethyl)- (9CI)",329.0499999999999,1.0,CC(C)C12C=CC(C)(CC1)OO2,le15
"2,7-Octadien-1-ol, acetate",360.85,1.0,C=CCCCC=CCOC(C)=O,le15
cyclohexyl 2-methylprop-2-enoate,355.15,1.0,C=C(C)C(=O)OC1CCCCC1,le15
"Phenol, 3,5-dimethyl-4-(methylthio)-",403.95,1.0,CSc1c(C)cc(O)cc1C,le15
10-Undecen-1-al,349.15,1.0,C=CCCCCCCCCC=O,le15
"Hexane, 1-cyclohexyl- (8CI)",353.35,1.0,CCCCCCC1CCCCC1,le15
"3-Heptene, 2,2,4,6,6-pentamethyl-",320.25,1.0,CC(=CC(C)(C)C)CC(C)(C)C,le15
Cyclododecane,360.75,1.0,C1CCCCCCCCCCC1,le15
1dodecene,350.0,1.0,C=CCCCCCCCCCC,le15
"2-Benzoxazolamine, 5-chloro- (9CI)",418.55,1.0,Nc1nc2cc(Cl)ccc2o1,le15
3-Phenylpropionyl chloride,381.15,1.0,O=C(Cl)CCc1ccccc1,le15
2-(4-Chlorophenyl)-2-methyloxirane,370.05,1.0,CC1(c2ccc(Cl)cc2)CO1,le15
(1-chloro-2-methylpropan-2-yl)benzene,365.35,1.0,CC(C)(CCl)c1ccccc1,le15
1-tert-butyl-4-chlorobenzene,358.15,1.0,CC(C)(C)c1ccc(Cl)cc1,le15
2-chloro-1-methyl-4-propan-2-ylbenzene,358.35,1.0,Cc1ccc(C(C)C)cc1Cl,le15
"2-Butenoic acid, 2,3-dichloro-4-oxo-, (Z)- (9CI)",459.15,1.0,O=C/C(Cl)=C(/Cl)C(=O)O,le15
"3,4-Dichloro-5-hydroxyfuran-2(5H)-one",373.15,1.0,O=C1OC(O)C(Cl)=C1Cl,le15
"Glutaryl chloride (7CI,8CI)",379.85,1.0,O=C(Cl)CCCC(=O)Cl,le15
"2-bromo-1,1-dimethoxyethane",327.0499999999999,1.0,COC(CBr)OC,le15
"Glycine, N-(phosphonomethyl)-",508.65,1.0,O=C(O)CNCP(=O)(O)O,le15
"1,1-dichloroheptane",339.15,1.0,CCCCCCC(Cl)Cl,le15
1-isocyanatonaphthalene,408.15,1.0,O=C=Nc1cccc2ccccc12,le15
"1,2,4-Benzenetriol, 5-(2-aminoethyl)-",472.45,1.0,NCCc1cc(O)c(O)cc1O,le15
"Pyridine, 2-(phenylmethyl)-",398.15,1.0,c1ccc(Cc2ccccn2)cc1,le15
"Benzenamine, N-phenyl-",425.95,1.0,c1ccc(Nc2ccccc2)cc1,le15
3-Benzylpyridine,391.75,1.0,c1ccc(Cc2cccnc2)cc1,le15