compound,flashpoint,pure substance,smiles,source
styrene,304.0,1.0,C=Cc1ccccc1,katritzky07
acetophenone,355.0,1.0,CC(=O)c1ccccc1,katritzky07
ethylbenzene,291.0,1.0,CCc1ccccc1,katritzky07
m-xylene,298.0,1.0,Cc1cccc(C)c1,katritzky07
p-xylene,300.0,1.0,Cc1ccc(C)cc1,katritzky07
"2,6-dimethylphenol",346.0,1.0,Cc1cccc(C)c1O,katritzky07
"1,2-dimethylcyclohexane",288.0,1.0,CC1CCCCC1C,katritzky07
"trans-1,2-dimethylcyclohexane",279.0,1.0,C[C@@H]1CCCC[C@H]1C,katritzky07
"cis-1,3-dimethylcyclohexane",278.0,1.0,C[C@H]1CCC[C@@H](C)C1,katritzky07
"cis-1,2-dimethylcyclohexane",285.0,1.0,C[C@H]1CCCC[C@H]1C,katritzky07
"1,4-dimethylcyclohexane",283.0,1.0,CC1CCC(C)CC1,katritzky07
"cis-1,4-dimethylcyclohexane",279.0,1.0,C[C@H]1CC[C@@H](C)CC1,katritzky07
ethylcyclohexane,291.0,1.0,CCC1CCCCC1,katritzky07
n-propylcyclohexane,308.0,1.0,CCCC1CCCCC1,katritzky07
"2,4,4-trimethyl-1-pentene",268.0,1.0,C=C(C)CC(C)(C)C,katritzky07
"2,4,4-trimethyl-2-pentene",275.0,1.0,CC(C)=CC(C)(C)C,katritzky07
isobutyl isobutyrate,313.0,1.0,CC(C)COC(=O)C(C)C,katritzky07
"2,3-dimethylhexane",270.0,1.0,CCCC(C)C(C)C,katritzky07
octane,286.0,1.0,CCCCCCCC,katritzky07
"2,2,4-trimethylpentane",261.0,1.0,CC(C)CC(C)(C)C,katritzky07
di-n-butyl ether,298.0,1.0,CCCCOCCCC,katritzky07
2-ethyl-1-hexanol,350.0,1.0,CCCCC(CC)CO,katritzky07
quinoline,378.0,1.0,c1ccc2ncccc2c1,katritzky07
alpha-methylstyrene,318.0,1.0,C=C(C)c1ccccc1,katritzky07
ethyl benzoate,361.0,1.0,CCOC(=O)c1ccccc1,katritzky07
cumene,304.0,1.0,CC(C)c1ccccc1,katritzky07
o-ethyltoluene,312.0,1.0,CCc1ccccc1C,katritzky07
p-ethyltoluene,309.0,1.0,CCc1ccc(C)cc1,katritzky07
mesitylene,323.0,1.0,Cc1cc(C)cc(C)c1,katritzky07
propylbenzene,320.0,1.0,CCCc1ccccc1,katritzky07
"1,2,3-trimethylbenzene",317.0,1.0,Cc1cccc(C)c1C,katritzky07
"1,2,4-trimethylbenzene",317.0,1.0,Cc1ccc(C)c(C)c1,katritzky07
isophorone,357.0,1.0,CC1=CC(=O)CC(C)(C)C1,katritzky07
n-nonane,304.0,1.0,CCCCCCCCC,katritzky07
"1,2,3,4-tetrahydronaphthalene",350.0,1.0,c1ccc2c(c1)CCCC2,katritzky07
n-butylbenzene,332.0,1.0,CCCCc1ccccc1,katritzky07
tert-butylbenzene,317.0,1.0,CC(C)(C)c1ccccc1,katritzky07
p-cymene,320.0,1.0,Cc1ccc(C(C)C)cc1,katritzky07
m-diethylbenzene,329.0,1.0,CCc1cccc(CC)c1,katritzky07
o-diethyl benzene,322.0,1.0,CCc1ccccc1CC,katritzky07
isobutylbenzene,328.0,1.0,CC(C)Cc1ccccc1,katritzky07
n-butylcyclohexane,314.0,1.0,CCCCC1CCCCC1,katritzky07
decane,319.0,1.0,CCCCCCCCCC,katritzky07
2-ethylhexyl acrylate,359.0,1.0,C=CC(=O)OCC(CC)CCCC,katritzky07
phenyl ether,388.0,1.0,c1ccc(Oc2ccccc2)cc1,katritzky07
diphenylamine,426.0,1.0,c1ccc(Nc2ccccc2)cc1,katritzky07
diethyl phthalate,433.0,1.0,CCOC(=O)c1ccccc1C(=O)OCC,katritzky07
"1,3-diisopropylbenzene",349.0,1.0,CC(C)c1cccc(C(C)C)c1,katritzky07
bicyclohexyl,347.0,1.0,C1CCC(C2CCCCC2)CC1,katritzky07
1-dodecene,350.0,1.0,C=CCCCCCCCCCC,katritzky07
dodecane,347.0,1.0,CCCCCCCCCCCC,katritzky07
di-n-hexyl ether,351.0,1.0,CCCCCCOCCCCCC,katritzky07
diphenylmethane,400.0,1.0,c1ccc(Cc2ccccc2)cc1,katritzky07
benzyl benzoate,420.0,1.0,O=C(OCc1ccccc1)c1ccccc1,katritzky07
bibenzyl,402.0,1.0,c1ccc(CCc2ccccc2)cc1,katritzky07
1-tetradecene,383.0,1.0,C=CCCCCCCCCCCCC,katritzky07
dibutyl phthalate,390.0,1.0,CCCCOC(=O)c1ccccc1C(=O)OCCCC,katritzky07
1-hexadecene,405.0,1.0,C=CCCCCCCCCCCCCCC,katritzky07
dibutyl sebacate,440.0,1.0,CCCCOC(=O)CCCCCCCCC(=O)OCCCC,katritzky07
1-octadecene,421.0,1.0,C=CCCCCCCCCCCCCCCCC,katritzky07
stearic acid,469.0,1.0,CCCCCCCCCCCCCCCCCC(=O)O,katritzky07
octadecane,439.0,1.0,CCCCCCCCCCCCCCCCCC,katritzky07
nonadecane,441.0,1.0,CCCCCCCCCCCCCCCCCCC,katritzky07
methyl isopropenyl ketone,286.0,1.0,C=C(C)C(C)=O,katritzky07
"1,1-dichloropropane",280.0,1.0,CCC(Cl)Cl,katritzky07
"1,3-dichloropropane",305.0,1.0,ClCCCCl,katritzky07
"1,3-propanediol",404.0,1.0,OCCCO,katritzky07
isobutyronitrile,281.0,1.0,CC(C)C#N,katritzky07
"1,4-dichlorobutane",313.0,1.0,ClCCCCCl,katritzky07
2-bromobutane,294.0,1.0,CCC(C)Br,katritzky07
2-chlorobutane,258.0,1.0,CCC(C)Cl,katritzky07
"1,4-butanediol",408.0,1.0,OCCCCO,katritzky07
"2,3-butanediol",358.0,1.0,CC(O)C(C)O,katritzky07
sec-butylamine,264.0,1.0,CCC(C)N,katritzky07
tert-butylamine,264.0,1.0,CC(C)(C)N,katritzky07
valeronitrile,313.0,1.0,CCCCC#N,katritzky07
2-methyl-1-butene,239.0,1.0,C=C(C)CC,katritzky07
2-methyl-2-butene,228.0,1.0,CC=C(C)C,katritzky07
3-methyl-1-butene,216.0,1.0,C=CC(C)C,katritzky07
"1,5-dichloropentane",299.0,1.0,ClCCCCCCl,katritzky07
3-methyl-2-butanone,279.0,1.0,CC(=O)C(C)C,katritzky07
isopropyl acetate,275.0,1.0,CC(=O)OC(C)C,katritzky07
methyl butyrate,284.0,1.0,CCCC(=O)OC,katritzky07
piperidine hydrochloride,338.0,1.0,C1CCNCC1.Cl,katritzky07
"2,2-dimethyl-1-propanol",309.0,1.0,CC(C)(C)CO,katritzky07
tert-butyl methyl ether,245.0,1.0,COC(C)(C)C,katritzky07
methyl sec-butyl ether,243.0,1.0,CCC(C)OC,katritzky07
3-picoline,313.0,1.0,Cc1cccnc1,katritzky07
"1,3-cyclohexadiene",299.0,1.0,C1=CCCC=C1,katritzky07
methylcyclopentadiene,299.0,1.0,CC1=CC=CC1,katritzky07
"2,3-dimethyl-1,3-butadiene",251.0,1.0,C=C(C)C(=C)C,katritzky07
"1,5-hexadiene",246.0,1.0,C=CCCC=C,katritzky07
hexanenitrile,316.0,1.0,CCCCCC#N,katritzky07
"3,3-dimethyl-1-butene",245.0,1.0,C=CC(C)(C)C,katritzky07
2-methyl-2-pentene,250.0,1.0,CCC=C(C)C,katritzky07
3-methyl-1-pentene,245.0,1.0,C=CC(C)CC,katritzky07
hexanal,298.0,1.0,CCCCCC=O,katritzky07
3-hexanone,308.0,1.0,CCCC(=O)CC,katritzky07
sec-butyl acetate,289.0,1.0,CCC(C)OC(C)=O,katritzky07
tert-butyl acetate,288.0,1.0,CC(=O)OC(C)(C)C,katritzky07
ethyl isobutyrate,286.0,1.0,CCOC(=O)C(C)C,katritzky07
ethyl n-butyrate,292.0,1.0,CCCC(=O)OCC,katritzky07
butyl ethyl ether,268.0,1.0,CCCCOCC,katritzky07
2-ethyl-1-butanol,326.0,1.0,CCC(CC)CO,katritzky07
hexyl alcohol,333.0,1.0,CCCCCCO,katritzky07
2-hexanol,314.0,1.0,CCCCC(C)O,katritzky07
2-methyl-1-pentanol,327.0,1.0,CCCC(C)CO,katritzky07
4-methyl-2-pentanol,314.0,1.0,CC(C)CC(C)O,katritzky07
methyl tert-pentyl ether,262.0,1.0,CCC(C)(C)OC,katritzky07
"1,6-hexanediol",374.0,1.0,OCCCCCCO,katritzky07
hexylamine,302.0,1.0,CCCCCCN,katritzky07
acetone,255.0,1.0,CC(C)=O,katritzky07
2-propanol,285.0,1.0,CC(C)O,katritzky07
ethyl vinyl ether,228.0,1.0,C=COCC,katritzky07
butyl formate,291.0,1.0,CCCCOC=O,katritzky07
isovaleric acid,343.0,1.0,CC(C)CC(=O)O,katritzky07
n-butyl acetate,295.0,1.0,CCCCOC(C)=O,katritzky07
hexamethyleneimine,291.0,1.0,C1CCCNCC1,katritzky07
p-cresol,359.0,1.0,Cc1ccc(O)cc1,katritzky07
p-toluidine,360.0,1.0,Cc1ccc(N)cc1,katritzky07
1-heptene,265.0,1.0,C=CCCCCC,katritzky07
methylcyclohexane,269.0,1.0,CC1CCCCC1,katritzky07
"2,2,3-trimethylbutane",267.0,1.0,CC(C)C(C)(C)C,katritzky07
o-xylene,305.0,1.0,Cc1ccccc1C,katritzky07
1-octene,294.0,1.0,C=CCCCCCC,katritzky07
benzyl acetate,375.0,1.0,CC(=O)OCc1ccccc1,katritzky07
m-ethyltoluene,311.0,1.0,CCc1cccc(C)c1,katritzky07
dimethyl phthalate,419.0,1.0,COC(=O)c1ccccc1C(=O)OC,katritzky07
sec-butylbenzene,318.0,1.0,CCC(C)c1ccccc1,katritzky07
"1,4-diethylbenzene",329.0,1.0,CCc1ccc(CC)cc1,katritzky07
1-decene,320.0,1.0,C=CCCCCCCCC,katritzky07
decyl alcohol,355.0,1.0,CCCCCCCCCCO,katritzky07
"1,4-diisopropylbenzene",349.0,1.0,CC(C)c1ccc(C(C)C)cc1,katritzky07
hexadecane,407.0,1.0,CCCCCCCCCCCCCCCC,katritzky07
propionitrile,279.0,1.0,CCC#N,katritzky07
2-bromopropane,274.0,1.0,CC(C)Br,katritzky07
2-chloro-2-methylpropane,246.0,1.0,CC(C)(C)Cl,katritzky07
4-picoline,313.0,1.0,Cc1ccncc1,katritzky07
"1,1,1,2-tetrachloroethane",320.0,1.0,ClCC(Cl)(Cl)Cl,katritzky07
"1,1,1-trichloroethane",272.0,1.0,CC(Cl)(Cl)Cl,katritzky07
"1,1,2-trichloroethane",305.0,1.0,ClCC(Cl)Cl,katritzky07
"1,1-dichloroethane",267.0,1.0,CC(Cl)Cl,katritzky07
"1,1-dichloroethylene",248.0,1.0,C=C(Cl)Cl,katritzky07
"1,1-diethoxyethane",252.0,1.0,CCOC(C)OCC,katritzky07
"1,1-dimethoxyethane",256.0,1.0,COC(C)OC,katritzky07
"1,2-butanediol",366.0,1.0,CCC(O)CO,katritzky07
"1,2-cyclohexanedione",357.0,1.0,O=C1CCCCC1=O,katritzky07
"1,2-dichlorobutane",299.0,1.0,CCC(Cl)CCl,katritzky07
"1,2-dichloroethane",286.0,1.0,ClCCCl,katritzky07
"1,2-dichloropropane",289.0,1.0,CC(Cl)CCl,katritzky07
"1,2-dimethoxyethane",273.0,1.0,COCCOC,katritzky07
"1,2-dimethylbenzene",305.0,1.0,Cc1ccccc1C,katritzky07
"1,2-ethanediamine",307.0,1.0,NCCN,katritzky07
"1,2-ethanediol",384.0,1.0,OCCO,katritzky07
"1,2-ethanedithiol",323.0,1.0,SCCS,katritzky07
"1,2-propadiene",172.0,1.0,C=C=C,katritzky07
"1,2-propanediamine",306.0,1.0,CC(N)CN,katritzky07
"1,3,5,7-cyclooctatetraene",295.0,1.0,C1=CC=CC=CC=C1,katritzky07
"1,3-cyclopentadiene",298.0,1.0,C1=CCC=C1,katritzky07
"1,3-dioxolane",275.0,1.0,C1COCO1,katritzky07
"1,3-propanediamine",321.0,1.0,NCCCN,katritzky07
"1,4-cyclohexadiene",267.0,1.0,C1=CCC=CC1,katritzky07
"1,4-dimethylbenzene",298.0,1.0,Cc1ccc(C)cc1,katritzky07
"1,4-dioxane",285.0,1.0,C1COCCO1,katritzky07
"1,4-hexadiene",252.0,1.0,C=CCC=CC,katritzky07
"1,4-pentadiene",277.0,1.0,C=CCC=C,katritzky07
"1,5-cyclooctadiene",305.0,1.0,C1=CCCC=CCC1,katritzky07
"1,5-pentanedithiol",368.0,1.0,SCCCCCS,katritzky07
"1,6-heptadiene",263.0,1.0,C=CCCCC=C,katritzky07
"1,6-heptadiyne",282.0,1.0,C#CCCCC#C,katritzky07
"1,7-octadiene",282.0,1.0,C=CCCCCC=C,katritzky07
"1,7-octadiyne",296.0,1.0,C#CCCCCC#C,katritzky07
"1,8-nonadiene",299.0,1.0,C=CCCCCCC=C,katritzky07
"1,8-nonadiyne",314.0,1.0,C#CCCCCCC#C,katritzky07
1-amino-2-propanol,350.0,1.0,CC(O)CN,katritzky07
1-bromoheptane,333.0,1.0,CCCCCCCBr,katritzky07
1-bromooctane,351.0,1.0,CCCCCCCCBr,katritzky07
1-bromopentane,304.0,1.0,CCCCCBr,katritzky07
1-butanethiol,275.0,1.0,CCCCS,katritzky07
1-butene,193.0,1.0,C=CCC,katritzky07
1-chloro-2-methylpropane,294.0,1.0,CC(C)CCl,katritzky07
1-chloro-4-ethylbenzene,337.0,1.0,CCc1ccc(Cl)cc1,katritzky07
1-chloroheptane,314.0,1.0,CCCCCCCCl,katritzky07
1-chlorohexane,299.0,1.0,CCCCCCCl,katritzky07
1-chlorononane,347.0,1.0,CCCCCCCCCCl,katritzky07
1-chlorooctane,336.0,1.0,CCCCCCCCCl,katritzky07
1-cyclopropylethanone,286.0,1.0,CC(=O)C1CC1,katritzky07
1-decanamine,359.0,1.0,CCCCCCCCCCN,katritzky07
1-decanethiol,371.0,1.0,CCCCCCCCCCS,katritzky07
1-decanol,355.0,1.0,CCCCCCCCCCO,katritzky07
1-decyne,323.0,1.0,C#CCCCCCCCC,katritzky07
1-dodecanol,400.0,1.0,CCCCCCCCCCCCO,katritzky07
1-ethoxybutane,268.0,1.0,CCCCOCC,katritzky07
1-ethyl-1-methylcyclopentane,279.0,1.0,CCC1(C)CCCC1,katritzky07
1-ethylpiperidine,291.0,1.0,CCN1CCCCC1,katritzky07