,compound,flashpoint,pure substance,smiles,source
13177,Hexamethylcyclotrisiloxane,305.15,1,C[Si]1(C)O[Si](C)(C)O[Si](C)(C)O1,didier12
13178,Hexamethyldisilthiane,299.15,1,C[Si](C)(C)S[Si](C)(C)C,didier12
13179,Hexamethyldisilazane,281.15,1,C[Si](C)(C)N[Si](C)(C)C,didier12
13180,Tris(dimethylamino)silane,298.15,1,CN(C)[SiH](N(C)C)N(C)C,didier12
13181,Hexamethyltrisiloxane,293.15,1,C[Si](C)(C)O[SiH2]O[Si](C)(C)C,didier12
13182,Phenylmethyldichlorosilane,340.15,1,Cl[SiH](Cl)Cc1ccccc1,didier12
13183,Phenylmethylchlorosilane,355.15,1,Cl[SiH2]Cc1ccccc1,didier12
13184,Methyltriacetoxysilane,358.15,1,CC(=O)O[Si](C)(OC(C)=O)OC(C)=O,didier12
13185,Trivinylmethylsilane,288.15,1,C=CC([SiH3])(C=C)C=C,didier12
13186,Cyclohexylmethyldichlorosilane,355.15,1,Cl[SiH](Cl)CC1CCCCC1,didier12
13187,"1-(Trimethylsiloxy)-1,3-butadiene",298.15,1,C=CC=CO[Si](C)(C)C,didier12
13188,2-Chloromethyl-3-trimethylsilyl-1-propene,316.15,1,C=C(CCl)C[Si](C)(C)C,didier12
13189,n-Heptyltrichlorosilane,337.15,1,CCCCCCC[Si](Cl)(Cl)Cl,didier12
13190,n-Hexylmethyldichlorosilane,358.15,1,CCCCCC[Si](C)(Cl)Cl,didier12
13191,Vinylmethyldiethoxysilane,289.15,1,C=CC[SiH](OCC)OCC,didier12
13192,N-(Trimethylsilyl)morpholine,300.15,1,C[Si](C)(C)N1CCOCC1,didier12
13193,t-Butoxytrimethylsilane,287.15,1,CC(C)(C)O[Si](C)(C)C,didier12
13194,Vinylpentamethyldisiloxane,285.15,1,C=C[Si](C)(C)O[Si](C)(C)C,didier12
13195,(1-Methoxy-2-propoxy)trimethylsilane,293.15,1,COCC(C)O[Si](C)(C)C,didier12
13196,Methyltriethoxysilane,297.15,1,CCO[Si](C)(OCC)OCC,didier12
13197,(Diethylamino)trimethylsilane,283.15,1,CCN(CC)[Si](C)(C)C,didier12
13198,Bis(trimethylsilyl)methane,285.15,1,C[Si](C)(C)C[Si](C)(C)C,didier12
13199,Heptamethyldisilazane,300.15,1,CN([Si](C)(C)C)[Si](C)(C)C,didier12
13200,Phenylethyldichlorosilane,365.15,1,Cl[SiH](Cl)CCc1ccccc1,didier12
13201,Tetravinylsilane,291.15,1,C=C[Si](C=C)(C=C)C=C,didier12
13202,Phenyldimethylsilane,311.15,1,C[SiH](C)c1ccccc1,didier12
13203,Cyclopentadienyltrimethylsilane,302.15,1,C[Si](C)(C)C1C=CC=C1,didier12
13204,(Cyclopentenyloxy)trimethylsilane,311.15,1,C[Si](C)(C)OC1=CCCC1,didier12
13205,"(2,4-Pentadienyl)trimethylsilane",291.15,1,C=CC=CC[Si](C)(C)C,didier12
13206,n-Octyltrichlorosilane,369.15,1,CCCCCCCC[Si](Cl)(Cl)Cl,didier12
13207,n-Heptylmethyldichlorosilane,339.15,1,CCCCCCC[Si](C)(Cl)Cl,didier12
13208,Tetramethyldivinyldisiloxane,292.15,1,C=C[Si](C)(C=C)O[Si](C)(C)C,didier12
13209,Triethylacetoxysilane,314.15,1,CCC(CC)(CC)C(=O)O[SiH3],didier12
13210,Vinyltriethoxysilane,307.15,1,C=C[Si](OCC)(OCC)OCC,didier12
13211,"1,3-Divinyltetramethyldisilazane",307.15,1,C=C[Si](C)(C)N[Si](C)(C)C=C,didier12
13212,Diethyldiethoxysilane,316.15,1,CCO[Si](CC)(CC)OCC,didier12
13213,Tetraethoxysilane,323.15,1,CCO[Si](OCC)(OCC)OCC,didier12
13214,Tetraethylsilane,305.15,1,CC[Si](CC)(CC)CC,didier12
13215,Aminoethylaminopropyltrimethoxysilane,369.15,1,CO[Si](CCCNCCN)(OC)OC,didier12
13216,Tetramethyldiethoxysiloxane,311.15,1,CCO[Si]([O])OC(C)(C)C(C)C,didier12
13217,Octamethyltrisiloxane,303.15,1,C[Si](C)(C)O[Si](C)(C)O[Si](C)(C)C,didier12
13218,Octamethylcyclotetrasiloxane,330.15,1,C[Si]1(C)O[Si](C)(C)O[Si](C)(C)O[Si](C)(C)O1,didier12
13219,Octamethylcyclotetrasilazane,339.15,1,C[Si]1(C)N[Si](C)(C)N[Si](C)(C)N[Si](C)(C)N1,didier12
13220,Tetrakisdimethylsiloxysilane,340.15,1,C[SiH](C)O[Si](O[SiH](C)C)(O[SiH](C)C)O[SiH](C)C,didier12
13221,p-Chlorophenyltrimethylsilane,322.15,1,C[Si](C)(C)c1ccc(Cl)cc1,didier12
13222,Phenyltrimethoxysilane,358.15,1,CO[Si](OC)(OC)c1ccccc1,didier12
13223,Trimethylphenylsilane,313.15,1,C[Si](C)(C)c1ccccc1,didier12
13224,Cyclohexylmethyldimethoxysilane,343.15,1,CO[SiH](CC1CCCCC1)OC,didier12
13225,Hexyltrimethoxysilane,335.15,1,CCCCCC[Si](OC)(OC)OC,didier12
13226,Triisopropylsilane,310.15,1,CC(C)[SiH](C(C)C)C(C)C,didier12
13227,Tri-n-propylsilane,316.15,1,CCC[SiH](CCC)CCC,didier12
13228,Propyltris(dimethylsiloxy)silane,323.15,1,CCC[Si](O[SiH](C)C)(O[SiH](C)C)O[SiH](C)C,didier12
13229,Benzyltrimethylsilane,335.15,1,C[Si](C)(C)Cc1ccccc1,didier12
13230,3-Methacryloxypropyltrimethoxysilane,365.15,1,C=C(C)C(=O)OCCC[Si](OC)(OC)OC,didier12
13231,1-Heptynyltrimethylsilane,315.15,1,CCCCCC#C[Si](C)(C)C,didier12
13232,n-Octyldimethylchlorosilane,370.15,1,CCCCCCCC[Si](C)(C)Cl,didier12
13233,Bis(diethylamino)dimethylsilane,308.15,1,CCN(CC)[Si](C)(C)N(CC)CC,didier12
13234,Decamethyltetrasiloxane,335.15,1,C[Si](C)(C)O[Si](C)(C)O[Si](C)(C)O[Si](C)(C)C,didier12
13235,Decamethylcyclopentasiloxane,350.15,1,C[Si]1(C)O[Si](C)(C)O[Si](C)(C)O[Si](C)(C)O[Si](C)(C)O1,didier12
13236,"2-(3,4-epoxycyclohexyl)ethyltrimethoxysilane",419.15,1,CO[Si](CCC1CCC2OC2C1)(OC)OC,didier12
13237,n-Decylmethyldichlorosilane,393.15,1,CCCCCCCCCC[Si](C)(Cl)Cl,didier12
13238,Vinyltriethylsilane,318.15,1,C=C[Si](CC)(CC)CC,didier12
13239,Diphenyldichlorosilane,415.15,1,Cl[Si](Cl)(c1ccccc1)c1ccccc1,didier12
13240,Phenyltriethoxysilane,393.15,1,CCO[Si](OCC)(OCC)c1ccccc1,didier12
13241,Diphenylsilane,371.15,1,c1ccc([SiH2]c2ccccc2)cc1,didier12
13242,Tetramethyltetravinylcyclotetrasilane,385.15,1,C=C[Si]1(C)[Si](C)(C=C)[Si](C)(C=C)[Si]1(C)C=C,didier12
13243,n-Dodecyltrichlorosilane,435.15,1,CCCCCCCCCCCC[Si](Cl)(Cl)Cl,didier12
13244,Tetra-n-propoxysilane,368.15,1,CCCO[Si](OCCC)(OCCC)OCCC,didier12
13245,Hexaethyldisiloxane,349.15,1,CC[Si](CC)(CC)O[Si](CC)(CC)CC,didier12
13246,Dodecamethylpentasiloxane,352.15,1,C[Si](C)(C)O[Si](C)(C)O[Si](C)(C)O[Si](C)(C)O[Si](C)(C)C,didier12
13247,Dodecamethylcyclohexasiloxane,366.15,1,C[Si]1(C)O[Si](C)(C)O[Si](C)(C)O[Si](C)(C)O[Si](C)(C)O[Si](C)(C)O1,didier12
13248,Methyldiphenylchlorosilane,411.15,1,C[Si](Cl)(c1ccccc1)c1ccccc1,didier12
13249,n-Dodecylmethyldichlorosilane,416.15,1,CCCCCCCCCCCC[Si](C)(Cl)Cl,didier12
13250,Diphenyldimethoxysilane,394.15,1,CO[Si](OC)(c1ccccc1)c1ccccc1,didier12
13251,Octyltriethoxysilane,373.15,1,CCCCCCCC[Si](OCC)(OCC)OCC,didier12
13252,Tetradecamethylhexasiloxane,375.15,1,C[Si](C)(C)O[Si](C)(C)O[Si](C)(C)O[Si](C)(C)O[Si](C)(C)O[Si](C)(C)C,didier12
13253,Hexadecamethylheptasiloxane,406.15,1,C[Si](C)(C)O[Si](C)(C)O[Si](C)(C)O[Si](C)(C)O[Si](C)(C)O[Si](C)(C)O[Si](C)(C)C,didier12
13254,Octadecamethyloctasiloxane,417.15,1,C[Si](C)(C)O[Si](C)(C)O[Si](C)(C)O[Si](C)(C)O[Si](C)(C)O[Si](C)(C)O[Si](C)(C)O[Si](C)(C)C,didier12
13255,Vinyltris(methoxyethoxy)silane,353.15,1,C=C[Si](OCCOC)(OCCOC)OCCOC,didier12
13256,Trimethyl(vinyloxy)silane,263.15,1,C=CO[Si](C)(C)C,didier12
13257,Trichloro(3-cyanopropyl) Silane,365.15,1,N#CCCC[Si](Cl)(Cl)Cl,didier12
13258,Trichloro(2-phenylethyl)silane,364.15,1,Cl[Si](Cl)(Cl)CCc1ccccc1,didier12
13259,"Chlorodimethyl(3,3,3-trifluoropropyl) silane",293.15,1,C[Si](C)(Cl)CCC(F)(F)F,didier12
13260,Vinylmethylbis (trimethylsiloxy) silane,324.15,1,C=CC[SiH](O[Si](C)(C)C)O[Si](C)(C)C,didier12
13261,Trichloro(Chloromethyl) silane,342.15,1,ClC[Si](Cl)(Cl)Cl,didier12
13262,Dimethyl(pentafluorophenyl) silane,313.15,1,C[SiH](C)c1c(F)c(F)c(F)c(F)c1F,didier12
13263,Trichloro(p-chlorophenyl)silane,397.05,1,Clc1ccc([Si](Cl)(Cl)Cl)cc1,didier12
13264,Trisilane,273.15,1,[SiH3][SiH2][SiH3],didier12
13265,Trichlorononylsilane,387.15,1,[SiH3]CCCCCCCCC(Cl)(Cl)Cl,didier12
13266,Dichloroethylsilane,263.75,1,[SiH3]CC(Cl)Cl,didier12
13267,Trichloro(dichlorophenyl)silane,419.15,1,Clc1cccc([Si](Cl)(Cl)Cl)c1Cl,didier12
13268,Tris(trimethylsilyl)silane,328.15,1,C[Si](C)(C)[SiH]([Si](C)(C)C)[Si](C)(C)C,didier12
13269,Tris(trimethylsiloxy)silane,323.15,1,C[Si](C)(C)O[SiH](O[Si](C)(C)C)O[Si](C)(C)C,didier12
13270,Hexadecyltrichlorosilane,427.15,1,CCCCCCCCCCCCCCCC[Si](Cl)(Cl)Cl,didier12
13271,Dichlorosilane,236.15,1,Cl[SiH2]Cl,didier12
13272,Methyldichlorosilane,241.15,1,C[SiH](Cl)Cl,didier12
13273,Iodotrimethylsilane,288.15,1,C[Si](C)(C)I,didier12
13274,Dimethyldichlorosilane,257.15,1,C[Si](C)(Cl)Cl,didier12
13275,Bromomethyldimethylchlorosilane,314.15,1,C[Si](C)(Cl)CBr,didier12
13276,Trimethylsilane,204.15,1,C[SiH](C)C,didier12
13277,Dimethylvinylchlorosilane,268.15,1,CC(C)=C[SiH2]Cl,didier12
13278,"1,3-Dichlorotetramethyldisiloxane",288.15,1,C[Si](C)(Cl)O[Si](C)(C)Cl,didier12
13279,"1,1,3,3-Tetramethyldisiloxane",251.15,1,C[SiH](C)O[SiH](C)C,didier12
13280,Tetramethyldisilazane,284.15,1,CN([SiH3])[Si](C)(C)C,didier12
13281,Allyldimethylchlorosilane,278.15,1,C=CC[Si](C)(C)Cl,didier12
13282,sec-Amyltrichlorosilane,303.15,1,CCCC(C)[Si](Cl)(Cl)Cl,didier12
13283,n-Butylmethyldichlorosilane,303.15,1,CCCC[Si](C)(Cl)Cl,didier12
13284,Bis(dimethylamino)methylsilane,270.15,1,CN(C)C([SiH3])N(C)C,didier12
13285,Phenyltrichlorosilane,364.15,1,Cl[Si](Cl)(Cl)c1ccccc1,didier12
13286,Dimethyldiacetoxysilane,310.15,1,CC(=O)O[Si](C)(C)OC(C)=O,didier12
13287,1-Trimethylsilylpropyne,270.15,1,CC#C[Si](C)(C)C,didier12
13288,Vinyldimethylethoxysilane,277.15,1,C=C[Si](C)(C)OCC,didier12
13289,Allyloxytrimethylsilane,273.15,1,C=CCO[Si](C)(C)C,didier12
13290,Allyltrimethoxysilane,319.15,1,C=CC[Si](OC)(OC)OC,didier12
13291,3-Chloropropyltrimethoxysilane,348.15,1,CO[Si](CCCCl)(OC)OC,didier12
13292,n-Propyltrimethoxysilane,298.15,1,CCC[Si](OC)(OC)OC,didier12
13293,Hexamethyldisiloxane,270.15,1,C[Si](C)(C)O[Si](C)(C)C,didier12
13294,Hexamethyldisilane,272.15,1,C[Si](C)(C)[Si](C)(C)C,didier12
13295,Vinyldiethylmethylsilane,288.15,1,C=C[Si](C)(CC)CC,didier12
13296,Isobutyltrimethoxysilane,315.15,1,CO[Si](CC(C)C)(OC)OC,didier12
13297,Phenyldimethylchlorosilane,334.15,1,C[Si](C)(Cl)c1ccccc1,didier12
13298,"(N,N-Dimethylamino)triethylsilane",299.15,1,CC[Si](CC)(CC)N(C)C,didier12
13299,Vinyltriacetoxysilane,361.15,1,C=C[Si](OC(C)=O)(OC(C)=O)OC(C)=O,didier12
13300,Ethyltriacetoxysilane,377.15,1,CC[Si](OC(C)=O)(OC(C)=O)OC(C)=O,didier12
13301,3-(Trimethylsilyl)cyclopentene,299.15,1,C[Si](C)(C)C1C=CCC1,didier12
13302,Vinyltriethylsilane,298.15,1,C=C[Si](CC)(CC)CC,didier12
13303,n-Octylsilane,309.15,1,CCCCCCCC[SiH3],didier12
13304,Methylphenyldimethoxysilane,349.15,1,CO[Si](C)(OC)c1ccccc1,didier12
13305,2-Cyanoethyltriethoxysilane,359.15,1,CCO[Si](CCC#N)(OCC)OCC,didier12
13306,3-Glycidoxypropyltrimethoxysilane,383.15,1,CO[Si](CCCOCC1CO1)(OC)OC,didier12
13307,Di-t-butylmethylchlorosilane,342.15,1,CC(C)(C)[Si](C)(Cl)C(C)(C)C,didier12
13308,Tri-n-propylchlorosilane,349.15,1,CCC[Si](Cl)(CCC)CCC,didier12
13309,(Diisopropylamino)trimethylsilane,301.15,1,CC(C)N(C(C)C)[Si](C)(C)C,didier12
13310,1-Chlorononamethyltetrasiloxane,347.15,1,C[Si](C)(C)O[Si](C)(C)O[Si](C)(C)O[Si](C)(C)Cl,didier12
13311,Tristrimethylsiloxymethylsilane,336.15,1,C[Si](C)(C)OC([SiH3])(O[Si](C)(C)C)O[Si](C)(C)C,didier12
13312,Diphenylmethylsilane,393.15,1,[SiH3]C(c1ccccc1)c1ccccc1,didier12
13313,Trimethyl[(1-methylethenyl)oxy]silane,272.15,1,C=C(C)O[Si](C)(C)C,didier12
13314,"Dichloromethyl-3,3,3-trifluoropropylsilane",288.15,1,FC(F)(F)CC[SiH2]C(Cl)Cl,didier12
13315,[2-(chloromethoxy)ethyl]trimethylsilane,319.15,1,C[Si](C)(C)CCOCCl,didier12
13316,Triphenylsilane,416.35,1,c1ccc([SiH](c2ccccc2)c2ccccc2)cc1,didier12
13317,Trichlorosilane,245.15,1,Cl[SiH](Cl)Cl,didier12
13318,"1,1bicyclohexyl",347.15,1,C1CCC(C2CCCCC2)CC1,le15
13319,"1,1dichloroethane",267.0,1,CC(Cl)Cl,le15
13320,"1,1dichloroethylene",248.0,1,C=C(Cl)Cl,le15
13321,"1,1dichloropropane",280.0,1,CCC(Cl)Cl,le15
13322,"1,1diethoxyethane",252.0,1,CCOC(C)OCC,le15
13323,"1,1dimethoxyethane",256.0,1,COC(C)OC,le15
13324,"1,1dimethyl1sila2oxacyclohexane",287.15,1,C[Si]1(C)CCCCO1,le15
13325,"1,2butanediol",366.0,1,CCC(O)CO,le15
13326,"1,2cyclohexanedione",357.0,1,O=C1CCCCC1=O,le15
13327,"1,2dibromoethyltrichlorosilane",338.15,1,Cl[Si](Cl)(Cl)C(Br)CBr,le15
13328,"1,2dichlorobenzene",340.0,1,Clc1ccccc1Cl,le15
13329,"1,2dichlorobutane",299.0,1,CCC(Cl)CCl,le15
13330,"1,2dichloroethane",286.0,1,ClCCCl,le15
13331,"1,2dichloropropane",289.0,1,CC(Cl)CCl,le15
13332,"1,2diethoxyethane",308.15,1,CCOCCOCC,le15
13333,"1,2diethylBenzene",330.15,1,CCc1ccccc1CC,le15
13334,"1,2dimethoxyethane",271.45,1,COCCOC,le15
13335,"1,2dimethyl3propylBenzene",345.15,1,CCCc1cccc(C)c1C,le15
13336,"1,2dimethylbenzene",305.0,1,Cc1ccccc1C,le15
13337,"1,2dimethylcyclohexane",288.0,1,CC1CCCCC1C,le15
13338,"1,2ethanediamine",307.0,1,NCCN,le15
13339,"1,2ethanediol",384.0,1,OCCO,le15
13340,"1,2ethanedithiol",323.0,1,SCCS,le15
13341,"1,2hexadiene-",253.15,1,C=C=CCCC,le15
13342,"1,2pentadiene-",233.15,1,C=C=CCC,le15
13343,"1,2propadiene",172.0,1,C=C=C,le15
13344,"1,2propanediamine",306.0,1,CC(N)CN,le15
13345,"1,2propanediol",380.0,1,CC(O)CO,le15
13346,"1,3butadiene",197.0,1,C=CC=C,le15
13347,"1,3butanediol",394.0,1,CC(O)CCO,le15
13348,"1,3cyclohexadiene",299.0,1,C1=CCCC=C1,le15
13349,"1,3cyclopentadiene",298.0,1,C1=CCC=C1,le15
13350,"1,3dibromoBenzene",366.15,1,Brc1cccc(Br)c1,le15
13351,"1,3dichloro2butene",300.15,1,CC(Cl)=CCCl,le15
13352,"1,3dichloro2propanol",358.15,1,OC(CCl)CCl,le15
13353,"1,3dichloroBenzene",345.15,1,Clc1cccc(Cl)c1,le15
13354,"1,3dichloropropane",293.0,1,ClCCCCl,le15
13355,"1,3dichloroTetramethylDisiloxane",288.15,1,C[Si](C)(Cl)O[Si](C)(C)Cl,le15
13356,"1,3diethenylBenzene",338.15,1,C=Cc1cccc(C=C)c1,le15
13357,"1,3diethylBenzene",329.15,1,CCc1cccc(CC)c1,le15
13358,"1,3diisopropylbenzene",349.0,1,CC(C)c1cccc(C(C)C)c1,le15
13359,"1,3dimethylBenzene",298.15,1,Cc1cccc(C)c1,le15
13360,"1,3dimethylbutylamine",285.95,1,CC(C)CC(C)N,le15
13361,"1,3dimethylcyclohexane",278.0,1,CC1CCCC(C)C1,le15
13362,"1,3dioxane",274.15,1,C1COCOC1,le15
13363,"1,3dioxolane",275.0,1,C1COCO1,le15
13364,"1,3divinylTetramethylDisilazane",307.15,1,C=C[Si](C)(C)N[Si](C)(C)C=C,le15
13365,"1,3pentadiene-",231.15,1,C=CC=CC,le15
13366,"1,3propanediamine",321.0,1,NCCCN,le15
13367,"1,3propanediol",404.0,1,OCCCO,le15
13368,"1,4butanediol",394.25,1,OCCCCO,le15
13369,"1,4cyclohexadiene",267.0,1,C1=CCC=CC1,le15
13370,"1,4dichloro2butene",326.15,1,ClCC=CCCl,le15
13371,"1,4dichlorobenzene",339.15,1,Clc1ccc(Cl)cc1,le15
13372,"1,4dichlorobutane",313.0,1,ClCCCCCl,le15
13373,"1,4dicyanobutane",432.0,1,N#CCCCCC#N,le15
13374,"1,4diethylbenzene",329.0,1,CCc1ccc(CC)cc1,le15
13375,"1,4diisopropylbenzene",349.0,1,CC(C)c1ccc(C(C)C)cc1,le15
13376,"1,4dimethylbenzene",298.0,1,Cc1ccc(C)cc1,le15
13377,"1,4dimethylcyclohexane",283.0,1,CC1CCC(C)CC1,le15
13378,"1,4dioxane",285.15,1,C1COCCO1,le15
13379,"1,4hexadiene",252.15,1,C=CCC=CC,le15
13380,"1,4pentadiene",277.0,1,C=CCC=C,le15
13381,"1,4thioxane",315.35,1,C1CSCCO1,le15
13382,"1,5cyclooctadiene",305.0,1,C1=CCCC=CCC1,le15
13383,"1,5dichloropentane",299.0,1,ClCCCCCCl,le15
13384,"1,5hexadiene",246.0,1,C=CCCC=C,le15
13385,"1,5pentanediamine",335.15,1,NCCCCCN,le15
13386,"1,5pentanediol",402.0,1,OCCCCCO,le15
13387,"1,5pentanedithiol",368.0,1,SCCCCCS,le15
13388,"1,6heptadiene",263.0,1,C=CCCCC=C,le15
13389,"1,6heptadiyne",282.0,1,C#CCCCC#C,le15
13390,"1,6hexanediamine",366.15,1,NCCCCCCN,le15
13391,"1,6hexanediol",420.0,1,OCCCCCCO,le15
13392,"1,7octadiene",282.0,1,C=CCCCCC=C,le15
13393,"1,7octadiyne",296.0,1,C#CCCCCC#C,le15
13394,"1,8nonadiene",299.0,1,C=CCCCCCC=C,le15
13395,"1,8nonadiyne",314.0,1,C#CCCCCCC#C,le15
13396,"1,9decadiene",316.15,1,C=CCCCCCCC=C,le15
13397,1amino2propanol,350.35,1,CC(O)CN,le15
13398,1bromo4methylBenzene,358.15,1,Cc1ccc(Br)cc1,le15
13399,1bromobutane,297.05,1,CCCCBr,le15
13400,1bromoheptane,333.75,1,CCCCCCCBr,le15
13401,1bromohexane,330.35,1,CCCCCCBr,le15
13402,1bromooctane,351.45,1,CCCCCCCCBr,le15
13403,1bromopentane,304.15,1,CCCCCBr,le15
13404,1bromopropane,298.15,1,CCCBr,le15
13405,1bromovinylTrimethylSilane,288.15,1,C=C(Br)[Si](C)(C)C,le15
13406,1butanethiol,274.85,1,CCCCS,le15
13407,1butanol,302.15,1,CCCCO,le15
13408,1butyne-,210.15,1,C#CCC,le15
13409,1chloro2methylBenzene,324.15,1,Cc1ccccc1Cl,le15
13410,1chloro4ethylbenzene,337.15,1,CCc1ccc(Cl)cc1,le15
13411,1chloro4methylBenzene,325.15,1,Cc1ccc(Cl)cc1,le15
13412,1chloroethyltrichlorosilane,288.15,1,CC(Cl)[Si](Cl)(Cl)Cl,le15
13413,1chlorohexane,308.15,1,CCCCCCCl,le15
13414,1chlorononamethylTetrasiloxane,347.15,1,C[Si](C)(C)O[Si](C)(C)O[Si](C)(C)O[Si](C)(C)Cl,le15
13415,1chlorooctane,343.15,1,CCCCCCCCCl,le15
13416,1decanol,355.15,1,CCCCCCCCCCO,le15
13417,1dodecanethiol,360.95,1,CCCCCCCCCCCCS,le15
13418,1ethenyl2ethylBenzene,331.15,1,C=Cc1ccccc1CC,le15
13419,1ethenyl3ethylBenzene,333.15,1,C=Cc1cccc(CC)c1,le15
13420,1ethenyl3methylBenzene,324.15,1,C=Cc1cccc(C)c1,le15
13421,1ethenyl4ethylBenzene,334.15,1,C=Cc1ccc(CC)cc1,le15
13422,1ethenyl4methylBenzene,319.15,1,C=Cc1ccc(C)cc1,le15
13423,1ethoxy2propanol,315.15,1,CCOCC(C)O,le15
13424,1ethyl2methylBenzene,312.15,1,CCc1ccccc1C,le15
13425,1ethyl3methylBenzene,311.15,1,CCc1cccc(C)c1,le15
13426,1ethyl4methylBenzene,309.15,1,CCc1ccc(C)cc1,le15
13427,1heptanamine,308.15,1,CCCCCCCN,le15
13428,1heptanethiol,314.15,1,CCCCCCCS,le15
13429,1heptanol,346.15,1,CCCCCCCO,le15
13430,1heptynylTrimethylSilane,315.15,1,CCCCCC#C[Si](C)(C)C,le15
13431,1hexanethiol,293.75,1,CCCCCCS,le15
13432,1hexanol,333.15,1,CCCCCCO,le15
13433,1hexenylTrichloroSilane,333.15,1,CCCCC=C[Si](Cl)(Cl)Cl,le15
13434,1Hindene,328.15,1,C1=Cc2ccccc2C1,le15
13435,1Hpyrazole,355.15,1,c1cn[nH]c1,le15
13436,1iodobutane,306.15,1,CCCCI,le15
13437,1iodoheptane,352.05,1,CCCCCCCI,le15
13438,1iodohexane,334.15,1,CCCCCCI,le15
13439,1isopropoxy2propanol,309.15,1,CC(O)COC(C)C,le15
13440,1methoxy2propaneamine,281.15,1,COCC(C)N,le15
13441,1methoxy2propanol,305.15,1,COCC(C)O,le15
13442,1methoxy2propanone,293.15,1,COCC(C)=O,le15
13443,1methoxy2propoxyTrimethylSilane,293.15,1,COCC(C)O[Si](C)(C)C,le15
13444,1methyl1Hindene,338.15,1,CC1C=Cc2ccccc21,le15
13445,1methyl2propylBenzene,326.15,1,CCCc1ccccc1C,le15
13446,1methyl3propylBenzene,325.15,1,CCCc1cccc(C)c1,le15
13447,1methylethylBenzene,304.15,1,CC(C)c1ccccc1,le15
13448,1methylpropylBenzene,325.15,1,CCC(C)c1ccccc1,le15
13449,1nitropropane,308.75,1,CCC[N+](=O)[O-],le15
13450,1nonanamine,335.15,1,CCCCCCCCCN,le15
13451,1nonanethiol,351.15,1,CCCCCCCCCS,le15
13452,1nonanol,348.15,1,CCCCCCCCCO,le15
13453,1nonyne,306.15,1,C#CCCCCCCC,le15
13454,1octanal,325.15,1,CCCCCCCC=O,le15
13455,1octanethiol,341.15,1,CCCCCCCCS,le15
13456,1octanol,354.15,1,CCCCCCCCO,le15
13457,1octyne-,259.15,1,C#CCCCCCC,le15
13458,1pentanethiol,291.45,1,CCCCCS,le15
13459,1pentanol,306.15,1,CCCCCO,le15
13460,1pentene3yne-,243.15,1,C=CC#CC,le15
13461,1pentene4yne-,229.15,1,C#CCC=C,le15
13462,1phenylheptane,368.15,1,CCCCCCCc1ccccc1,le15
13463,1phenylhexane,356.15,1,CCCCCCc1ccccc1,le15
13464,1phenyloctane,380.15,1,CCCCCCCCc1ccccc1,le15
13465,1piperazineEthanamine,366.15,1,NCCN1CCNCC1,le15
13466,1propanesulfonylchloride,353.15,1,CCCS(=O)(=O)Cl,le15
13467,1propanethiol,252.55,1,CCCS,le15
13468,1propanol,291.15,1,CCCO,le15
13469,1propoxy2propanol,321.15,1,CCCOCC(C)O,le15
13470,1propyne-,185.15,1,C#CC,le15
13471,1tertButyl4ethylBenzene,343.15,1,CCc1ccc(C(C)(C)C)cc1,le15
13472,1tetradecene,383.15,1,C=CCCCCCCCCCCCC,le15
13473,1trimethylsilylpropyne-,270.15,1,CC#C[Si](C)(C)C,le15
13474,1undecene,327.15,1,C=CCCCCCCCCC,le15
13475,"2,2dichloropropane",268.0,1,CC(C)(Cl)Cl,le15
13476,"2,2dimethyl1propanol",310.15,1,CC(C)(C)CO,le15
13477,"2,2dimethyl3ethylpentane",286.15,1,CCC(CC)C(C)(C)C,le15
13478,"2,2dimethylbutane",225.15,1,CCC(C)(C)C,le15
13479,"2,2dimethylpropane",208.0,1,CC(C)(C)C,le15
13480,"2,2dimethylpropanenitrile",277.0,1,CC(C)(C)C#N,le15
13481,"2,3butanediol",358.0,1,CC(O)C(C)O,le15
13482,"2,3butanedione",299.85,1,CC(=O)C(C)=O,le15
13483,"2,3dichloro1propanol",366.45,1,OCC(Cl)CCl,le15
13484,"2,3dihydro1Hindene",321.15,1,c1ccc2c(c1)CCC2,le15
13485,"2,3dihydro5methylfuran",261.0,1,CC1=CCCO1,le15
13486,"2,3dihydrofuran",249.0,1,C1=COCC1,le15
13487,"2,3dimethyl1butene",255.0,1,C=C(C)C(C)C,le15
13488,"2,3dimethyl2butene",257.0,1,CC(C)=C(C)C,le15
13489,"2,3dimethylaniline",370.15,1,Cc1cccc(N)c1C,le15
13490,"2,3dimethylbutane",244.15,1,CC(C)C(C)C,le15
13491,"2,3dimethylheptane",363.0,1,CCCCC(C)C(C)C,le15
13492,"2,3dimethylhexane",270.0,1,CCCC(C)C(C)C,le15
13493,"2,3dimethyloxirane",258.15,1,CC1OC1C,le15
13494,"2,3dimethylpentane",267.0,1,CCC(C)C(C)C,le15
13495,"2,3dimethylphenol",368.0,1,Cc1cccc(O)c1C,le15
13496,"2,3pentadiene-",236.15,1,CC=C=CC,le15
13497,"2,4dichlorophenol",387.05,1,Oc1ccc(Cl)cc1Cl,le15
13498,"2,4dimethyl3ethylpentane",288.15,1,CCC(C(C)C)C(C)C,le15
13499,"2,4dimethyl3pentanone",288.15,1,CC(C)C(=O)C(C)C,le15