compound,flashpoint,pure substance,smiles,source
"Benz(a)anthracene, 4-methyl-",490.95,1.0,Cc1cccc2c1ccc1cc3ccccc3cc12,le15
"Chrysene, 6-methyl-",490.95,1.0,Cc1cc2c3ccccc3ccc2c2ccccc12,le15
"Benz(a)anthracene, 5-methyl-",490.95,1.0,Cc1cc2cc3ccccc3cc2c2ccccc12,le15
"Benz(a)anthracene, 10-methyl-",490.95,1.0,Cc1ccc2cc3ccc4ccccc4c3cc2c1,le15
"Benz(a)anthracene, 8-methyl-",490.95,1.0,Cc1cccc2cc3c(ccc4ccccc43)cc12,le15
"Benz(a)anthracene, 12-methyl-",490.95,1.0,Cc1c2ccccc2cc2ccc3ccccc3c12,le15
"Benz(a)anthracene, 3-methyl-",490.95,1.0,Cc1ccc2c(ccc3cc4ccccc4cc32)c1,le15
"Benz(a)anthracene, 1-methyl-",490.95,1.0,Cc1cccc2ccc3cc4ccccc4cc3c12,le15
"Chrysene, 1-methyl-",490.95,1.0,Cc1cccc2c1ccc1c3ccccc3ccc21,le15
"Benz(a)anthracene, 9-methyl-",490.95,1.0,Cc1ccc2cc3c(ccc4ccccc43)cc2c1,le15
"Benz(a)anthracene, 2-methyl-",490.95,1.0,Cc1ccc2ccc3cc4ccccc4cc3c2c1,le15
heptanoyl heptanoate,403.05,1.0,CCCCCCC(=O)OC(=O)CCCCCC,le15
pentadecanoic acid,422.75,1.0,CCCCCCCCCCCCCCC(=O)O,le15
heptyl octanoate,403.15,1.0,CCCCCCCOC(=O)CCCCCCC,le15
1-octoxyoctane,386.65,1.0,CCCCCCCCOCCCCCCCC,le15
"Heptane, 3,3'-(oxybis(methylene))bis-",380.65,1.0,CCCCC(CC)COCC(CC)CCCC,le15
Hexadecan-2-ol,384.45,1.0,CCCCCCCCCCCCCCC(C)O,le15
"9,10-Anthracenedione, 2-chloro-",452.85,1.0,O=C1c2ccccc2C(=O)c2cc(Cl)ccc21,le15
"9,10-Anthracenedione, 1-chloro-",452.85,1.0,O=C1c2ccccc2C(=O)c2c(Cl)cccc21,le15
dibromo(dichloro)methane,309.35,1.0,ClC(Cl)(Br)Br,le15
"Acetic acid, (4-chlorophenoxy)-, 2-(1-methylethyl)hydrazide (9CI)",430.45,1.0,CC(C)NNC(=O)COc1ccc(Cl)cc1,le15
"1,3-Dioxolo(4,5-g)furo(2,3-b)quinoline, 9-methoxy-",474.15,1.0,COc1c2cc3c(cc2nc2occc12)OCO3,le15
"2(1H)-Pyrimidinone, 4-amino-1-beta-D-arabinofuranosyl-",556.95,1.0,Nc1ccn([C@@H]2O[C@H](CO)[C@@H](O)[C@@H]2O)c(=O)n1,le15
Chrysen-6-ylamine,560.05,1.0,Nc1cc2c3ccccc3ccc2c2ccccc12,le15
"Benz(c)acridine, 7-methyl-",478.65,1.0,Cc1c2ccccc2nc2c1ccc1ccccc12,le15
"Dodecanamide, N-(2-hydroxyethyl)-",475.35,1.0,CCCCCCCCCCCC(=O)NCCO,le15
"3(2H)-Benzothiazoleacetic acid, 4-chloro-2-oxo-",510.25,1.0,O=C(O)Cn1c(=O)sc2cccc(Cl)c21,le15
"Hexane, 1,2-dibromo-",356.35,1.0,CCCCC(Br)CBr,le15
"Hexane, 1,6-dibromo-",383.95,1.0,BrCCCCCCBr,le15
"1,1,1,3,3,3-hexafluoro-2-phenylpropan-2-ol",333.15,1.0,OC(c1ccccc1)(C(F)(F)F)C(F)(F)F,le15
"Xanthen-9-one, 1,3,7-trihydroxy-",497.85,1.0,O=c1c2cc(O)ccc2oc2cc(O)cc(O)c12,le15
"1,1'-Biphenyl, 4,4'-dinitro-",481.95,1.0,O=[N+]([O-])c1ccc(-c2ccc([N+](=O)[O-])cc2)cc1,le15
1-nitro-2-(2-nitrophenyl)benzene,461.05,1.0,O=[N+]([O-])c1ccccc1-c1ccccc1[N+](=O)[O-],le15
"s-Triazin-2(1H)-one, 4-amino-1-beta-D-ribofuranosyl- (8CI)",550.15,1.0,Nc1ncn([C@@H]2O[C@H](CO)[C@@H](O)[C@H]2O)c(=O)n1,le15
"1,2,4-Triazin-3(2H)-one, 5-amino-2-beta-D-ribofuranosyl-",550.15,1.0,Nc1cnn([C@@H]2O[C@H](CO)[C@@H](O)[C@H]2O)c(=O)n1,le15
"dimethyl naphthalene-2,6-dicarboxylate",462.35,1.0,COC(=O)c1ccc2cc(C(=O)OC)ccc2c1,le15
"Methanone, (2-hydroxy-4-methoxyphenyl)(2-hydroxyphenyl)-",419.15,1.0,COc1ccc(C(=O)c2ccccc2O)c(O)c1,le15
"Benz(3,4)anthra(1,2-b)oxirene, 1a,11b-dihydro- (9CI)",485.55,1.0,c1ccc2c(c1)-c1cc3ccccc3cc1C1OC21,le15
"2-Propanol, 1,3-diphenoxy-",466.95,1.0,OC(COc1ccccc1)COc1ccccc1,le15
"2H-1-Benzopyran-2-one, 7-methoxy-8-(3-methyl-2-butenyl)- (9CI)",440.75,1.0,COc1ccc2ccc(=O)oc2c1CC=C(C)C,le15
"Aziridine, 1,1'-(1,3-phenylenedicarbonyl)bis(2-methyl-",484.05,1.0,CC1CN1C(=O)c1cccc(C(=O)N2CC2C)c1,le15
"Phosphorothioic acid, O,O-diethyl S-(ethylthio)methyl ester",399.15,1.0,CCOP(=O)(OCC)SCSCC,le15
"Methane, triphenyl- (8CI)",433.45,1.0,c1ccc(C(c2ccccc2)c2ccccc2)cc1,le15
"3-Cyclohexene-1-carboxylic acid, 5-ethyl-6-methyl-4-phenyl-",456.45,1.0,CCC1C(c2ccccc2)=CCC(C(=O)O)C1C,le15
diethyl 2-hexylpropanedioate,395.85,1.0,CCCCCCC(C(=O)OCC)C(=O)OCC,le15
"Phosphorotrithioic acid, O-methyl S,S-dipropyl ester",411.05,1.0,CCCSP(=S)(OC)SCCC,le15
"Urea, 1,1,3-tributyl-2-thio- (8CI)",416.55,1.0,CCCCNC(=S)N(CCCC)CCCC,le15
"Urea, 1-dodecyl-2-thio-",434.75,1.0,CCCCCCCCCCCCNC(N)=S,le15
"2,3-Phenazinediamine, 7-chloro-",544.45,1.0,Nc1cc2nc3ccc(Cl)cc3nc2cc1N,le15
"Benzenesulfonic acid, 4-((methoxycarbonyl)amino)-, hydrazide (9CI)",549.3499999999998,1.0,COC(=O)Nc1ccc(S(=O)(=O)NN)cc1,le15
"Benzenamine, N,N-diphenyl-",430.45,1.0,c1ccc(N(c2ccccc2)c2ccccc2)cc1,le15
"Pyridine, 2-((2-(dimethylamino)ethyl)furfurylamino)- (8CI)",447.35,1.0,CN(C)CCN(Cc1ccco1)c1ccccn1,le15
"2,5-Cyclohexadiene-1,4-dione, 2,3,5,6-tetrachloro-",384.85,1.0,O=C1C(Cl)=C(Cl)C(=O)C(Cl)=C1Cl,le15
"ethyl 2,2-dibromoacetate",342.65,1.0,CCOC(=O)C(Br)Br,le15
"methyl 2,3-dibromopropanoate",344.25,1.0,COC(=O)C(Br)CBr,le15
"Benzene, 1,2,3,4-tetrachloro-5-methoxy-",390.75,1.0,COc1cc(Cl)c(Cl)c(Cl)c1Cl,le15
"Pentanoic acid, 2,2,3,3,4,4,5,5-octafluoro-",323.0499999999999,1.0,O=C(O)C(F)(F)C(F)(F)C(F)(F)C(F)F,le15
"2H-Furo(2,3-h)-1-benzopyran-2-one, 5,6-dimethoxy-",493.65,1.0,COc1c(OC)c2occc2c2oc(=O)ccc12,le15
"Benzophenone, 2,2',4,4'-tetrahydroxy-",562.3499999999998,1.0,O=C(c1ccc(O)cc1O)c1ccc(O)cc1O,le15
"7H-Furo(3,2-g)(1)benzopyran-7-one, 4,9-dimethoxy- (8CI)(9CI)",498.25,1.0,COc1c2ccoc2c(OC)c2oc(=O)ccc12,le15
"1,2-Benzenedicarboxylic acid, di-2-propenyl ester",439.15,1.0,C=CCOC(=O)c1ccccc1C(=O)OCC=C,le15
"2,4,6(1H,3H,5H)-Pyrimidinetrione, 5-ethyl-1-methyl-5-phenyl-",466.35,1.0,CCC1(c2ccccc2)C(=O)NC(=O)N(C)C1=O,le15
"Tryptophan, N-acetyl-, L-",581.75,1.0,CC(=O)N[C@@H](Cc1c[nH]c2ccccc12)C(=O)O,le15
"Aniline, p-((p-nitrophenyl)thio)- (6CI,7CI,8CI)",516.65,1.0,Nc1ccc(Sc2ccc([N+](=O)[O-])cc2)cc1,le15
"Phosphorothioic acid, S-(2-(ethylsulfinyl)ethyl) O,O-dimethyl ester",455.35,1.0,CCS(=O)CCSP(=O)(OC)OC,le15
"6H-Pyrido(4,3-b)carbazole, 5,11-dimethyl-",500.25,1.0,Cc1c2ccncc2c(C)c2c1[nH]c1ccccc12,le15
"1,4-Butanediol, dimethanesulfonate",507.55,1.0,CS(=O)(=O)OCCCCOS(C)(=O)=O,le15
1-methyl-4-(4-methylphenyl)sulfonylbenzene,506.15,1.0,Cc1ccc(S(=O)(=O)c2ccc(C)cc2)cc1,le15
"1,3-Propanediol, 2-butyl-2-ethyl-, dicarbamate",489.75,1.0,CCCCC(CC)(COC(N)=O)COC(N)=O,le15
"Phosphonodithioic acid, ethyl-, O-ethyl S-phenyl ester",422.65,1.0,CCOP(=S)(CC)Sc1ccccc1,le15
"Phosphonodithioic acid, methyl-, O-phenyl S-propyl ester",422.65,1.0,CCCSP(C)(=S)Oc1ccccc1,le15
Benzyl disulfide (8CI),422.15,1.0,c1ccc(CSSCc2ccccc2)cc1,le15
"Benzene, 1,1'-(1,2-ethanediylbis(thio))bis-",457.75,1.0,c1ccc(SCCSc2ccccc2)cc1,le15
"Silane, trimethoxy(2-(7-oxabicyclo(4.1.0)hept-3-yl)ethyl)-",362.85,1.0,CO[Si](CCC1CCC2OC2C1)(OC)OC,le15
"Benzene, 1,3,5-tris(1,1-dimethylethyl)-",372.25,1.0,CC(C)(C)c1cc(C(C)(C)C)cc(C(C)(C)C)c1,le15
"Dodecane, 1-phenyl- (8CI)",413.75,1.0,CCCCCCCCCCCCc1ccccc1,le15
"4-chloro-3,5-dinitrobenzoic acid",482.55,1.0,O=C(O)c1cc([N+](=O)[O-])c(Cl)c([N+](=O)[O-])c1,le15
triethyl(triethylsilyloxy)silane,350.15,1.0,CC[Si](CC)(CC)O[Si](CC)(CC)CC,le15
"1-bromo-2,3,4,5,6-pentafluorobenzene",360.95,1.0,Fc1c(F)c(F)c(Br)c(F)c1F,le15
"Phosphoric acid, dimethyl-4-nitrophenyl ester (9CI)",417.45,1.0,Cc1c(OP(=O)([O-])[O-])ccc([N+](=O)[O-])c1C,le15
"Pyrene, 2-nitro-",503.45,1.0,O=[N+]([O-])c1cc2ccc3cccc4ccc(c1)c2c34,le15
"Pyrene, 1-nitro-",496.65,1.0,O=[N+]([O-])c1ccc2ccc3cccc4ccc1c2c34,le15
"4-Piperidinecarboxylic acid, 1-methyl-4-phenyl-, ethyl ester",384.75,1.0,CCOC(=O)C1(c2ccccc2)CCN(C)CC1,le15
"1,2,4-Thiadiazole, 5-ethoxy-3-(trichloromethyl)-",380.95,1.0,CCOc1nc(C(Cl)(Cl)Cl)ns1,le15
"1,4-Benzenediol, 2,3,5,6-tetrachloro-",400.05,1.0,Oc1c(Cl)c(Cl)c(O)c(Cl)c1Cl,le15
"3,4,5,6-Tetrachloro-1,2-benzenediol  (9CI)",413.85,1.0,Oc1c(O)c(Cl)c(Cl)c(Cl)c1Cl,le15
"2-Furanacetamide, alpha-((5-nitro-2-furanyl)methylene)- (9CI)",504.95,1.0,NC(=O)C(=Cc1ccc([N+](=O)[O-])o1)c1ccco1,le15
"Phosphonic acid, methyl-, diphenyl ester",383.15,1.0,CP(=O)(Oc1ccccc1)Oc1ccccc1,le15
"Phosphorothioic acid, O,O-diethyl O-pyrazinyl ester",412.65,1.0,CCOP(=S)(OCC)Oc1cnccn1,le15
"2-Naphthalenol, 1-(2-phenyldiazenyl)-",563.346,1.0,Oc1ccc2ccccc2c1N=Nc1ccccc1,le15
"Acetamide, N-(2-(6-hydroxy-5-methoxy-1H-indol-3-yl)ethyl)- (9CI)",568.45,1.0,COc1cc2c(CCNC(C)=O)c[nH]c2cc1O,le15
"Benzenamine, 4,4'-sulfonylbis-",536.3499999999998,1.0,Nc1ccc(S(=O)(=O)c2ccc(N)cc2)cc1,le15
"2-Propenoic acid, 2-methyl-, 3-(trimethoxysilyl)propyl ester",365.15,1.0,C=C(C)C(=O)OCCC[Si](OC)(OC)OC,le15
"Pyrimidine, 2,4-diamino-5-(p-chlorophenyl)-6-ethyl-",524.15,1.0,CCc1nc(N)nc(N)c1-c1ccc(Cl)cc1,le15
1-iodo-4-nitrobenzene,373.15,1.0,O=[N+]([O-])c1ccc(I)cc1,le15
1-iodo-2-nitrobenzene,396.05,1.0,O=[N+]([O-])c1ccccc1I,le15
"Benzene, 1-iodo-3-nitro-",344.85,1.0,O=[N+]([O-])c1cccc(I)c1,le15
"Urea, N'-(3,4-dichlorophenyl)-N-methoxy-N-methyl-",284.15,1.0,CON(C)C(=O)Nc1ccc(Cl)c(Cl)c1,le15
"Ether, p-bromophenyl phenyl (8CI)",391.55,1.0,Brc1ccc(Oc2ccccc2)cc1,le15
"1-Triazene-1-carbothioamide, 3-(3,4-dichlorophenyl)- (9CI)",442.25,1.0,NC(=S)N=NNc1ccc(Cl)c(Cl)c1,le15
1-bromododecane,383.15,1.0,CCCCCCCCCCCCBr,le15
"Carbamic acid, methyl-, o-(4,7-dihydro-1,3-dioxepin-2-yl)phenyl ester",442.75,1.0,CNC(=O)Oc1ccccc1C1OCC=CCO1,le15
"1,3,5-Triazine-2,4,6(1H,3H,5H)-trione, 1,3,5-tri-2-propenyl-",426.55,1.0,C=CCn1c(=O)n(CC=C)c(=O)n(CC=C)c1=O,le15
"1,3,5-Triazine, hexahydro-1,3,5-tris(1-oxo-2-propenyl)-",574.15,1.0,C=CC(=O)N1CN(C(=O)C=C)CN(C(=O)C=C)C1,le15
"Benzenesulfonamide, 4-amino-N-2-pyridinyl-",513.3499999999998,1.0,Nc1ccc(S(=O)(=O)Nc2ccccn2)cc1,le15
"Carbamic acid, acetylmethyl-, 3-(1,1-dimethylethyl)phenyl ester",434.25,1.0,CC(=O)CNC(=O)Oc1cccc(C(C)(C)C)c1,le15
"1,4-dibromo-2-methylbenzene",381.05,1.0,Cc1cc(Br)ccc1Br,le15
"2,2,3,4,4,4-Hexafluorobutyl methacrylate",329.15,1.0,C=C(C)C(=O)OCC(F)(F)C(F)C(F)(F)F,le15
"Phthalamide, N,N'-dimethyl-N,N'-dinitroso- (8CI)",459.75,1.0,CN(N=O)C(=O)c1ccccc1C(=O)N(C)N=O,le15
"Isocyanic acid, methylenedi-p-phenylene ester",427.15,1.0,O=C=Nc1ccc(Cc2ccc(N=C=O)cc2)cc1,le15
"Phenol, 4,4'-sulfonylbis-",532.55,1.0,O=S(=O)(c1ccc(O)cc1)c1ccc(O)cc1,le15
"4(3H)-Quinazolinone, 2-methyl-3-(2-methylphenyl)-",473.05,1.0,Cc1ccccc1-n1c(C)nc2ccccc2c1=O,le15
"2-Propenoic acid, 3-(4-methoxyphenyl)-, 2-ethoxyethyl ester",437.95,1.0,CCOCCOC(=O)C=Cc1ccc(OC)cc1,le15
"Propanedioic acid, (phenylmethyl)-, diethyl ester",427.85,1.0,CCOC(=O)C(Cc1ccccc1)C(=O)OCC,le15
"1-Butanol, 1,1',1''-phosphinidynetri- (9CI)",394.25,1.0,CCCC(O)P(C(O)CCC)C(O)CCC,le15
"Benzoic acid, 3,5-bis(1,1-dimethylethyl)-4-hydroxy-",447.15,1.0,CC(C)(C)c1cc(C(=O)O)cc(C(C)(C)C)c1O,le15
"Benzoic acid, p-(octyloxy)- (8CI)",406.25,1.0,CCCCCCCCOc1ccc(C(=O)O)cc1,le15
"3,6,9,12,15-Pentaoxaheptadecane",384.95,1.0,CCOCCOCCOCCOCCOCC,le15
2-[2-[2-(2-butoxyethoxy)ethoxy]ethoxy]ethanol,429.35,1.0,CCCCOCCOCCOCCOCCO,le15
"1,4-Benzenediol, 2,5-bis(1,1-dimethylpropyl)-",435.85,1.0,CCC(C)(C)c1cc(O)c(C(C)(C)CC)cc1O,le15
(9Z)-cycloheptadec-9-en-1-one,430.25,1.0,O=C1CCCCCCC/C=C\CCCCCCC1,le15
"Fluoranthene, 3-(chloromethyl)-",474.35,1.0,ClCc1ccc2c3c(cccc13)-c1ccccc1-2,le15
"Pyrene, 1-(chloromethyl)-",474.35,1.0,ClCc1ccc2ccc3cccc4ccc1c2c34,le15
"1,1,1,3,3,3-hexachloropropane",353.25,1.0,ClC(Cl)(Cl)CC(Cl)(Cl)Cl,le15
"1,1,2,2,3,3-Hexachloropropane",366.85,1.0,ClC(Cl)C(Cl)(Cl)C(Cl)Cl,le15
"2,6-Dibromoaniline",387.75,1.0,Nc1c(Br)cccc1Br,le15
"Benzene, 1,1'-ethylidenebis(4-chloro-",416.75,1.0,CC(c1ccc(Cl)cc1)c1ccc(Cl)cc1,le15
Ethyl 2-bromooctanoate,385.25,1.0,CCCCCCC(Br)C(=O)OCC,le15
"Adenosine, 3'-deoxy-",606.25,1.0,Nc1ncnc2c1ncn2[C@@H]1O[C@H](CO)C[C@H]1O,le15
"Adenosine, 2'-deoxy-",606.25,1.0,Nc1ncnc2c1ncn2[C@H]1C[C@H](O)[C@@H](CO)O1,le15
"3-Butynal, 2,4-diphenyl-2-hydroxy-, oxime",578.65,1.0,ON=CC(O)(C#Cc1ccccc1)c1ccccc1,le15
"2,5-Pyridinedicarboxylic acid, dipropyl ester",444.45,1.0,CCCOC(=O)c1ccc(C(=O)OCCC)nc1,le15
"Pyridine, 2,3,4,5,6-pentachloro-",424.65,1.0,Clc1nc(Cl)c(Cl)c(Cl)c1Cl,le15
"4(3H)-Quinazolinone, 2-methyl-3-(3-methyl-2-pyridinyl)-",488.45,1.0,Cc1cccnc1-n1c(C)nc2ccccc2c1=O,le15
"3,5-Pyridinedicarboxylic acid, diisopropyl ester",421.15,1.0,CC(C)OC(=O)c1cncc(C(=O)OC(C)C)c1,le15
"Chalcone, 4-(dimethylamino)- (8CI)",434.45,1.0,CN(C)c1ccc(C=CC(=O)c2ccccc2)cc1,le15
"2,8,9-Trioxa-5-aza-1-silabicyclo(3.3.3)undecane, 1-phenyl-",398.75,1.0,c1ccc([Si]23OCCN(CCO2)CCO3)cc1,le15
heptadecanenitrile,410.65,1.0,CCCCCCCCCCCCCCCCC#N,le15
"Phenol, 2,4-dibromo-",374.35,1.0,Oc1ccc(Br)cc1Br,le15
"3,5-dibromophenol",395.15,1.0,Oc1cc(Br)cc(Br)c1,le15
"2,6-dibromophenol",355.666,1.0,Oc1c(Br)cccc1Br,le15
"Hexanedinitrile, octafluoro- (8CI,9CI)",306.95,1.0,N#CC(F)(F)C(F)(F)C(F)(F)C(F)(F)C#N,le15
"p-Cresol, alpha,alpha,alpha-trifluoro-2,6-dinitro-",364.45,1.0,O=[N+]([O-])c1cc(C(F)(F)F)cc([N+](=O)[O-])c1O,le15
"Benzo(1,2-c:3,4-c':5,6-c'')tris(1,2,5)oxadiazole, 1,4,7-trioxide",592.95,1.0,[O-][n+]1onc2c1c1no[n+]([O-])c1c1no[n+]([O-])c21,le15
"trimethyl benzene-1,2,4-tricarboxylate",413.55,1.0,COC(=O)c1ccc(C(=O)OC)c(C(=O)OC)c1,le15
"9,10-Anthracenedione, 1-amino-4-(methylamino)-",550.25,1.0,CNc1ccc(N)c2c1C(=O)c1ccccc1C2=O,le15
"3,5-Pyrazolidinedione, 1,2-diphenyl-",440.35,1.0,O=C1CC(=O)N(c2ccccc2)N1c1ccccc1,le15
Benzo(def)chrysene,501.75,1.0,c1ccc2c(c1)cc1ccc3cccc4ccc2c1c34,le15
Perylene,501.75,1.0,c1cc2cccc3c4cccc5cccc(c(c1)c23)c54,le15
Benz(j)aceanthrylene,520.25,1.0,C1=Cc2c3ccc4ccccc4c3cc3cccc1c23,le15
Benzo(j)fluoranthene,501.75,1.0,c1ccc2c3c(ccc2c1)-c1cccc2cccc-3c12,le15
Benzo(k)fluoranthene,501.75,1.0,c1ccc2cc3c(cc2c1)-c1cccc2cccc-3c12,le15
Benz(j)acephenanthrylene,520.25,1.0,C1=Cc2cc3c4ccccc4ccc3c3cccc1c23,le15
Benz(a)aceanthrylene,501.75,1.0,c1ccc2c(c1)-c1cccc3cc4ccccc4c-2c13,le15
"2-Propenoic acid, 3-phenyl-, 2-phenylethyl ester",527.3499999999998,1.0,O=C(C=Cc1ccccc1)OCCc1ccccc1,le15
"Piperazine, 1-(diphenylmethyl)-",413.65,1.0,c1ccc(C(c2ccccc2)N2CCNCC2)cc1,le15
"Oxacycloheptadec-8-en-2-one, (8Z)-",441.35,1.0,O=C1CCCCC/C=C\CCCCCCCCO1,le15
dodecylcyclohexane,420.25,1.0,CCCCCCCCCCCCC1CCCCC1,le15
tridecylcyclopentane,418.35,1.0,CCCCCCCCCCCCCC1CCCC1,le15
1octadecene,421.0,1.0,C=CCCCCCCCCCCCCCCCC,le15
"Phosphorothioic acid, S-(4-chlorophenyl) O,O-dimethyl ester",418.65,1.0,COP(=O)(OC)Sc1ccc(Cl)cc1,le15
Bromoform,356.0,1.0,BrC(Br)Br,le15
"9,10-Anthracenedione, 1-amino-4-methoxy- (9CI)",548.05,1.0,COc1ccc(N)c2c1C(=O)c1ccccc1C2=O,le15
"2-Propen-1-one, 3-(4-nitrophenyl)-1-phenyl-",459.65,1.0,O=C(C=Cc1ccc([N+](=O)[O-])cc1)c1ccccc1,le15
"Chalcone, 2-nitro- (8CI)",478.65,1.0,O=C(C=Cc1ccccc1[N+](=O)[O-])c1ccccc1,le15
"2-Propen-1-one, 1-(4-nitrophenyl)-3-phenyl- (9CI)",488.05,1.0,O=C(C=Cc1ccccc1)c1ccc([N+](=O)[O-])cc1,le15
"Pteridine, 2,4,7-triamino-6-phenyl-",608.65,1.0,Nc1nc(N)c2nc(-c3ccccc3)c(N)nc2n1,le15
"Acenaphtho(1,2-b)quinoline",488.35,1.0,c1ccc2nc3c(cc2c1)-c1cccc2cccc-3c12,le15
"Benzenesulfonamide, 4-amino-N-(5-methyl-3-isoxazolyl)-",518.55,1.0,Cc1cc(NS(=O)(=O)c2ccc(N)cc2)no1,le15
"Benzenemethanol, 2,5-dimethoxy-alpha-(1-((1-methylethyl)amino)ethyl)-",458.45,1.0,COc1ccc(OC)c(C(O)C(C)NC(C)C)c1,le15
"Butanoic acid, 4-(1-piperidinyl)cyclohexyl ester (9CI)",379.85,1.0,CCCC(=O)OC1CCC(N2CCCCC2)CC1,le15
"Propanoic acid, 2-methyl-, 4-(1-piperidinyl)cyclohexyl ester (9CI)",377.25,1.0,CC(C)C(=O)OC1CCC(N2CCCCC2)CC1,le15
"Disulfide, butyl 1,2,2-trichloroethyl",380.95,1.0,CCCCSSC(Cl)C(Cl)Cl,le15
"Benzimidazole, 2,5-bis(trifluoromethyl)-",390.25,1.0,FC(F)(F)c1ccc2nc(C(F)(F)F)[nH]c2c1,le15
"Isoflavone, 4',7-dihydroxy- (8CI)",474.35,1.0,O=c1c(-c2ccc(O)cc2)coc2cc(O)ccc12,le15
"Hydrazinecarboxaldehyde, 2-(4-(5-nitro-2-furanyl)-2-thiazolyl)-",502.05,1.0,O=CNNc1nc(-c2ccc([N+](=O)[O-])o2)cs1,le15
"9,10-Anthracenedione, 1,3-dihydroxy-2-methyl-",559.75,1.0,Cc1c(O)cc2c(c1O)C(=O)c1ccccc1C2=O,le15
"9,10-Anthracenedione, 1,8-dihydroxy-3-methyl- (9CI)",537.05,1.0,Cc1cc(O)c2c(c1)C(=O)c1cccc(O)c1C2=O,le15
"9,10-Anthracenedione, 1,4-dihydroxy-2-methyl- (9CI)",539.8499999999998,1.0,Cc1cc(O)c2c(c1O)C(=O)c1ccccc1C2=O,le15
"bis(2-hydroxyethyl) benzene-1,4-dicarboxylate",445.15,1.0,O=C(OCCO)c1ccc(C(=O)OCCO)cc1,le15
6H-Benzo(cd)pyren-6-one,503.75,1.0,O=c1c2cccc3ccc4ccc5cccc1c5c4c32,le15
"Benzoin, acetate (8CI)",440.35,1.0,CC(=O)O.O=C(c1ccccc1)C(O)c1ccccc1,le15
"Phosphoric acid, diethyl 3-(ethylthio)-1-propenyl ester (9CI)",558.65,1.0,CCOP(=O)(OC=CCSCC)OCC,le15
9-phenylanthracene,465.25,1.0,c1ccc(-c2c3ccccc3cc3ccccc23)cc1,le15
"Benzene, 2-methoxy-1-(phenylmethoxy)-4-(1-propenyl)-",425.25,1.0,CC=Cc1ccc(OCc2ccccc2)c(OC)c1,le15
1-nonylnaphthalene,465.75,1.0,CCCCCCCCCc1cccc2ccccc12,le15
Oxacycloheptadecan-2-one,422.75,1.0,O=C1CCCCCCCCCCCCCCCO1,le15
"2-Propenoic acid, tridecyl ester",391.15,1.0,C=CC(=O)OCCCCCCCCCCCCC,le15
heptadecan-9-one,356.75,1.0,CCCCCCCCC(=O)CCCCCCCC,le15
heptadecan-2-one,353.75,1.0,CCCCCCCCCCCCCCCC(C)=O,le15
2-methylheptadecane,382.05,1.0,CCCCCCCCCCCCCCCC(C)C,le15
"Benzimidazole, 4,7-dichloro-2-(trifluoromethyl)-",427.95,1.0,FC(F)(F)c1nc2c(Cl)ccc(Cl)c2[nH]1,le15
"Benzimidazole, 4,5-dichloro-2-(trifluoromethyl)-",431.25,1.0,FC(F)(F)c1nc2ccc(Cl)c(Cl)c2[nH]1,le15
"Benzoic acid, 2-(((3-methylphenyl)amino)carbonyl)-",451.35,1.0,Cc1cccc(NC(=O)c2ccccc2C(=O)O)c1,le15
"Benzene, 1-methoxy-4-(2-(4-nitrophenyl)ethenyl)-, (E)-",439.75,1.0,COc1ccc(/C=C/c2ccc([N+](=O)[O-])cc2)cc1,le15
"Ethanol, 2,2'-((4-(methylamino)-3-nitrophenyl)imino)bis-",532.8499999999998,1.0,CNc1ccc(N(CCO)CCO)cc1[N+](=O)[O-],le15
9-phenylacridine,452.95,1.0,c1ccc(-c2c3ccccc3nc3ccccc23)cc1,le15
"2,5-Dimethoxy-4-aminostilbene",517.45,1.0,COc1cc(C=Cc2ccccc2)c(OC)cc1N,le15
"Aniline, N,N-dimethyl-p-(4-methoxyphenylazo)-",475.15,1.0,COc1ccc(N=Nc2ccc(N(C)C)cc2)cc1,le15
"Ethanamine, 2-(diphenylmethoxy)-N,N-dimethyl-",374.65,1.0,CN(C)CCOC(c1ccccc1)c1ccccc1,le15
"Acetic acid, (2,4,5-trichlorophenoxy)-",454.55,1.0,O=C(O)COc1cc(Cl)c(Cl)cc1Cl,le15
"Benzoic acid, 2,3,5-trichloro-6-methoxy- (9CI)",440.65,1.0,COc1c(Cl)cc(Cl)c(Cl)c1C(=O)O,le15
"Dodecanamide, N,N-diethyl-",387.45,1.0,CCCCCCCCCCCC(=O)N(CC)CC,le15
heptadecan-1-amine,419.35,1.0,CCCCCCCCCCCCCCCCCN,le15
"Carbamic acid, acetylmethyl-, 2-chloro-4,5-dimethylphenyl ester",453.85,1.0,CC(=O)CNC(=O)Oc1cc(C)c(C)cc1Cl,le15
"9,10-Anthracenedione, 1,2,4-trihydroxy- (9CI)",386.15,1.0,O=C1c2ccccc2C(=O)c2c(O)c(O)cc(O)c21,le15
"9H-Fluorene, 2,7-dinitro- (9CI)",503.05,1.0,O=[N+]([O-])c1ccc2c(c1)Cc1cc([N+](=O)[O-])ccc1-2,le15
"Acetic acid, ((diethoxyphosphinothioyl)oxy)-, ethyl ester (9CI)",395.85,1.0,CCOC(=O)COP(=S)(OCC)OCC,le15
"Benzeneacetic acid, (4-methoxyphenyl)methyl ester",430.35,1.0,COc1ccc(COC(=O)Cc2ccccc2)cc1,le15
"Benz(a)anthracene, 7,12-dimethyl-",327.5499999999999,1.0,Cc1c2ccccc2c(C)c2c1ccc1ccccc12,le15
"Benz(a)anthracene, 7-ethyl-",496.75,1.0,CCc1c2ccccc2cc2c1ccc1ccccc12,le15
"1,2-diphenylethenylbenzene",438.15,1.0,C(=C(c1ccccc1)c1ccccc1)c1ccccc1,le15
"1,6-Dioxacycloheptadecan-17-one",447.55,1.0,O=C1CCCCCCCCCCOCCCCO1,le15
"1,7-Dioxacycloheptadecan-17-one",447.55,1.0,O=C1CCCCCCCCCOCCCCCO1,le15
"Myristic acid, ethyl ester (8CI)",386.15,1.0,CCCCCCCCCCCCCC(=O)OCC,le15
"Hexanoic acid, 2-ethyl-, 2-ethylhexyl ester",410.25,1.0,CCCCC(CC)COC(=O)C(CC)CCCC,le15
octyl octanoate,412.95,1.0,CCCCCCCCOC(=O)CCCCCCC,le15
"1,3-Indandione, 2-(p-chlorophenyl)-",456.55,1.0,O=C1c2ccccc2C(=O)C1c1ccc(Cl)cc1,le15
"Acetic acid, ((4-chloro-o-tolyl)oxy)-, butyl ester",397.95,1.0,CCCCOC(=O)COc1cc(Cl)ccc1C,le15
"1H-Pyrrole, 3-chloro-4-(3-chloro-2-nitrophenyl)-",475.25,1.0,O=[N+]([O-])c1c(Cl)cccc1-c1c[nH]cc1Cl,le15
"1,6-Dinitrocarbazole",551.8499999999998,1.0,O=[N+]([O-])c1ccc2[nH]c3c([N+](=O)[O-])cccc3c2c1,le15
"3,6-Dinitro-9H-carbazole",551.8499999999998,1.0,O=[N+]([O-])c1ccc2[nH]c3ccc([N+](=O)[O-])cc3c2c1,le15
"Phenol, 3,5-dimethyl-4-(methylsulfonyl)-, methylcarbamate (9CI)",482.65,1.0,CNC(=O)Oc1cc(C)c(S(C)(=O)=O)c(C)c1,le15
"Benz(c)acridine, 7,9-dimethyl-",481.85,1.0,Cc1ccc2nc3c(ccc4ccccc43)c(C)c2c1,le15
"Benz(c)acridine, 7,10-dimethyl-",482.95,1.0,Cc1ccc2c(C)c3ccc4ccccc4c3nc2c1,le15
"Phosphonic acid, (2,2,2-trichloro-1-hydroxyethyl)-, dimethyl ester",389.85,1.0,COP(=O)(OC)C(O)C(Cl)(Cl)Cl,le15
"Phenol, 3,4,5-trichloro-2,6-dimethoxy-",430.85,1.0,COc1c(O)c(OC)c(Cl)c(Cl)c1Cl,le15
"Acetamide, N-chloro-N-9H-fluoren-2-yl-",481.15,1.0,CC(=O)N(Cl)c1ccc2c(c1)Cc1ccccc1-2,le15
"Acetic acid, (4-chlorophenoxy)-, 2-(dimethylamino)ethyl ester (9CI)",436.15,1.0,CN(C)CCOC(=O)COc1ccc(Cl)cc1,le15
"1,3,5-Triazine-2,4-diamine, 6-chloro-N,N,N',N'-tetraethyl- (9CI)",461.45,1.0,CCN(CC)c1nc(Cl)nc(N(CC)CC)n1,le15
"Malealdehydic acid, dibromo- (8CI)",421.55,1.0,O=C/C(Br)=C(/Br)C(=O)O,le15