,compound,flashpoint,pure substance,smiles,source
11516,"Cholestane-3,5,6-triol, (3beta,5alpha,6beta)- (9CI)",485.65,1,CC(C)CCC[C@@H](C)[C@H]1CC[C@H]2[C@@H]3C[C@@H](O)[C@@]4(O)C[C@@H](O)CC[C@]4(C)[C@H]3CC[C@@]21C,le15
11517,"1,2,3,4-tetrabromo-5,6-dimethylbenzene",450.75,1,Cc1c(C)c(Br)c(Br)c(Br)c1Br,le15
11518,"Benzimidazole, 4,5,6-tribromo-2-(trifluoromethyl)-",486.95,1,FC(F)(F)c1nc2cc(Br)c(Br)c(Br)c2[nH]1,le15
11519,"2,6,10,15,19,23-hexamethyltetracosane",490.95,1,CC(C)CCCC(C)CCCC(C)CCCCC(C)CCCC(C)CCCC(C)C,le15
11520,"o-Cresol, tetrabromo- (8CI)",443.45,1,Cc1c(O)c(Br)c(Br)c(Br)c1Br,le15
11521,"Methanone, (3,5-dibromo-4-hydroxyphenyl)(2-ethyl-3-benzofuranyl)-",537.85,1,CCc1oc2ccccc2c1C(=O)c1cc(Br)c(O)c(Br)c1,le15
11522,"Ethane, pentabromo-",393.45,1,BrC(Br)C(Br)(Br)Br,le15
11523,"Phenol, 4,4'-methylenebis(2,6-bis(1,1-dimethylethyl)-",451.25,1,CC(C)(C)c1cc(Cc2cc(C(C)(C)C)c(O)c(C(C)(C)C)c2)cc(C(C)(C)C)c1O,le15
11524,"Tetradecanoic acid, tetradecyl ester",513.95,1,CCCCCCCCCCCCCCOC(=O)CCCCCCCCCCCCC,le15
11525,"1,2-Benzenediol, 3,4,5,6-tetrabromo- (9CI)",432.15,1,Oc1c(O)c(Br)c(Br)c(Br)c1Br,le15
11526,"Sebacic acid, bis(2-ethylhexyl) ester (8CI)",462.805,1,CCCCC(CC)COC(=O)CCCCCCCCC(=O)OCC(CC)CCCC,le15
11527,"Cyclohexane, 1,2-dibromo-4-(1,2-dibromoethyl)-",446.45,1,BrCC(Br)C1CCC(Br)C(Br)C1,le15
11528,"methyl 2,2,3,3,4,4,5,5,6,6,7,7,8,8,8-pentadecafluorooctanoate",318.65,1,COC(=O)C(F)(F)C(F)(F)C(F)(F)C(F)(F)C(F)(F)C(F)(F)C(F)(F)F,le15
11529,Inosine 5'-(trihydrogen pyrophosphate),786.45,1,O=P(O)(O)OP(=O)(O)OC[C@H]1O[C@@H](n2cnc3c(O)ncnc32)[C@H](O)[C@@H]1O,le15
11530,"Cholesterol, acetate (8CI)",521.95,1,CC(=O)O[C@H]1CC[C@@]2(C)C(=CC[C@@H]3[C@@H]2CC[C@@]2(C)[C@H]3CC[C@@H]2[C@H](C)CCCC(C)C)C1,le15
11531,"Ethanimidoyl chloride, 2,2,2-trichloro-N-(pentachlorophenyl)-",499.25,1,ClC(=Nc1c(Cl)c(Cl)c(Cl)c(Cl)c1Cl)C(Cl)(Cl)Cl,le15
11532,"Benzoxazole, 2,2'-(2,5-thiophenediyl)bis(5-(1,1-dimethylethyl)-",548.25,1,CC(C)(C)c1ccc2oc(-c3ccc(-c4nc5cc(C(C)(C)C)ccc5o4)s3)nc2c1,le15
11533,"(1,4'-Bipiperidine)-4'-carboxamide, 1'-(3-cyano-3,3-diphenylpropyl)-",615.45,1,N#CC(CCN1CCC(C(N)=O)(N2CCCCC2)CC1)(c1ccccc1)c1ccccc1,le15
11534,"1-Nonanol, 2,2,3,3,4,4,5,5,6,6,7,7,8,8,9,9-hexadecafluoro-",346.55,1,OCC(F)(F)C(F)(F)C(F)(F)C(F)(F)C(F)(F)C(F)(F)C(F)(F)C(F)F,le15
11535,"1,3-Propanediol, 2-((benzoyloxy)methyl)-2-methyl-, 1,3-dibenzoate",518.45,1,CC(COC(=O)c1ccccc1)(COC(=O)c1ccccc1)COC(=O)c1ccccc1,le15
11536,"Phosphoric acid, tris(2-ethylhexyl) ester",479.75,1,CCCCC(CC)COP(=O)(OCC(CC)CCCC)OCC(CC)CCCC,le15
11537,"Phosphoric acid, trioctyl ester",491.15,1,CCCCCCCCOP(=O)(OCCCCCCCC)OCCCCCCCC,le15
11538,TrioctylPhosphate,491.15,1,CCCCCCCCOP(=O)(OCCCCCCCC)OCCCCCCCC,le15
11539,"1,1,1,2,2,3,3,4,4,5,5,6,6,7,7,8,8,8-octadecafluorooctane",303.85,1,FC(F)(F)C(F)(F)C(F)(F)C(F)(F)C(F)(F)C(F)(F)C(F)(F)C(F)(F)F,le15
11540,"Benzenamine, 2,4,6-trinitro-N-(2,4,6-trinitrophenyl)-",549.05,1,O=[N+]([O-])c1cc([N+](=O)[O-])c(Nc2c([N+](=O)[O-])cc([N+](=O)[O-])cc2[N+](=O)[O-])c([N+](=O)[O-])c1,le15
11541,"5,9,14,18-Anthrazinetetrone, 6,15-dihydro-",527.05,1,O=c1c2ccccc2c(=O)c2c1ccc1[nH]c3c(ccc4c(=O)c5ccccc5c(=O)c43)[nH]c12,le15
11542,"Phosphoric acid, 1,2-dibromo-2,2-dichloroethyl methyl phenyl ester",436.55,1,COP(=O)(Oc1ccccc1)OC(Br)C(Cl)(Cl)Br,le15
11543,"Cyclohexasiloxane, dodecamethyl-",397.55,1,C[Si]1(C)O[Si](C)(C)O[Si](C)(C)O[Si](C)(C)O[Si](C)(C)O[Si](C)(C)O1,le15
11544,"1H-Imidazole, 2,4,5-triiodo- (9CI)",504.65,1,Ic1nc(I)c(I)[nH]1,le15
11545,"1,1,1,2,2,3,3,4,4,5,5,6,6-tridecafluoro-6-iodohexane",318.15,1,FC(F)(F)C(F)(F)C(F)(F)C(F)(F)C(F)(F)C(F)(F)I,le15
11546,"1,2-Benzenedicarboxylic acid, didecyl ester",516.85,1,CCCCCCCCCCOC(=O)c1ccccc1C(=O)OCCCCCCCCCC,le15
11547,"Hexasulfide, bis(1-piperidinylthioxomethyl)",576.75,1,S=C(SSSSSSC(=S)N1CCCCC1)N1CCCCC1,le15
11548,"1-bromo-1,1,2,2,3,3,4,4,5,5,6,6,7,7,7-pentadecafluoroheptane",300.65,1,FC(F)(F)C(F)(F)C(F)(F)C(F)(F)C(F)(F)C(F)(F)C(F)(F)Br,le15
11549,dotriacontane,597.05,1,CCCCCCCCCCCCCCCCCCCCCCCCCCCCCCCC,le15
11550,"1,1,2,2,3,3,4,4-octafluoro-1,4-diiodobutane",329.05,1,FC(F)(I)C(F)(F)C(F)(F)C(F)(F)I,le15
11551,"Benzamide, N,N'-(dithiodi-2,1-phenylene)bis-",523.15,1,O=C(Nc1ccccc1SSc1ccccc1NC(=O)c1ccccc1)c1ccccc1,le15
11552,"1,3-Benzodioxole, 5-(bis(2-(2-butoxyethoxy)ethoxy)methyl)- (9CI)",470.75,1,CCCCOCCOCCOC(OCCOCCOCCCC)c1ccc2c(c1)OCO2,le15
11553,"Dibenzo-p-dioxin, 1,2,3,4,6,7,8,9-octachloro-",468.85,1,Clc1c(Cl)c(Cl)c2c(c1Cl)Oc1c(Cl)c(Cl)c(Cl)c(Cl)c1O2,le15
11554,"1,6-Dibromo-1,1,2,2,3,3,4,4,5,5,6,6-dodecafluorohexane",319.55,1,FC(F)(Br)C(F)(F)C(F)(F)C(F)(F)C(F)(F)C(F)(F)Br,le15
11555,2-[2-[2-(2-hydroxyethoxy)ethoxy]ethoxy]ethyl octadecanoate,436.15,1,CCCCCCCCCCCCCCCCCC(=O)OCCOCCOCCOCCO,le15
11556,"1,1,2,2,3,3,4,4,4a,5,5,6,6,7,7,8,8,8a-octadecafluoronaphthalene",319.55,1,FC1(F)C(F)(F)C(F)(F)C2(F)C(F)(F)C(F)(F)C(F)(F)C(F)(F)C2(F)C1(F)F,le15
11557,"1,3-Isobenzofurandione, 4,5,6,7-tetrabromo-",553.85,1,O=C1OC(=O)c2c(Br)c(Br)c(Br)c(Br)c21,le15
11558,"Cyclotrisiloxane, 2,4,6-trimethyl-2,4,6-tris(3,3,3-trifluoropropyl)-",380.25,1,C[Si]1(CCC(F)(F)F)O[Si](C)(CCC(F)(F)F)O[Si](C)(CCC(F)(F)F)O1,le15
11559,"Phenol, 2,4,6-triiodo-",418.25,1,Oc1c(I)cc(I)cc1I,le15
11560,"Piperazine, 1,4-bis(3,4,5-trimethoxybenzoyl)-",636.85,1,COc1cc(C(=O)N2CCN(C(=O)c3cc(OC)c(OC)c(OC)c3)CC2)cc(OC)c1OC,le15
11561,"Anthra(2,1-d:6,5-d')bisthiazole-6,12-dione, 2,8-diphenyl-",666.75,1,O=C1c2ccc3nc(-c4ccccc4)sc3c2C(=O)c2ccc3nc(-c4ccccc4)sc3c21,le15
11562,tetratriacontane,618.45,1,CCCCCCCCCCCCCCCCCCCCCCCCCCCCCCCCCC,le15
11563,"Phosphonic acid, ((ethylthio)methylidyne)tris-, hexaethyl ester",538.45,1,CCOP(=O)(OCC)C(SCC)(P(=O)(OCC)OCC)P(=O)(OCC)OCC,le15
11564,"Benzene, 1,2,3,4,5-pentabromo-6-methyl-",459.65,1,Cc1c(Br)c(Br)c(Br)c(Br)c1Br,le15
11565,"Leucine, N-(N-acetyl-3-(p-(bis(2-chloroethyl)amino)phenyl)-DL-alanyl)-",642.25,1,CC(=O)NC(Cc1ccc(N(CCCl)CCCl)cc1)C(=O)N[C@@H](CC(C)C)C(=O)O,le15
11566,"Phenol, pentabromo-",440.05,1,Oc1c(Br)c(Br)c(Br)c(Br)c1Br,le15
11567,"1,1,1,2,2,3,3,4,4,5,5,6,6,7,7-pentadecafluoro-7-iodoheptane",330.25,1,FC(F)(F)C(F)(F)C(F)(F)C(F)(F)C(F)(F)C(F)(F)C(F)(F)I,le15
11568,"1-bromo-1,1,2,2,3,3,4,4,5,5,6,6,7,7,8,8,8-heptadecafluorooctane",314.05,1,FC(F)(F)C(F)(F)C(F)(F)C(F)(F)C(F)(F)C(F)(F)C(F)(F)C(F)(F)Br,le15
11569,"Benzoic acid, 2,3,5-triiodo-",503.15,1,O=C(O)c1cc(I)cc(I)c1I,le15
11570,"Phenarsazine, 10,10'-oxydi-",517.05,1,c1ccc2c(c1)Nc1ccccc1[As]2O[As]1c2ccccc2Nc2ccccc21,le15
11571,"Benzimidazole, 4,5,6,7-tetrabromo-2-(trifluoromethyl)-",511.95,1,FC(F)(F)c1nc2c(Br)c(Br)c(Br)c(Br)c2[nH]1,le15
11572,"10H-Phenoxarsine, 10,10'-oxybis- (9CI)",487.25,1,c1ccc2c(c1)Oc1ccccc1[As]2O[As]1c2ccccc2Oc2ccccc21,le15
11573,"triheptyl benzene-1,2,4-tricarboxylate",504.85,1,CCCCCCCOC(=O)c1ccc(C(=O)OCCCCCCC)c(C(=O)OCCCCCCC)c1,le15
11574,"Hexadecanoic acid, octadecyl ester",556.75,1,CCCCCCCCCCCCCCCCCCOC(=O)CCCCCCCCCCCCCCC,le15
11575,"5,9,14,18-Anthrazinetetrone, 7,16-dichloro-6,15-dihydro-",703.75,1,O=c1c2ccccc2c(=O)c2c1cc(Cl)c1[nH]c3c([nH]c12)c(Cl)cc1c(=O)c2ccccc2c(=O)c13,le15
11576,"Decanoic acid, nonadecafluoro-",355.85,1,O=C(O)C(F)(F)C(F)(F)C(F)(F)C(F)(F)C(F)(F)C(F)(F)C(F)(F)C(F)(F)C(F)(F)F,le15
11577,"Propanoic acid, 3,3'-thiobis-, didodecyl ester",537.95,1,CCCCCCCCCCCCOC(=O)CCSCCC(=O)OCCCCCCCCCCCC,le15
11578,"1,2-Benzenedicarboxylic acid, ditridecyl ester",547.35,1,CCCCCCCCCCCCCOC(=O)c1ccccc1C(=O)OCCCCCCCCCCCCC,le15
11579,"Lycopene, all-trans- (8CI)",623.85,1,CC(C)=CCC/C(C)=C/C=C/C(C)=C/C=C/C(C)=C/C=C/C=C(C)/C=C/C=C(C)/C=C/C=C(\C)CCC=C(C)C,le15
11580,"beta-Carotene, all-trans-",619.15,1,CC1=C(/C=C/C(C)=C/C=C/C(C)=C/C=C/C=C(C)/C=C/C=C(C)/C=C/C2=C(C)CCCC2(C)C)C(C)(C)CCC1,le15
11581,"1,1,1,2,2,3,3,4,4,5,5,6,6,7,7,8,8,9,9,10,10,10-docosafluorodecane",328.65,1,FC(F)(F)C(F)(F)C(F)(F)C(F)(F)C(F)(F)C(F)(F)C(F)(F)C(F)(F)C(F)(F)C(F)(F)F,le15
11582,"Phenol, 4,4'-isopropylidenebis(2,6-dibromo- (8CI)",479.75,1,CC(C)(c1cc(Br)c(O)c(Br)c1)c1cc(Br)c(O)c(Br)c1,le15
11583,"1,2,4-Benzenetricarboxylic acid, 1,2,4-tris(2-ethylhexyl) ester",511.45,1,CCCCC(CC)COC(=O)c1ccc(C(=O)OCC(CC)CCCC)c(C(=O)OCC(CC)CCCC)c1,le15
11584,"Benzene, 1,2,3,4,5,6-hexabromo-",472.75,1,Brc1c(Br)c(Br)c(Br)c(Br)c1Br,le15
11585,"beta,beta-Carotene-4,4'-dione (9CI)",527.05,1,CC1=C(/C=C/C(C)=C/C=C/C(C)=C/C=C/C=C(C)/C=C/C=C(C)/C=C/C2=C(C)C(=O)CCC2(C)C)C(C)(C)CCC1=O,le15
11586,"Benzenepropanoic acid, 3-amino-alpha-ethyl-2,4,6-triiodo-",546.95,1,CCC(Cc1c(I)cc(I)c(N)c1I)C(=O)O,le15
11587,"Hydrocinnamic acid, alpha-ethyl-3-hydroxy-2,4,6-triiodo-",504.55,1,CCC(Cc1c(I)cc(I)c(O)c1I)C(=O)O,le15
11588,"Octadecanamide, N,N'-ethylenebis- (8CI)",373.85,1,CCCCCCCCCCCCCCCCCC(=O)NCCNC(=O)CCCCCCCCCCCCCCCCC,le15
11589,"1,1,1,2,2,3,3,4,4,5,5,6,6,7,7,8,8,9,9-nonadecafluoro-9-iodononane",352.85,1,FC(F)(F)C(F)(F)C(F)(F)C(F)(F)C(F)(F)C(F)(F)C(F)(F)C(F)(F)C(F)(F)I,le15
11590,"Benzoic acid, 3,5-bis(acetylamino)-2,4,6-triiodo-",598.35,1,CC(=O)Nc1c(I)c(NC(C)=O)c(I)c(C(=O)O)c1I,le15
11591,"Benzoic acid, 3-(acetylamino)-2,4,6-triiodo-5-((methylamino)carbonyl)-",541.55,1,CNC(=O)c1c(I)c(NC(C)=O)c(I)c(C(=O)O)c1I,le15
11592,tetratetracontane,721.35,1,CCCCCCCCCCCCCCCCCCCCCCCCCCCCCCCCCCCCCCCCCCCC,le15
11593,[2-hydroxy-3-[(Z)-octadec-9-enoyl]oxypropyl] (Z)-octadec-9-enoate,462.35,1,CCCCCCCC/C=C\CCCCCCCC(=O)OCC(O)COC(=O)CCCCCCC/C=C\CCCCCCCC,le15
11594,"Benzoic acid, 3-(acetylamino)-5-(acetylmethylamino)-2,4,6-triiodo-",637.45,1,CC(=O)CNc1c(I)c(NC(C)=O)c(I)c(C(=O)O)c1I,le15
11595,"Benzoic acid, 4-(4-acetyl-3-iodophenoxy)-3,5-diiodo-",572.75,1,CC(=O)c1ccc(Oc2c(I)cc(C(=O)O)cc2I)cc1I,le15
11596,"Cholesterol, (p-(bis(2-chloroethyl)amino)phenyl)acetate (8CI)",642.35,1,CC(C)CCC[C@@H](C)[C@H]1CC[C@H]2[C@@H]3CC=C4C[C@@H](OC(=O)Cc5ccc(N(CCCl)CCCl)cc5)CC[C@]4(C)[C@H]3CC[C@@]21C,le15
11597,Bis(perfluorohexyl)ether,345.95,1,FC(F)(F)C(F)(F)C(F)(F)C(F)(F)C(F)(F)C(F)(F)OC(F)(F)C(F)(F)C(F)(F)C(F)(F)C(F)(F)C(F)(F)F,le15
11598,"1-Butanamine, 1,1,2,2,3,3,4,4,4-nonafluoro-N,N-bis(nonafluorobutyl)-",337.25,1,FC(F)(F)C(F)(F)C(F)(F)C(F)(F)N(C(F)(F)C(F)(F)C(F)(F)C(F)(F)F)C(F)(F)C(F)(F)C(F)(F)C(F)(F)F,le15
11599,"alpha-D-Glucopyranoside, 1,3,4,6-tetra-O-acetyl-beta-D-fructofuranosyl",548.15,1,CC(=O)OC[C@H]1O[C@@](COC(C)=O)(O[C@H]2O[C@H](CO)[C@@H](O)[C@H](O)[C@H]2O)[C@@H](OC(C)=O)[C@@H]1OC(C)=O,le15
11600,"Propanoic acid, 3,3'-thiobis-, dioctadecyl ester",596.85,1,CCCCCCCCCCCCCCCCCCOC(=O)CCSCCC(=O)OCCCCCCCCCCCCCCCCCC,le15
11601,"1-Propanol, 2,3-dibromo-, phosphate (3:1)",556.05,1,O=P(O)(O)O.OCC(Br)CBr.OCC(Br)CBr.OCC(Br)CBr,le15
11602,"2,3-di(tetradecanoyloxy)propyl tetradecanoate",544.05,1,CCCCCCCCCCCCCC(=O)OCC(COC(=O)CCCCCCCCCCCCC)OC(=O)CCCCCCCCCCCCC,le15
11603,"Cyclotetrasiloxane, octaphenyl-",473.15,1,c1ccc([Si]2(c3ccccc3)O[Si](c3ccccc3)(c3ccccc3)O[Si](c3ccccc3)(c3ccccc3)O[Si](c3ccccc3)(c3ccccc3)O2)cc1,le15
11604,"3,3-Bis(4-hydroxy-3,5-diiodophenyl)-1(3H)-isobenzofuranone",624.95,1,O=C1OC(c2cc(I)c(O)c(I)c2)(c2cc(I)c(O)c(I)c2)c2ccccc21,le15
11605,"2,3-bis[[(Z)-octadec-9-enoyl]oxy]propyl (Z)-octadec-9-enoate",575.75,1,CCCCCCCC/C=C\CCCCCCCC(=O)OCC(COC(=O)CCCCCCC/C=C\CCCCCCCC)OC(=O)CCCCCCC/C=C\CCCCCCCC,le15
11606,"Benzene, 1,1'-oxybis(2,3,4,5,6-pentabromo-",514.55,1,Brc1c(Br)c(Br)c(Oc2c(Br)c(Br)c(Br)c(Br)c2Br)c(Br)c1Br,le15
11607,Cyclopentanamine,284.6,1,NC1CCCC1,didier14
11608,Ethylbenzene,296.1,1,CCc1ccccc1,didier14
11609,"Benzenamine, N-methyl-",351.0,1,CNc1ccccc1,didier14
11610,Diphenyl ether,388.1,1,c1ccc(Oc2ccccc2)cc1,didier14
11611,2-Ethylhexanol,346.0,1,CCCCC(CC)CO,didier14
11612,"1,4-Diethylbenzene",330.0,1,CCc1ccc(CC)cc1,didier14
11613,"1-Pentanol, 2-methyl-",323.1,1,CCCC(C)CO,didier14
11614,Ethyl propionate,285.0,1,CCOC(=O)CC,didier14
11615,"Ethane, 1,1-diethoxy-",286.1,1,CCOC(C)OCC,didier14
11616,"2,4-Dimethylphenol",368.1,1,Cc1ccc(O)c(C)c1,didier14
11617,3-Heptanone,310.1,1,CCCCC(=O)CC,didier14
11618,"1,4-Dimethylbenzene",299.0,1,Cc1ccc(C)cc1,didier14
11619,p-Toluidine,360.0,1,Cc1ccc(N)cc1,didier14
11620,Isobutyl acrylate,304.3,1,C=CC(=O)OCC(C)C,didier14
11621,"Pentane, 3,3-diethyl-",294.0,1,CCC(CC)(CC)CC,didier14
11622,"1,3-Butadiene",197.2,1,C=CC=C,didier14
11623,1-Propanethiol,253.2,1,CCCS,didier14
11624,Propanenitrile,279.1,1,CCC#N,didier14
11625,"Heptane, 2,2-dimethyl-",292.1,1,CCCCCC(C)(C)C,didier14
11626,"1,2-Ethanediamine",311.0,1,NCCN,didier14
11627,"Octane, 2,7-dimethyl-",310.9,1,CC(C)CCCCC(C)C,didier14
11628,1-Phenylhexane,356.1,1,CCCCCCc1ccccc1,didier14
11629,"Benzene, heptyl-",370.6,1,CCCCCCCc1ccccc1,didier14
11630,2-Pentanone,280.0,1,CCCC(C)=O,didier14
11631,Butyric acid,345.1,1,CCCC(=O)O,didier14
11632,"2-Pentanol, 4-methyl-",314.0,1,CC(C)CC(C)O,didier14
11633,Diisopropylamine,266.1,1,CC(C)NC(C)C,didier14
11634,Isopropyl ether,245.0,1,CC(C)OC(C)C,didier14
11635,"1,3-Dimethylbenzene",298.1,1,Cc1cccc(C)c1,didier14
11636,"Phenol, 3-methyl-",359.1,1,Cc1cccc(O)c1,didier14
11637,m-Toluidine,359.0,1,Cc1cccc(N)c1,didier14
11638,"Pyridine, 2,6-dimethyl-",306.0,1,Cc1cccc(C)n1,didier14
11639,Mesitylene,317.6,1,Cc1cc(C)cc(C)c1,didier14
11640,"Cyclohexane, methyl-",269.1,1,CC1CCCCC1,didier14
11641,Toluene,279.1,1,Cc1ccccc1,didier14
11642,"Pyridine, 4-methyl-",312.1,1,Cc1ccncc1,didier14
11643,Cyclohexanamine,299.6,1,NC1CCCCC1,didier14
11644,Phenol,352.1,1,Oc1ccccc1,didier14
11645,"Pyridine, 3-methyl-",309.1,1,Cc1cccnc1,didier14
11646,"Pyridine, 2-methyl-",299.1,1,Cc1ccccn1,didier14
11647,"Butanoic acid, butyl ester",323.1,1,CCCCOC(=O)CCC,didier14
11648,Valeric acid,359.1,1,CCCCC(=O)O,didier14
11649,Propyl acetate,283.7,1,CCCOC(C)=O,didier14
11650,Pentane,224.2,1,CCCCC,didier14
11651,1-Pentene,222.0,1,C=CCCC,didier14
11652,1-Chlorobutane,263.8,1,CCCCCl,didier14
11653,Butanenitrile,291.1,1,CCCC#N,didier14
11654,"1,3-Diaminopropane",322.1,1,NCCCN,didier14
11655,Butanethiol,274.1,1,CCCCS,didier14
11656,"Ethanol, 2-methoxy-",312.1,1,COCCO,didier14
11657,"2-Hexanone, 5-methyl-",308.1,1,CC(=O)CCC(C)C,didier14
11658,Isobutyl acetate,291.0,1,CC(=O)OCC(C)C,didier14
11659,2-Heptanone,312.1,1,CCCCCC(C)=O,didier14
11660,Amylamine,280.1,1,CCCCCN,didier14
11661,Valeraldehyde,285.1,1,CCCCC=O,didier14
11662,1-Pentanethiol,291.1,1,CCCCCS,didier14
11663,"1,2-Dimethoxyethane",271.5,1,COCCOC,didier14
11664,Pyridine,293.1,1,c1ccncc1,didier14
11665,2-Octanone,329.1,1,CCCCCCC(C)=O,didier14
11666,Heptanoic acid,388.1,1,CCCCCCC(=O)O,didier14
11667,Pimelic acid,423.1,1,O=C(O)CCCCCC(=O)O,didier14
11668,1-Hexanamine,300.1,1,CCCCCCN,didier14
11669,Hexyl alcohol,333.1,1,CCCCCCO,didier14
11670,1-Hexanethiol,305.6,1,CCCCCCS,didier14
11671,n-Butylvinylether,272.0,1,C=COCCCC,didier14
11672,Octane,287.1,1,CCCCCCCC,didier14
11673,1-Octene,284.6,1,C=CCCCCCC,didier14
11674,Heptaldehyde,308.1,1,CCCCCCC=O,didier14
11675,Nonane,304.1,1,CCCCCCCCC,didier14
11676,1-Octanol,359.7,1,CCCCCCCCO,didier14
11677,"Ethanol, 2-(2-ethoxyethoxy)-",363.1,1,CCOCCOCCO,didier14
11678,"1-Butanamine, N-butyl-",315.0,1,CCCCNCCCC,didier14
11679,Undecane,339.1,1,CCCCCCCCCCC,didier14
11680,Acetic acid octyl ester,356.1,1,CCCCCCCCOC(C)=O,didier14
11681,Decyl alcohol,377.1,1,CCCCCCCCCCO,didier14
11682,Decanal,358.1,1,CCCCCCCCCC=O,didier14
11683,1-Dodecene,346.1,1,C=CCCCCCCCCCC,didier14
11684,1-Undecanol,386.1,1,CCCCCCCCCCCO,didier14
11685,Undecanal,369.1,1,CCCCCCCCCCC=O,didier14
11686,1-Dodecanol,400.0,1,CCCCCCCCCCCCO,didier14
11687,1-Tetradecanol,421.1,1,CCCCCCCCCCCCCCO,didier14
11688,1-Octadecene,421.1,1,C=CCCCCCCCCCCCCCCCC,didier14
11689,Triethylamine,262.1,1,CCN(CC)CC,didier14
11690,"N,N-Dimethylaniline",348.1,1,CN(C)c1ccccc1,didier14
11691,4-Heptanone,307.1,1,CCCC(=O)CCC,didier14
11692,Propionaldehyde,243.2,1,CCC=O,didier14
11693,"1-Butanol, 3-methyl-",316.0,1,CC(C)CCO,didier14
11694,Butyraldehyde,262.1,1,CCCC=O,didier14
11695,Butyl acetate,298.1,1,CCCCOC(C)=O,didier14
11696,2-Octanol,344.1,1,CCCCCCC(C)O,didier14
11697,Octanoic acid,400.1,1,CCCCCCCC(=O)O,didier14
11698,"1,6-Hexanediamine",354.1,1,NCCCCCCN,didier14
11699,1-Nonene,299.1,1,C=CCCCCCCC,didier14
11700,Octanal,324.1,1,CCCCCCCC=O,didier14
11701,Decane,322.9,1,CCCCCCCCCC,didier14
11702,1-Nonanal,336.1,1,CCCCCCCCC=O,didier14
11703,Dimethylamine,223.2,1,CNC,didier14
11704,1-Pentadecene,385.1,1,C=CCCCCCCCCCCCCC,didier14
11705,"1,2-Diethylbenzene",330.4,1,CCc1ccccc1CC,didier14
11706,"1-Butanol, 2-methyl-",316.1,1,CCC(C)CO,didier14
11707,sec-Butylamine,254.2,1,CCC(C)N,didier14
11708,Ethyl acetate,269.0,1,CCOC(C)=O,didier14
11709,"1,3-Diethylbenzene",329.0,1,CCc1cccc(CC)c1,didier14
11710,Hexanoic acid,375.1,1,CCCCCC(=O)O,didier14
11711,Dipropylamine,280.6,1,CCCNCCC,didier14
11712,Lauric acid,437.0,1,CCCCCCCCCCCC(=O)O,didier14
11713,1-Nonanol,369.1,1,CCCCCCCCCO,didier14
11714,NONYL ACETATE,372.1,1,CCCCCCCCCOC(C)=O,didier14
11715,"Hexanoicacid, 2-ethyl-",383.1,1,CCCCC(CC)C(=O)O,didier14
11716,1-PROPOXY-2-PROPANOL,321.1,1,CCCOCC(C)O,didier14
11717,"Heptane, 3-ethyl-",296.1,1,CCCCC(CC)CC,didier14
11718,"Nonane, 5-methyl-",312.0,1,CCCCC(C)CCCC,didier14
11719,1-Heptanethiol,323.6,1,CCCCCCCS,didier14
11720,"Cyclopentane, ethyl-",273.1,1,CCC1CCCC1,didier14
11721,"Cyclohexane, ethyl-",291.1,1,CCC1CCCCC1,didier14
11722,"Cyclohexane, butyl-",325.6,1,CCCCC1CCCCC1,didier14
11723,"Nonane, 4-methyl-",317.1,1,CCCCCC(C)CCC,didier14
11724,"Octane, 3-methyl-",298.6,1,CCCCCC(C)CC,didier14
11725,"Octane, 4-methyl-",296.1,1,CCCCC(C)CCC,didier14
11726,"Ethanol, 2-propoxy-",322.1,1,CCCOCCO,didier14
11727,"Octane, 2-methyl-",299.1,1,CCCCCCC(C)C,didier14
11728,Decanoic acid,421.1,1,CCCCCCCCCC(=O)O,didier14
11729,"1-Hexene, 3-methyl-",267.1,1,C=CC(C)CCC,didier14
11730,"1,2,3,4-Tetramethylbenzene",347.1,1,Cc1ccc(C)c(C)c1C,didier14
11731,5-Nonanone,338.1,1,CCCCC(=O)CCCC,didier14
11732,1-Butoxy-2-propanol,332.1,1,CCCCOCC(C)O,didier14
11733,"2-Butene, 2-methyl-",228.2,1,CC=C(C)C,didier14
11734,"1,2,3-Trimethylbenzene",324.1,1,Cc1cccc(C)c1C,didier14
11735,"2,3-Dimethylphenol",368.1,1,Cc1cccc(O)c1C,didier14
11736,"Benzene, pentyl-",339.1,1,CCCCCc1ccccc1,didier14
11737,2-Heptanol,332.1,1,CCCCCC(C)O,didier14
11738,"Pentane, 1-chloro-",284.1,1,CCCCCCl,didier14
11739,Hexadecane,407.1,1,CCCCCCCCCCCCCCCC,didier14
11740,"1-Butene, 3,3-dimethyl-",241.2,1,C=CC(C)(C)C,didier14
11741,"1-Butene, 3-methyl-",217.2,1,C=CC(C)C,didier14
11742,"2-Butene, 2,3-dimethyl-",257.1,1,CC(C)=C(C)C,didier14
11743,3-Methyl-2-butanone,272.1,1,CC(=O)C(C)C,didier14
11744,"2-Pentanone, 3-methyl-",285.1,1,CCC(C)C(C)=O,didier14
11745,"3-Pentanone, 2-methyl-",286.1,1,CCC(=O)C(C)C,didier14
11746,Stearic acid,469.0,1,CCCCCCCCCCCCCCCCCC(=O)O,didier14
11747,"2,6-Dimethylphenol",358.1,1,Cc1cccc(C)c1O,didier14
11748,"Hexane, 3,4-dimethyl-",280.6,1,CCC(C)C(C)CC,didier14
11749,3-Pentanol,303.1,1,CCC(O)CC,didier14
11750,"1-Pentanol, 3-methyl-",331.1,1,CCC(C)CCO,didier14
11751,"Hexane, 2,4-dimethyl-",276.1,1,CCC(C)CC(C)C,didier14
11752,"Heptane, 4-methyl-",279.1,1,CCCC(C)CCC,didier14
11753,"Heptane, 3-methyl-",279.1,1,CCCCC(C)CC,didier14
11754,"Nonane, 3-methyl-",319.1,1,CCCCCCC(C)CC,didier14
11755,2-Hexanone,296.1,1,CCCCC(C)=O,didier14
11756,Allyl acetate,283.0,1,C=CCOC(C)=O,didier14
11757,"Hexane, 2,5-dimethyl-",275.1,1,CC(C)CCC(C)C,didier14
11758,"Heptane, 2-methyl-",279.1,1,CCCCCC(C)C,didier14
11759,1-Hexene,247.2,1,C=CCCCC,didier14
11760,1-Heptene,265.1,1,C=CCCCCC,didier14
11761,"2,2-Dimethylbutyric acid",352.1,1,CCC(C)(C)C(=O)O,didier14
11762,"2-Butanol, 3-methyl-",299.1,1,CC(C)C(C)O,didier14
11763,Diethyl ether,228.2,1,CCOCC,didier14
11764,2-Pentanol,307.1,1,CCCC(C)O,didier14
11765,"1-Hexene, 2-methyl-",267.1,1,C=C(C)CCCC,didier14
11766,"Hexane, 3-ethyl-",278.0,1,CCCC(CC)CC,didier14
11767,m-Ethyltoluene,311.1,1,CCc1cccc(C)c1,didier14
11768,"Cyclohexane, 1,4-dimethyl-, cis-",284.3,1,C[C@H]1CC[C@@H](C)CC1,didier14
11769,Aniline,344.1,1,Nc1ccccc1,didier14
11770,2-Hexanol,318.1,1,CCCCC(C)O,didier14
11771,"Propane, 1-ethoxy-",253.2,1,CCCOCC,didier14
11772,Amyl acetate,310.1,1,CCCCCOC(C)=O,didier14
11773,Hexanenitrile,316.1,1,CCCCCC#N,didier14
11774,Tridecane,363.1,1,CCCCCCCCCCCCC,didier14
11775,Tetradecane,382.4,1,CCCCCCCCCCCCCC,didier14
11776,1-Hexadecene,402.1,1,C=CCCCCCCCCCCCCCC,didier14
11777,Heptadecane,421.1,1,CCCCCCCCCCCCCCCCC,didier14
11778,Nonadecane,441.0,1,CCCCCCCCCCCCCCCCCCC,didier14
11779,Ethanol,286.1,1,CCO,didier14