smiles,compound,flashpoint,source,pure substance
CCC(C)C(CC)CC,3methyl4ethylhexane,297.0,le15,1
Oc1cccc(Cl)c1,"Phenol, 3-chloro-",350.0499999999999,le15,1
Oc1ccccc1Cl,"Phenol, 2-chloro-",337.0499999999999,le15,1
Oc1ccc(Cl)cc1,4chlorophenol,388.0,le15,1
CCS(=O)(=O)Cl,ethanesulfonyl chloride,326.45,le15,1
O=C(Cl)OCCl,chloromethyl carbonochloridate,298.65,le15,1
O=c1[nH]c(=O)[nH]c(=O)[nH]1,"s-Triazine-2,4,6(1H,3H,5H)-trione (8CI)",706.75,le15,1
Nc1ccc(F)cc1F,"Benzenamine, 2,4-difluoro-",335.15,le15,1
Nc1ccc(F)c(F)c1,"Benzenamine, 3,4-difluoro-",358.15,le15,1
O=C1CC[C@@H](C(=O)O)N1,"Proline, 5-oxo-, L-",500.95,le15,1
C=CCN(N=O)C(N)=O,"Urea, N-nitroso-N-2-propenyl- (9CI)",349.15,le15,1
O=[N+]([O-])c1cccs1,2-nitrothiophene,367.05,le15,1
O=[N+]([O-])c1ccsc1,3-nitrothiophene,363.65,le15,1
c1ccc2ncccc2c1,Quinoline,374.15,le15,1
c1ccc2cnccc2c1,Isoquinoline,374.25,le15,1
N#C/C=C/c1ccccc1,(E)-3-phenylprop-2-enenitrile,378.35,le15,1
NC1(C(=O)O)CCCC1,1-Aminocyclopentane-1-carboxylic acid,381.85,le15,1
O=[N+]([O-])C1CCCCC1,nitrocyclohexane,354.35,le15,1
CC(=O)N1CCOCC1,"Morpholine, 4-acetyl-",395.15,le15,1
CC(=O)CC(=O)N(C)C,"Butanamide, N,N-dimethyl-3-oxo-",355.5499999999999,le15,1
O=C1CCCN1CCO,"2-Pyrrolidinone, 1-(2-hydroxyethyl)-",373.15,le15,1
CCC=C(CC)[N+](=O)[O-],"3-Hexene, 3-nitro-",338.75,le15,1
CCN(C(C)=O)C(C)=O,N-acetyl-N-ethylacetamide,347.5499999999999,le15,1
OCCC1CCNCC1,2-piperidin-4-ylethanol,374.85,le15,1
CC(C)C(=NO)C(C)C,"N-(2,4-dimethylpentan-3-ylidene)hydroxylamine",371.95,le15,1
CCC(=O)N(CC)CC,"N,N-diethylpropanamide",346.75,le15,1
OCCC1CCCCN1,2-piperidin-2-ylethanol,375.35,le15,1
CCN(CC)CC1CO1,"Oxiranemethanamine, N,N-diethyl- (9CI)",314.25,le15,1
CCCCCC(C)=NO,"2-Heptanone, oxime",613.8499999999998,le15,1
CN1CCCC(CO)C1,(1-methylpiperidin-3-yl)methanol,367.55,le15,1
OCCN1CCCCC1,1-Piperidineethanol,364.35,le15,1
CN1CN(C)CN(C)C1,"1,3,5-trimethyl-1,3,5-triazinane",322.5499999999999,le15,1
NCCN1CCNCC1,"Piperazine, 1-(2-aminoethyl)-",366.15,le15,1
CC(C)(C)CN=C=S,Neopentyl isothiocyanate,327.503,le15,1
CCCCCN=C=S,Pentyl isothiocyanate,338.35,le15,1
CCCCC(CC)CN,"1-Hexanamine, 2-ethyl-",325.35,le15,1
CC(C)(C)CC(C)(C)N,"Butylamine, 1,1,3,3-tetramethyl- (6CI,7CI,8CI)",305.15,le15,1
CC(C)CNCC(C)C,"1-Propanamine, 2-methyl-N-(2-methylpropyl)-",302.5499999999999,le15,1
CCC(C)NC(C)CC,N-butan-2-ylbutan-2-amine,293.75,le15,1
CCCCCCC(C)N,"Heptylamine, 1-methyl-",335.95,le15,1
CCCCN(CC)CC,"1-Butanamine, N,N-diethyl-",299.95,le15,1
CCN(C(C)C)C(C)C,N-ethyl-N-propan-2-ylpropan-2-amine,283.75,le15,1
CCCCNCCCC,"1-Butanamine, N-butyl-",314.25,le15,1
CCCCC(CC)CN,2ethyl1hexanamine,323.0,le15,1
ClCBr,"Methane, bromochloro-",284.15,le15,1
Oc1ccc(Cl)cn1,5-Chloropyridin-2-ol,402.75,le15,1
Oc1cccnc1Cl,"3-Pyridinol, 2-chloro-",418.15,le15,1
O=[N+]([O-])C(Cl)Cl,"Methane, dichloronitro-",296.35,le15,1
O=c1[nH]cc(F)c(=O)[nH]1,"2,4(1H,3H)-Pyrimidinedione, 5-fluoro-",469.65,le15,1
C=C(CC(=O)O)C(=O)O,2-methylidenebutanedioic acid,471.85,le15,1
O=CC#Cc1ccccc1,"Propiolaldehyde, phenyl- (8CI)",367.55,le15,1
c1ccc2nccnc2c1,Quinoxaline,371.15,le15,1
O=CCCCC(O)C=O,"Hexanedial, 2-hydroxy-",380.75,le15,1
CCOC(=O)CC(C)=O,"Butanoic acid, 3-oxo-, ethyl ester",340.15,le15,1
CC(C)(C)C(=O)C(=O)O,"3,3-dimethyl-2-oxobutanoic acid",351.5499999999999,le15,1
C=C(C)C(=O)OCCO,"2-Propenoic acid, 2-methyl-, 2-hydroxyethyl ester",370.372,le15,1
C=CC(=O)OCC(C)O,"2-Propenoic acid, 2-hydroxypropyl ester (9CI)",353.0499999999999,le15,1
C(OCC1CO1)C1CO1,"Oxirane, 2,2'-(oxybis(methylene))bis-",343.75,le15,1
C=CC(=O)OCCOC,"Acrylic acid, 2-methoxyethyl ester (8CI)",333.15,le15,1
c1ccc2ncncc2c1,quinazoline,379.81699999999995,le15,1
COC1C=CC(OC)O1,"2,5-dimethoxy-2,5-dihydrofuran",320.35,le15,1
CCOC(=O)CCC=O,"Butanoic acid, 4-oxo-, ethyl ester",341.65,le15,1
COC(=O)C(C)C(C)=O,methyl 2-methyl-3-oxobutanoate,505.55,le15,1
CCOC(=O)CC(C)=O,ethyl3oxobutanoat,343.0,le15,1
CCC(=O)OC(=O)CC,PropionicAnhydride,336.0,le15,1
O=[N+]([O-])N1CCCCC1,1-nitropiperidine,391.25,le15,1
C1=Cc2ccccc2CC1,"Naphthalene, 1,2-dihydro-",343.5,le15,1
C1=CCc2ccccc2C1,"1,4-dihydronaphthalene",343.85,le15,1
Cc1cccc2c1C=CC2,4-methyl-1H-indene,347.85,le15,1
Cc1cccc2c1CC=C2,7-methyl-1H-indene,348.0499999999999,le15,1
Cc1ccc2c(c1)CC=C2,6-methyl-1H-indene,346.45,le15,1
C=Cc1cccc(C=C)c1,"1,3-bis(ethenyl)benzene",347.75,le15,1
CCCOC(=O)CCC,"Butanoic acid, propyl ester",312.0499999999999,le15,1
CCCCCC(=O)OC,"Hexanoic acid, methyl ester",315.15,le15,1
COC(C)(C)CC(C)=O,"2-Pentanone, 4-methoxy-4-methyl-",314.45,le15,1
CCOC(=O)CC(C)C,"Butyric acid, 3-methyl-, ethyl ester (6CI,7CI,8CI)",299.15,le15,1
CC(=O)OCCC(C)C,"1-Butanol, 3-methyl-, acetate",298.15,le15,1
CCCCC(=O)OCC,"Valeric acid, ethyl ester (8CI)",312.0499999999999,le15,1
CCC(=O)OCC(C)C,"Propanoic acid, 2-methylpropyl ester",299.15,le15,1
CCCCOC(=O)CC,"Propanoic acid, butyl ester",311.15,le15,1
CCC(=O)OC(C)CC,butan-2-yl propanoate,306.5499999999999,le15,1
CCC(C)COC(C)=O,2-methylbutyl acetate,308.15,le15,1
CCCCCCOC=O,"Formic acid, hexyl ester",320.95,le15,1
CCCC(=O)OC(C)C,propan-2-yl butanoate,303.15,le15,1
CCCOC(=O)C(C)C,propyl 2-methylpropanoate,306.5499999999999,le15,1
CCOC(=O)C(C)(C)C,"ethyl 2,2-dimethylpropanoate",289.15,le15,1
CCCCC(C)C(=O)O,2-methylhexanoic acid,330.15,le15,1
N#CSCSC#N,"Thiocyanic acid, methylene ester",399.45,le15,1
CCOC(=O)C(C)CC,"Butyric acid, 2-methyl-, ethyl ester (8CI)",306.5499999999999,le15,1
CCC(C)(CC)C(=O)O,"Butanoic acid, 2-ethyl-2-methyl-",365.15,le15,1
CCC(=O)OC(C)(C)C,"Propanoic acid, 1,1-dimethylethyl ester",298.5499999999999,le15,1
CCCC(C)(C)C(=O)O,"2,2-dimethylpentanoic acid",365.15,le15,1
CCCCOCC1CO1,"Propane, 1-butoxy-2,3-epoxy-",328.75,le15,1
CC(C)(C)OCC1CO1,"Oxirane, ((1,1-dimethylethoxy)methyl)-",316.45,le15,1
CCCCCCC(=O)[O-],2pentylacetate,305.0,le15,1
CCC(=O)OC(C)(C)C,tertButylPropionate,293.0,le15,1
OCCN1CCNCC1,N-(2-Hydroxyethyl)piperazine,375.05,le15,1
NCCCCCC(N)=O,6-aminohexanamide,414.35,le15,1
CCN(N=O)C(C)(C)C,"tert-Butylamine, N-ethyl-N-nitroso-",346.75,le15,1
NCCN1CCOCC1,"Morpholine, 4-(2-aminoethyl)-",448.15,le15,1
CCCCN(CC)N=O,"1-Butanamine, N-ethyl-N-nitroso- (9CI)",355.75,le15,1
CCCCC(CC)CO,"1-Hexanol, 2-ethyl-",350.35,le15,1
CC(C)CC(C)(C)CO,"1-Pentanol, 2,2,4-trimethyl-",329.75,le15,1
CCCCOCCCC,"Butane, 1,1'-oxybis-",298.15,le15,1
CCCCC(O)CCC,octan-4-ol,344.25,le15,1
CCCC(O)(CC)CC,3-ethylhexan-3-ol,333.75,le15,1
CCCC(C)(O)CCC,4-methylheptan-4-ol,333.75,le15,1
CC(C)CCCCCO,"1-Heptanol, 6-methyl-",344.25,le15,1
CCCCC(C)(C)CO,"1-Hexanol, 2,2-dimethyl-",333.75,le15,1
CCCC(O)C(C)(C)C,"2,2-dimethylhexan-3-ol",329.75,le15,1
CC(C)CCCC(C)O,6-methylheptan-2-ol,340.35,le15,1
CC(C)C(O)C(C)(C)C,"2,2,4-trimethylpentan-3-ol",323.15,le15,1
CCCCC(C)(O)CC,"3-Heptanol, 3-methyl- (8CI)(9CI)",333.75,le15,1
CCCCCCOCC,1-ethoxyhexane,304.35,le15,1
CCCCOCC(C)C,1-(2-methylpropoxy)butane,295.95,le15,1
CCCC(C)C(C)(C)O,"2,3-dimethylhexan-2-ol",329.75,le15,1
CCC(C)C(C)C(C)O,"3,4-dimethylhexan-2-ol",332.35,le15,1
CCCC(O)CC(C)C,2-Methylheptan-4-ol,337.35,le15,1
CCCCC(C)C(C)O,"2-Heptanol, 3-methyl- (8CI)(9CI)",337.35,le15,1
CCCC(CO)CCC,"1-Pentanol, 2-propyl-",344.85,le15,1
CCC(O)(CC)C(C)C,3-ethyl-2-methylpentan-3-ol,329.75,le15,1
CC(C)C(C)C(C)(C)O,"2,3,4-trimethylpentan-2-ol",323.15,le15,1
CC(C)CCC(C)(C)O,"2,5-dimethylhexan-2-ol",329.75,le15,1
CCC(C)CC(O)CC,"3-Heptanol, 5-methyl-",337.35,le15,1
CCCCC(CC)CO,2ethylhexanol,346.0,le15,1
CCCCCC(O)CC,3octanol,338.0,le15,1
CN(C)CCCN(C)C,"1,3-Propanediamine, N,N,N',N'-tetramethyl-",304.85,le15,1
CCN(CC)CCCN,"1,3-Propanediamine, N,N-diethyl-",326.15,le15,1
NCCCCCCCN,"heptane-1,7-diamine",360.95,le15,1
CCCC[Si](C)(C)C,Butyltrimethylsilane,281.65,le15,1
O=C(O)C(F)(F)Cl,"2-chloro-2,2-difluoroacetic acid",299.0499999999999,le15,1
O=C(Cl)c1ccco1,furan-2-carbonyl chloride,330.25,le15,1
Fc1ccccc1Cl,1-chloro-2-fluorobenzene,310.15,le15,1
Fc1ccc(Cl)cc1,1-chloro-4-fluorobenzene,302.15,le15,1
Fc1ccccc1Cl,1-chloro-2-fluorobenzene,293.15,le15,1
COS(=O)(=O)Cl,chlorosulfonyloxymethane,306.95,le15,1
Cc1cc(Cl)n(C)n1,"5-Chloro-1,3-dimethyl-1H-pyrazole",335.85,le15,1
CCP(Cl)Cl,dichloro(ethyl)phosphane,305.95,le15,1
CC(F)(Cl)CCl,"1,2-dichloro-2-fluoropropane",276.75,le15,1
N#CC(=O)c1ccccc1,"Glyoxylonitrile, phenyl- (8CI)",357.15,le15,1
N#Cc1cccc(C=O)c1,m-Formylbenzonitrile,354.45,le15,1
NCC(=O)CCC(=O)O,"Pentanoic acid, 5-amino-4-oxo-",407.45,le15,1
c1cnc2cnncc2c1,"Pyrido(2,3-d)pyridazine",452.45,le15,1
c1cc2cnncc2cn1,"Pyrido(3,4-d)pyridazine",467.05,le15,1
CN(C)C(=O)N(C)N=O,"Urea, 1,1,3-trimethyl-3-nitroso-",316.85,le15,1
Cc1cc2ccccc2[nH]1,2-methyl-1H-indole,385.65,le15,1
Cc1ccc2[nH]ccc2c1,5-methyl-1H-indole,387.85,le15,1
Cc1cccc2cc[nH]c12,7-methyl-1H-indole,383.65,le15,1
Cc1cccc(CC#N)c1,2-(3-methylphenyl)acetonitrile,381.55,le15,1
Cc1ccc(CC#N)cc1,2-(4-methylphenyl)acetonitrile,379.25,le15,1
Cc1cccc(C#N)c1C,"Benzonitrile, 2,3-dimethyl-",373.15,le15,1
Cc1ccccc1CC#N,2-(2-methylphenyl)acetonitrile,384.45,le15,1
Cc1c[nH]c2ccccc12,"1H-Indole, 3-methyl-",405.15,le15,1
CC(C#N)c1ccccc1,"Benzeneacetonitrile, alpha-methyl-",367.05,le15,1
Cc1cccc2[nH]ccc12,4-methyl-1H-indole,387.25,le15,1
CCCC(C)OC(N)=O,"Carbamic acid, 1-methylbutyl ester",367.35,le15,1
OCCN1CCOCC1,2-Morpholinoethanol,372.55,le15,1
CCCCCC[N+](=O)[O-],"Hexane, 1-nitro-",345.15,le15,1
CC(=O)OCCN(C)C,2-dimethylaminoethyl acetate,529.95,le15,1
NCCCCCC(=O)O,"Hexanoic acid, 6-amino-",381.55,le15,1
CC(C)=NNC(N)=S,"Hydrazinecarbothioamide, 2-(1-methylethylidene)-",356.25,le15,1
CCCCOCCCN,3butoxypropylamine,336.0,le15,1
NCCCNCCCN,"1,3-Propanediamine, N-(3-aminopropyl)-",391.15,le15,1
ClC=C(Cl)Cl,"1,1,2-Trichloroethylene",285.25,le15,1
OCC(F)(F)C(F)F,"2,2,3,3-tetrafluoropropan-1-ol",316.15,le15,1
Fc1ccc(F)c(F)c1,"1,2,4-trifluorobenzene",277.15,le15,1
Fc1cc(F)cc(F)c1,"1,3,5-trifluorobenzene",333.65,le15,1
COC(=O)CC(=O)OC,"Propanedioic acid, dimethyl ester",363.15,le15,1
O=C(O)CCCC(=O)O,Pentanedioic acid,424.35,le15,1
O=C1CCc2ccccc21,"2,3-dihydroinden-1-one",384.85,le15,1
Cc1cc2ccccc2o1,2-methyl-1-benzofuran,340.15,le15,1
O=C/C=C/c1ccccc1,"2-Propenal, 3-phenyl-, (E)- (9CI)",344.15,le15,1
Cc1cccc2ccoc12,7-methyl-1-benzofuran,344.5499999999999,le15,1
Cc1ccc2occc2c1,5-methyl-1-benzofuran,362.55,le15,1
Cc1coc2ccccc12,3-methyl-1-benzofuran,346.35,le15,1
O=CC=Cc1ccccc1,Cinnamaldehyde,344.0,le15,1
CCOC(=O)C(C)(C)O,ethyl 2-hydroxy-2-methylpropanoate,317.15,le15,1
CC(=O)OOC(C)(C)C,"Ethaneperoxoic acid, 1,1-dimethylethyl ester",312.95,le15,1
COCC(C)OC(C)=O,"Acetic acid, 2-methoxy-1-methylethyl ester",321.0499999999999,le15,1
CCOCCOC(C)=O,"Ethanol, 2-ethoxy-, acetate",323.75,le15,1
CC1OC(C)OC(C)O1,"1,3,5-Trioxane, 2,4,6-trimethyl-",312.35,le15,1
COC1CCC(OC)O1,"2,5-dimethoxyoxolane",308.15,le15,1
CCOCC(=O)OCC,ethyl 2-ethoxyacetate,321.45,le15,1
C=COCCOCCO,"Ethanol, 2-(2-(ethenyloxy)ethoxy)- (9CI)",351.5499999999999,le15,1
O=C(O)CCCCCO,6-hydroxyhexanoic acid,406.05,le15,1
CCCCOCC(=O)O,"Acetic acid, butoxy-",370.65,le15,1
N#CCc1ccc(N)cc1,4-Aminophenylacetonitrile,409.45,le15,1
CCOC(=O)CC(C)O,"Butanoic acid, 3-hydroxy-, ethyl ester",337.15,le15,1
CC1(C)OCC(CO)O1,"1,3-Dioxolane-4-methanol, 2,2-dimethyl-",353.15,le15,1
OCC1CCC(CO)O1,[5-(hydroxymethyl)oxolan-2-yl]methanol,385.15,le15,1
CC(C)OC(=O)C(C)O,propan-2-yl 2-hydroxypropanoate,330.35,le15,1
C1=CC2C3C=CC(C3)C2C1,"4,7-Methano-1H-indene, 3a,4,7,7a-tetrahydro-",319.949,le15,1
c1ccc2c(c1)CCCC2,"Naphthalene, 1,2,3,4-tetrahydro-",350.15,le15,1
C=CCCc1ccccc1,but-3-enylbenzene,333.15,le15,1
CC/C=C/c1ccccc1,[(E)-but-1-enyl]benzene,336.75,le15,1
C=C(C)c1cccc(C)c1,1-methyl-3-prop-1-en-2-ylbenzene,331.35,le15,1
C/C=C/Cc1ccccc1,[(E)-but-2-enyl]benzene,329.35,le15,1
C=Cc1ccc(CC)cc1,1-ethenyl-4-ethylbenzene,335.25,le15,1
C=C(C)c1ccccc1C,1-methyl-2-prop-1-en-2-ylbenzene,328.75,le15,1
C=C(C)c1ccc(C)cc1,1-methyl-4-prop-1-en-2-ylbenzene,332.5499999999999,le15,1
C=CCc1ccccc1C,1-methyl-2-prop-2-enylbenzene,330.45,le15,1
C=C(CC)c1ccccc1,but-1-en-2-ylbenzene,330.25,le15,1
CCC(CC)(CO)CO,"1,3-Propanediol, 2,2-diethyl-",374.25,le15,1
CCCOCOCCC,1-(propoxymethoxy)propane,298.5499999999999,le15,1
OCCCCCCCO,"heptane-1,7-diol",394.05,le15,1
CCOC(CC)OCC,"1,1-diethoxypropane",285.95,le15,1
CCCCOCC(C)O,"2-Propanol, 1-butoxy-",327.65,le15,1
CCOC(C)(C)OCC,"2,2-diethoxypropane",275.15,le15,1
CCCCCCCCF,1-fluorooctane,337.25,le15,1
CCNC(=S)NCC,"Urea, 1,3-diethyl-2-thio-",329.35,le15,1
CCCCNC(N)=S,"Urea, 1-butyl-2-thio-",349.25,le15,1
C[Si](C)(C)CC(=O)O,"Acetic acid, (trimethylsilyl)-",334.65,le15,1
CN(C)C(=S)N(C)C,"Urea, 1,1,3,3-tetramethyl-2-thio-",463.15,le15,1
CC[Si](O)(CC)CC,triethyl(hydroxy)silane,330.372,le15,1
C[Si](C)(C)CCCO,3-trimethylsilylpropan-1-ol,325.95,le15,1
O=C1C=C(Cl)C(=O)O1,"3-chlorofuran-2,5-dione",368.65,le15,1
Fc1cc(F)nc(F)c1,"2,4,6-Trifluoropyridine",300.65,le15,1
Cc1nc2ccccc2o1,"2-methyl-1,3-benzoxazole",348.15,le15,1
O=C1NCc2ccccc21,"2,3-dihydroisoindol-1-one",493.35,le15,1
Cc1ccc(N=C=O)cc1,"Isocyanic acid, p-tolyl ester (7CI,8CI)",337.0499999999999,le15,1
N#Cc1ccc(CO)cc1,p-Cyanobenzyl alcohol,406.75,le15,1
COc1cccc(C#N)c1,m-Anisonitrile (8CI),378.15,le15,1
N#CCc1ccc(O)cc1,"Benzeneacetonitrile, 4-hydroxy- (9CI)",410.35,le15,1
Cc1ccccc1N=C=O,"Isocyanic acid, o-tolyl ester (7CI,8CI)",365.15,le15,1
COc1ccc(C#N)cc1,p-Anisonitrile (8CI),529.65,le15,1
Oc1ccc2[nH]ccc2c1,1H-Indol-5-ol (9CI),434.55,le15,1
COc1ccccc1C#N,2-methoxybenzonitrile,376.55,le15,1
Cc1ccc2[nH]nnc2c1,"1H-Benzotriazole, 5-methyl-",410.55,le15,1
CCCCCO[N+](=O)[O-],pentyl nitrate,329.95,le15,1
CC(O)C(=O)NCCO,"Propanamide, 2-hydroxy-N-(2-hydroxyethyl)-",456.95,le15,1
Cn1nnc2ccccc21,1-methylbenzotriazole,390.55,le15,1
Nc1nc2ccccc2[nH]1,1H-Benzimidazol-2-amine,477.75,le15,1
CCC(C(C)O)[N+](=O)[O-],3-Nitropentan-2-ol,363.75,le15,1
CC(C)CNC(=O)CF,"Acetamide, 2-fluoro-N-isobutyl-",367.65,le15,1
O=C(O)C1CSCN1,4-Thiazolidinecarboxylic acid,438.85,le15,1
O=C1CSC(=S)N1,"4-Thiazolidinone, 2-thioxo-",358.85,le15,1
C=CCNc1ccccc1,"Benzenamine, N-2-propenyl-",362.55,le15,1
c1ccc2c(c1)CCCN2,"1,2,3,4-tetrahydroquinoline",373.75,le15,1
C=Cc1ccc(CC)cn1,"Pyridine, 2-ethenyl-5-ethyl- (9CI)",349.35,le15,1
c1cnc2c(c1)CCCC2,"5,6,7,8-tetrahydroquinoline",359.261,le15,1
Nc1ccc2c(c1)CCC2,"2,3-dihydro-1H-inden-5-amine",383.15,le15,1
c1ccc2c(c1)CCNC2,"Isoquinoline, 1,2,3,4-tetrahydro-",372.05,le15,1
c1cc2c(cn1)CCCC2,"5,6,7,8-tetrahydroisoquinoline",373.15,le15,1
CCN(CCO)CCO,"Ethanol, 2,2'-(ethylimino)bis-",397.05,le15,1
CCOC(CN)OCC,"2,2-diethoxyethanamine",318.15,le15,1
CN(C)CCOCCO,"Ethanol, 2-(2-(dimethylamino)ethoxy)-",344.75,le15,1
Nc1n[nH]c(=S)s1,"1,3,4-Thiadiazole-2(3H)-thione, 5-amino-",373.45,le15,1
CSC(C)(C)C=NO,"Propionaldehyde, 2-methyl-2-(methylthio)-, oxime",354.25,le15,1
O=C1CCC(=O)N1Cl,"1-chloropyrrolidine-2,5-dione",348.25,le15,1
Fc1cc(F)nc(F)n1,"2,4,6-trifluoropyrimidine",308.85,le15,1
O=C(O)COCC(=O)O,"Acetic acid, 2,2'-oxybis-",474.85,le15,1
COC(=O)OC(=O)OC,"Formic acid, oxydi-, dimethyl ester (7CI,8CI)",353.15,le15,1
O=C(O)CC(O)C(=O)O,2-hydroxybutanedioic acid,426.55,le15,1
CC(C)([N+](=O)[O-])[N+](=O)[O-],"2,2-dinitropropane",348.35,le15,1
O=C1Cc2ccccc2O1,3H-1-benzofuran-2-one,370.05,le15,1
O=Cc1cccc(C=O)c1,"1,3-Benzenedicarboxaldehyde (9CI)",367.25,le15,1
O=Cc1ccccc1C=O,"1,2-Benzenedicarboxaldehyde",371.65,le15,1
O=CC(=O)c1ccccc1,"Benzeneacetaldehyde, alpha-oxo- (9CI)",342.95,le15,1
O=C1OCc2ccccc21,3H-2-benzofuran-1-one,425.15,le15,1
Nc1nc2ccccc2o1,"Benzoxazole, 2-amino-",395.05,le15,1
O=NN(CCO)CCO,"Ethanol, 2,2'-(nitrosoimino)bis-",454.25,le15,1
CC(=O)Cc1ccccc1,1-phenylpropan-2-one,360.65,le15,1
Cc1ccc(CC=O)cc1,2-(4-methylphenyl)acetaldehyde,375.25,le15,1
O=CCCc1ccccc1,3-Phenylpropionaldehyde,368.15,le15,1
OCC=Cc1ccccc1,"2-Propen-1-ol, 3-phenyl-",397.912,le15,1
C=CCc1ccc(O)cc1,"Phenol, p-allyl- (8CI)",375.75,le15,1
C=Cc1ccccc1OC,1-ethenyl-2-methoxybenzene,343.75,le15,1
C=Cc1ccc(OC)cc1,"Benzene, 1-ethenyl-4-methoxy- (9CI)",350.865,le15,1
Oc1ccc2c(c1)CCC2,"1H-Inden-5-ol, 2,3-dihydro-",383.15,le15,1
C1=CC23CCCC2(C=C1)O3,"3a,7a-Epoxy-1H-indene, 2,3-dihydro-",361.75,le15,1
C=CCc1ccccc1O,"Phenol, 2-(2-propenyl)-",361.15,le15,1
CC1Cc2ccccc2O1,"2-methyl-2,3-dihydro-1-benzofuran",338.35,le15,1
C=CCOc1ccccc1,prop-2-enoxybenzene,335.95,le15,1
CO/C=C/c1ccccc1,[(E)-2-methoxyethenyl]benzene,350.45,le15,1
CCc1ccc(C=O)cc1,"Benzaldehyde, 4-ethyl-",365.35,le15,1
OC1CCc2ccccc21,"2,3-dihydro-1H-inden-1-ol",418.15,le15,1
Cc1ccccc1CC=O,2-(2-methylphenyl)acetaldehyde,377.75,le15,1
CC(C=O)c1ccccc1,"Benzeneacetaldehyde, alpha-methyl-",349.261,le15,1
CCC(=O)c1ccccc1,"1-Propanone, 1-phenyl-",360.54,le15,1
c1ccc(CC2CO2)cc1,"Oxirane, (phenylmethyl)- (9CI)",354.85,le15,1
Cc1ccc(C)c(C=O)c1,"2,5-dimethylbenzaldehyde",360.15,le15,1
CCC(CO)(CO)CO,"1,3-Propanediol, 2-ethyl-2-(hydroxymethyl)-",420.85,le15,1
OCCCCC(O)CO,"1,2,6-Hexanetriol",438.65,le15,1
CC(O)COCC(C)O,"2-Propanol, 1,1'-oxybis-",410.95,le15,1
CCOCCOCCO,"Ethanol, 2-(2-ethoxyethoxy)-",369.25,le15,1
COCCOCCOC,"Ethane, 1,1'-oxybis(2-methoxy-",343.15,le15,1
c1ccc2c(c1)NCCN2,"1,2,3,4-tetrahydroquinoxaline",449.25,le15,1
COCC(COC)OC,"1,2,3-trimethoxypropane",315.85,le15,1
c1ccc2sccc2c1,1-benzothiophene,335.15,le15,1
c1ccc2sccc2c1,Benzo(b)thiophene,335.15,le15,1
CC1CCS(=O)(=O)C1,"Thiophene, tetrahydro-3-methyl-, 1,1-dioxide",427.55,le15,1
Cc1cc(C)c(C)cc1C,"Benzene, 1,2,4,5-tetramethyl-",347.0499999999999,le15,1
CC(C)(C)c1ccccc1,"Benzene, (1,1-dimethylethyl)-",307.5499999999999,le15,1
CCc1ccc(CC)cc1,"Benzene, 1,4-diethyl-",329.85,le15,1
CCC(C)c1ccccc1,"Benzene, (1-methylpropyl)-",325.15,le15,1
Cc1ccccc1C(C)C,"Benzene, 1-methyl-2-(1-methylethyl)-",323.15,le15,1
CC(C)Cc1ccccc1,2-methylpropylbenzene,323.0499999999999,le15,1
CCCc1ccc(C)cc1,1-methyl-4-propylbenzene,329.45,le15,1
Cc1ccc(C(C)C)cc1,"Benzene, 1-methyl-4-(1-methylethyl)-",320.35,le15,1
CCCCc1ccccc1,Butylbenzene,322.0,le15,1
CCCS(=O)CCC,Propyl sulfoxide (8CI),374.45,le15,1
CC[Si](F)(CC)CC,triethyl(fluoro)silane,292.15,le15,1
CC(=O)C(Cl)C(C)=O,"2,4-Pentanedione, 3-chloro-",285.35,le15,1
CCCCCC(=O)Cl,Hexanoyl chloride,352.15,le15,1
CCC1(CCl)COC1,"Oxetane, 3-(chloromethyl)-3-ethyl-",322.5499999999999,le15,1
CCC(CC)C(=O)Cl,2-ethylbutanoyl chloride,314.25,le15,1
CC(C)(C)CC(=O)Cl,"3,3-dimethylbutanoyl chloride",303.35,le15,1
CC(C)(C)C(=O)CCl,"2-Butanone, 1-chloro-3,3-dimethyl-",340.15,le15,1
CCC(C)(C)C(=O)Cl,"2,2-dimethylbutanoyl chloride",303.35,le15,1
CCCCC(Cl)CC,3-chloroheptane,312.35,le15,1
CCCCCCCCl,1-chloroheptane,314.15,le15,1
CCCCCCCCl,1chloroheptane,314.0,le15,1
C=CC[Si](C)(C)Cl,chloro-dimethyl-prop-2-enylsilane,278.75,le15,1
C/C=C(/C)Br,(Z)-2-bromobut-2-ene,284.25,le15,1
C=CCCBr,4-bromobut-1-ene,282.5499999999999,le15,1
C/C=C(\C)Br,(E)-2-bromobut-2-ene,274.25,le15,1
C=C(Br)CC,2-bromobut-1-ene,284.75,le15,1
CC/C=C/Br,(E)-1-bromobut-1-ene,287.65,le15,1
C=CCCBr,4bromo1butene,282.0,le15,1
Fc1nc(F)nc(F)n1,"2,4,6-trifluoro-1,3,5-triazine",418.15,le15,1
O=c1[nH]c2ccccc2o1,2(3H)-Benzoxazolone,433.15,le15,1
O.On1nnc2ccccc21,"1H-Benzotriazole, 1-hydroxy-, hydrate",435.35,le15,1
Nc1nc2ncnc-2c[nH]1,1H-Purin-2-amine,636.05,le15,1
Nc1[nH]cnc2ncnc1-2,1H-Purin-6-amine,595.8599999999999,le15,1
N#CCc1ccccc1F,2-(2-fluorophenyl)acetonitrile,316.15,le15,1
Nc1ncnc2[nH]ncc12,"1H-Pyrazolo(3,4-d)pyrimidine, 4-amino-",517.55,le15,1
Cc1ccccc1NC=O,N-(2-methylphenyl)formamide,436.95,le15,1
CC(=O)c1cccc(N)c1,"Ethanone, 1-(3-aminophenyl)-",354.5499999999999,le15,1
CC(=O)c1ccc(N)cc1,"Acetophenone, 4'-amino- (8CI)",367.45,le15,1
NCC(=O)c1ccccc1,2-amino-1-phenylethanone,376.55,le15,1
C/C(=N\O)c1ccccc1,(NE)-N-(1-phenylethylidene)hydroxylamine,411.25,le15,1
CN(C=O)c1ccccc1,N-methyl-N-phenylformamide,399.15,le15,1
Cc1ccccc1C(N)=O,"Benzamide, 2-methyl-",380.75,le15,1
CNC(=O)c1ccccc1,"Benzamide, N-methyl-",449.05,le15,1
Cc1cccc(NC=O)c1,N-(3-methylphenyl)formamide,440.95,le15,1
c1ccc2scnc2c1,Benzothiazole,369.75,le15,1
c1ccc2sncc2c1,"1,2-Benzisothiazole",314.75,le15,1
N#CSc1ccccc1,phenyl thiocyanate,367.55,le15,1
CSC[C@H](N)C(=O)O,"L-Cysteine, S-methyl- (9CI)",408.55,le15,1
C[C@H](N)Cc1ccccc1,"Benzeneethanamine, alpha-methyl-, (alphaS)-",360.55,le15,1
CCNc1ccccc1C,N-ethyl-2-methylaniline,362.05,le15,1
Cc1ccc(N(C)C)cc1,"Benzenamine, N,N,4-trimethyl-",357.35,le15,1