smiles,compound,flashpoint,source,pure substance
CCN(C)N=O,N-ethyl-N-methylnitrous amide,349.15,pubchem,1
CCCCCCCCCCCCC1=CC=CC=C1S(=O)(=O)O,2-dodecylbenzenesulfonic acid,422.15,pubchem,1
CC(CO)OCC(C)OC,2-(2-methoxypropoxy)propan-1-ol,347.15,pubchem,1
CC[Al](CC)Cl.CC[Al](Cl)Cl,chloro(diethyl)alumane;dichloro(ethyl)alumane,253.15,pubchem,1
CC1=C[CH-]C=C1.[C-]#[O+].[C-]#[O+].[C-]#[O+].[Mn],"carbon monoxide;manganese;2-methylcyclopenta-1,3-diene",369.15,pubchem,1
CCOP(=S)(OCC)SCSC(C)(C)C,tert-butylsulfanylmethylsulfanyl-diethoxy-sulfanylidene-λ5-phosphane,361.15,pubchem,1
CCCCNCC,N-ethylbutan-1-amine,291.15,pubchem,1
C(C(CCl)OP(=O)(OC(CCl)CCl)OC(CCl)CCl)Cl,"tris(1,3-dichloropropan-2-yl) phosphate",525.15,pubchem,1
CC1=CCCC(=C)C2CC(C2CC1)(C)C,"4,11,11-trimethyl-8-methylidenebicyclo[7.2.0]undec-4-ene",374.15,pubchem,1
CCCSC(=O)Cl,S-propyl chloromethanethioate,335.15,pubchem,1
CCCCC(C)C(C)C.CCCC(C)CC(C)C.CC(C)CC(C)C(C)C,"2,3-dimethylheptane;2,4-dimethylheptane;2,3,5-trimethylhexane",297.15,pubchem,1
C1=CC(=C(C(=C1O)Cl)Cl)Cl,"2,3,4-trichlorophenol",335.15,pubchem,1
CC=C1CC2CC1C=C2,5-ethylidenebicyclo[2.2.1]hept-2-ene,299.15,pubchem,1
CCCCCCCCCCCCCC(=O)OC1C(C2(C(C=C(CC3(C2C=C(C3=O)C)O)CO)C4C1(C4(C)C)OC(=O)C)O)C,"[(1S,2S,6R,10S,11R,13S,14R,15R)-13-acetyloxy-1,6-dihydroxy-8-(hydroxymethyl)-4,12,12,15-tetramethyl-5-oxo-14-tetracyclo[8.5.0.02,6.011,13]pentadeca-3,8-dienyl] tetradecanoate",310.15,pubchem,1
CC(C)N(C(C)C)C(=O)SCC(=CCl)Cl,"S-(2,3-dichloroprop-2-enyl) N,N-di(propan-2-yl)carbamothioate",369.15,pubchem,1
C1CCC(CC1)SN2C(=O)C3=CC=CC=C3C2=O,"2-cyclohexylsulfanylisoindole-1,3-dione",450.15,pubchem,1
C[Si](C)(C)O[Si](C)(O[Si](C)(C)C)O[Si](C)(C)C,trimethyl-[methyl-bis(trimethylsilyloxy)silyl]oxysilane,359.15,pubchem,1
CC(CBr)O,1-bromopropan-2-ol,327.15,pubchem,1
CCOP(OCC)OCC,triethyl phosphite,319.15,pubchem,1
CCCCC(CC)COC(=O)CCCCCCCCC(=O)OCC(CC)CCCC,bis(2-ethylhexyl) decanedioate,483.15,pubchem,1
CC(=O)OC1=CC=CC=C1,phenyl acetate,353.15,pubchem,1
C1=CC=C(C=C1)CCCO,3-phenylpropan-1-ol,485.15,pubchem,1
C1=CC=C(C=C1)OCCO,2-phenoxyethanol,394.15,pubchem,1
CCCCCCCCCCCCC1=CC=CC=C1,dodecylbenzene,408.15,pubchem,1
CCCCC(CC)C=O,2-ethylhexanal,325.15,pubchem,1
CCC1=CC=C(C=C1)O,4-ethylphenol,377.15,pubchem,1
COC1=CC=C(C=C1)C=O,4-methoxybenzaldehyde,389.15,pubchem,1
CCCC(C)C=O,2-methylpentanal,293.15,pubchem,1
CCCC(=O)CCC,heptan-4-one,322.15,pubchem,1
CCCC(=O)OC=C,ethenyl butanoate,293.15,pubchem,1
CCOC(=O)CCC(=O)OCC,diethyl butanedioate,363.15,pubchem,1
CC(=CCCC(=C)C=C)C,"7-methyl-3-methylideneocta-1,6-diene",312.15,pubchem,1
CNC=O,N-methylformamide,371.15,pubchem,1
CC(=O)CC(C)(C)O,4-hydroxy-4-methylpentan-2-one,325.15,pubchem,1
CC(C)CCO,3-methylbutan-1-ol,319.15,pubchem,1
CC(=O)CC(=O)C,"pentane-2,4-dione",307.15,pubchem,1
CCC(=O)OC(=O)CC,propanoyl propanoate,336.15,pubchem,1
CC1OC(OC(O1)C)C,"2,4,6-trimethyl-1,3,5-trioxane",309.15,pubchem,1
C1CCNC1,pyrrolidine,276.15,pubchem,1
CCCCCCCCOC(=O)CCCCC(=O)OCCCCCCCC,dioctyl hexanedioate,469.15,pubchem,1
CCCCOC(=O)C,butyl acetate,295.15,pubchem,1
C1COCCO1,"1,4-dioxane",285.15,pubchem,1
CC(C)CCOC(=O)C,3-methylbutyl acetate,298.15,pubchem,1
CCCCCCCCCCCCCCCCCC(=O)OCCCC,butyl octadecanoate,433.15,pubchem,1
C=CCNCC=C,N-prop-2-enylprop-2-en-1-amine,280.15,pubchem,1
CCCCCCCC=C,non-1-ene,299.15,pubchem,1
CCCCOCCOCC(C)O,1-(2-butoxyethoxy)propan-2-ol,394.15,pubchem,1
CCCCOCCOCCOC(=O)C,2-(2-butoxyethoxy)ethyl acetate,389.15,pubchem,1
CCCCCCCCC=O,nonanal,356.15,pubchem,1
CC(C)(CO)CO,"2,2-dimethylpropane-1,3-diol",380.15,pubchem,1
C1CCS(=O)(=O)C1,"thiolane 1,1-dioxide",439.15,pubchem,1
CCCCOP(=O)(OCCCC)OCCCC,tributyl phosphate,419.15,pubchem,1
CC(=C)C#N,2-methylprop-2-enenitrile,286.15,pubchem,1
C=CC(=C)Cl,"2-chlorobuta-1,3-diene",253.15,pubchem,1
CC(CCl)O,1-chloropropan-2-ol,325.15,pubchem,1
CC(=O)N(C)C,"N,N-dimethylacetamide",339.15,pubchem,1
CC1=CC(=C(C(=C1)C(C)(C)C)O)C(C)(C)C,"2,6-ditert-butyl-4-methylphenol",400.15,pubchem,1
CC1=C(C(=O)CC1OC(=O)C2C(C2(C)C)C=C(C)C)CC#C,"(2-methyl-4-oxo-3-prop-2-ynylcyclopent-2-en-1-yl) (1S,3S)-2,2-dimethyl-3-(2-methylprop-1-enyl)cyclopropane-1-carboxylate",412.15,pubchem,1
CCCCOCN(C1=C(C=CC=C1CC)CC)C(=O)CCl,"N-(butoxymethyl)-2-chloro-N-(2,6-diethylphenyl)acetamide",387.15,pubchem,1
CCN(CC)C1=NC(=CC(=N1)OP(=S)(OCC)OCC)C,"4-diethoxyphosphinothioyloxy-N,N-diethyl-6-methylpyrimidin-2-amine",386.15,pubchem,1
CCC1=CC=CC(=C1N)C,2-ethyl-6-methylaniline,375.15,pubchem,1
CC(CO)OCC(C)OCC(C)O,2-[2-(2-hydroxypropoxy)propoxy]propan-1-ol,414.15,pubchem,1
CC(C)CCCCCCCOP(=S)(OCCCCCCCC(C)C)[S-].CC(C)CCCCCCCOP(=S)(OCCCCCCCC(C)C)[S-].[Zn+2],zinc;bis(8-methylnonoxy)-sulfanylidene-sulfido-λ5-phosphane,553.15,pubchem,1
CC1COC(CO1)C,"2,5-dimethyl-1,4-dioxane",297.15,pubchem,1
CC(CO)OCC(C)O,2-(2-hydroxypropoxy)propan-1-ol,472.15,pubchem,1
CC(C)CCCCCCCO,8-methylnonan-1-ol,377.15,pubchem,1
CCCCN(CCC)N=O,N-butyl-N-propylnitrous amide,367.15,pubchem,1
CC(CO)OC(C)COC(C)COC,2-[1-(1-methoxypropan-2-yloxy)propan-2-yloxy]propan-1-ol,394.15,pubchem,1
C=CC(=O)OCCCO,3-hydroxypropyl prop-2-enoate,370.15,pubchem,1
CC(C)CCCCCCCOC(=O)C1=CC=CC=C1C(=O)OCCCCCCCC(C)C,"bis(8-methylnonyl) benzene-1,2-dicarboxylate",505.15,pubchem,1
CCCCCCC(C)(C)C(=O)OCC1CO1,"oxiran-2-ylmethyl 2,2-dimethyloctanoate",402.15,pubchem,1
CCCCCCC=CC,non-2-ene,299.15,pubchem,1
CC(C)CCCCCOC(=O)C1=CC=CC=C1C(=O)OCCCCCC(C)C,"bis(6-methylheptyl) benzene-1,2-dicarboxylate",505.15,pubchem,1
CC(CO)OC(=O)C(=C)C,1-hydroxypropan-2-yl 2-methylprop-2-enoate,394.15,pubchem,1
CC1=CC=C(C=C1)[N+](=O)[O-].C1=CC=C(C(=C1)N)[N+](=O)[O-].C1=CC(=CC(=C1)[N+](=O)[O-])N.N,azane;1-methyl-4-nitrobenzene;2-nitroaniline;3-nitroaniline,427.15,pubchem,1
CC(C)CCCCCCCOC(=O)C(=C)C,8-methylnonyl 2-methylprop-2-enoate,394.15,pubchem,1
CCSCC1=CC=CC=C1OC(=O)NC,[2-(ethylsulfanylmethyl)phenyl] N-methylcarbamate,396.15,pubchem,1
CCCN(CCCl)C1=C(C=C(C=C1[N+](=O)[O-])C(F)(F)F)[N+](=O)[O-],"N-(2-chloroethyl)-2,6-dinitro-N-propyl-4-(trifluoromethyl)aniline",303.15,pubchem,1
C1=C(C=C(C=C1Cl)Cl)C2=CC(=CC(=C2)Cl)Cl,"1,3-dichloro-5-(3,5-dichlorophenyl)benzene",414.15,pubchem,1
CN(C)CCCC1(C2=CC=CC=C2N(C1=O)N(C)CC3=CC=CC=C3F)C4=CC=CC=C4,3-[3-(dimethylamino)propyl]-1-[(2-fluorophenyl)methyl-methylamino]-3-phenylindol-2-one,466.15,pubchem,1
CCC(C)NC1=C(C=C(C=C1[N+](=O)[O-])C(C)(C)C)[N+](=O)[O-],"N-butan-2-yl-4-tert-butyl-2,6-dinitroaniline",309.15,pubchem,1
CC(C)C1=CC=C(C=C1)NC(=O)N(C)C,"1,1-dimethyl-3-(4-propan-2-ylphenyl)urea",373.15,pubchem,1
C=CCOC(CN1C=CN=C1)C2=C(C=C(C=C2)Cl)Cl,"1-[2-(2,4-dichlorophenyl)-2-prop-2-enoxyethyl]imidazole",465.15,pubchem,1
C1=CC(=C(C(=C1C2=C(C(=C(C=C2)Cl)Cl)Cl)Cl)Cl)Cl,"1,2,3-trichloro-4-(2,3,4-trichlorophenyl)benzene",414.15,pubchem,1
C1=CC(=CC(=C1)Cl)C2=CC(=CC(=C2)Cl)Cl,"1,3-dichloro-5-(3-chlorophenyl)benzene",414.15,pubchem,1
CCC(CC)NC1=C(C=C(C(=C1[N+](=O)[O-])C)C)[N+](=O)[O-],"3,4-dimethyl-2,6-dinitro-N-pentan-3-ylaniline",306.15,pubchem,1
CCC1=C(C(=CC=C1)CC)CC,"1,2,3-triethylbenzene",356.15,pubchem,1
CC(C)(C)C(=O)C(N1C=NC=N1)OC2=CC=C(C=C2)Cl,"1-(4-chlorophenoxy)-3,3-dimethyl-1-(1,2,4-triazol-1-yl)butan-2-one",345.15,pubchem,1
CCOP(=O)(C)SCCN(C(C)C)C(C)C,N-[2-[ethoxy(methyl)phosphoryl]sulfanylethyl]-N-propan-2-ylpropan-2-amine,432.15,pubchem,1
CC(C(=O)OC)OC1=CC=C(C=C1)OC2=C(C=C(C=C2)Cl)Cl,"methyl 2-[4-(2,4-dichlorophenoxy)phenoxy]propanoate",311.15,pubchem,1
C(CO[N+](=O)[O-])O[N+](=O)[O-],2-nitrooxyethyl nitrate,488.15,pubchem,1
CC1CCC(C(C1)O)C(C)C,"(1S,2R,5R)-5-methyl-2-propan-2-ylcyclohexan-1-ol",364.15,pubchem,1
CC1(C(C1C(=O)OC(C#N)C2=CC(=CC=C2)OC3=CC=CC=C3)C(C(Br)(Br)Br)Br)C,"[(S)-cyano-(3-phenoxyphenyl)methyl] (1R,3S)-2,2-dimethyl-3-(1,2,2,2-tetrabromoethyl)cyclopropane-1-carboxylate",299.15,pubchem,1
CC(COC(=O)C)OC,2-methoxypropyl acetate,298.15,pubchem,1
CCOC(=O)NCCOC1=CC=C(C=C1)OC2=CC=CC=C2,ethyl N-[2-(4-phenoxyphenoxy)ethyl]carbamate,497.15,pubchem,1
CC1(CON(C1=O)CC2=CC=CC=C2Cl)C,"2-[(2-chlorophenyl)methyl]-4,4-dimethyl-1,2-oxazolidin-3-one",257.15,pubchem,1
CC1=C(C=CC=C1COC(=O)C2C(C2(C)C)C=C(C(F)(F)F)Cl)C3=CC=CC=C3,"(2-methyl-3-phenylphenyl)methyl 3-(2-chloro-3,3,3-trifluoroprop-1-enyl)-2,2-dimethylcyclopropane-1-carboxylate",438.15,pubchem,1
CNCCC(C1=CC=CS1)OC2=CC=CC3=CC=CC=C32,(3S)-N-methyl-3-naphthalen-1-yloxy-3-thiophen-2-ylpropan-1-amine,282.15,pubchem,1
C1CN(CCN1CCC2=C(C=C3C(=C2)CC(=O)N3)Cl)C4=NSC5=CC=CC=C54,"5-[2-[4-(1,2-benzothiazol-3-yl)piperazin-1-yl]ethyl]-6-chloro-1,3-dihydroindol-2-one",271.15,pubchem,1
C1CCC(CC1)[Si](Cl)(Cl)Cl,trichloro(cyclohexyl)silane,364.15,pubchem,1
C1CC(OC=C1)C=O,"3,4-dihydro-2H-pyran-2-carbaldehyde",321.15,pubchem,1
CCN(CC)CCCN,"N',N'-diethylpropane-1,3-diamine",332.15,pubchem,1
CC(=CC=O)C,3-methylbut-2-enal,310.15,pubchem,1
CC1OC(OC(OC(O1)C)C)C,"2,4,6,8-tetramethyl-1,3,5,7-tetraoxocane",309.15,pubchem,1
CC(=O)OC1CC2CCC1(C2(C)C)C,"[(1R,2R,4S)-1,7,7-trimethyl-2-bicyclo[2.2.1]heptanyl] acetate",361.15,pubchem,1
CC(CCN)N,"butane-1,3-diamine",325.15,pubchem,1
CCCCOC(=O)Cl,butyl carbonochloridate,298.15,pubchem,1
CCP(=S)(Cl)Cl,dichloro-ethyl-sulfanylidene-λ5-phosphane,368.15,pubchem,1
CCC(C)(C)OC,2-methoxy-2-methylbutane,266.15,pubchem,1
CC(COC(=O)C=C)O,2-hydroxypropyl prop-2-enoate,338.15,pubchem,1
CCCCCO[N+](=O)[O-],pentyl nitrate,322.15,pubchem,1
CCCCC(CC)COC(=O)COC1=C(C=C(C=C1)Cl)Cl,"2-ethylhexyl 2-(2,4-dichlorophenoxy)acetate",444.15,pubchem,1
CCCCCCCCC(=O)OCC=C,prop-2-enyl nonanoate,302.15,pubchem,1
CCC(CC)COC(=O)C,2-ethylbutyl acetate,327.15,pubchem,1
CC(C(=O)O)O,(2R)-2-hydroxypropanoic acid,386.15,pubchem,1
[OH-].[OH-].[Ni+2],nickel(2+);dihydroxide,673.15,pubchem,1
CCCOCCCO,3-propoxypropan-1-ol,326.15,pubchem,1
CC1(COCN1)C,"4,4-dimethyl-1,3-oxazolidine",322.15,pubchem,1
CC=CC=C,"(3E)-penta-1,3-diene",244.15,pubchem,1
CCC(=O)Cl,propanoyl chloride,285.15,pubchem,1
CC(C)COC(=O)Cl,2-methylpropyl carbonochloridate,300.15,pubchem,1
[CH-]1C=CC=C1.[CH-]1C=CC=C1.[Ni+2],"cyclopenta-1,3-diene;nickel(2+)",277.15,pubchem,1
CC(C)OC(=O)CC1=CC=CC=C1,propan-2-yl 2-phenylacetate,368.15,pubchem,1
CCCCCCCCCCCS,undecane-1-thiol,382.15,pubchem,1
CCOC(=O)CC(C)O,ethyl 3-hydroxybutanoate,337.15,pubchem,1
CC=CC,(E)-but-2-ene,262.15,pubchem,1
COP(=O)(OC)OC1=C(C2C1CC=C2)Cl,"(7-chloro-6-bicyclo[3.2.0]hepta-2,6-dienyl) dimethyl phosphate",438.15,pubchem,1
CC(C)C(C(C)(C)CO)O.CC(C)C(=O)O,"2-methylpropanoic acid;2,2,4-trimethylpentane-1,3-diol",393.15,pubchem,1
CCCCCCCCCCCCCCCCCC[N+](C)(C)CCC[Si](OC)(OC)OC.[Cl-],dimethyl-octadecyl-(3-trimethoxysilylpropyl)azanium;chloride,288.15,pubchem,1
CC(C)(C)CCCCCC(=O)O,"7,7-dimethyloctanoic acid",367.15,pubchem,1
C1=CC(=C(C(=C1)Cl)Cl)C2=C(C=C(C=C2)Cl)Cl,"1,2-dichloro-3-(2,4-dichlorophenyl)benzene",414.15,pubchem,1
CC1(C2CCC1(C(C2)O)C)C,"1,7,7-trimethylbicyclo[2.2.1]heptan-2-ol",339.15,pubchem,1
CC(C)(C)C1=CC(=CC(=C1O)C(C)(C)C)CCC(=O)OCC(COC(=O)CCC2=CC(=C(C(=C2)C(C)(C)C)O)C(C)(C)C)(COC(=O)CCC3=CC(=C(C(=C3)C(C)(C)C)O)C(C)(C)C)COC(=O)CCC4=CC(=C(C(=C4)C(C)(C)C)O)C(C)(C)C,"[3-[3-(3,5-ditert-butyl-4-hydroxyphenyl)propanoyloxy]-2,2-bis[3-(3,5-ditert-butyl-4-hydroxyphenyl)propanoyloxymethyl]propyl] 3-(3,5-ditert-butyl-4-hydroxyphenyl)propanoate",570.15,pubchem,1
CC(CC1=CC=CC=C1)NC.Cl,(2S)-N-methyl-1-phenylpropan-2-amine;hydrochloride,282.15,pubchem,1
C(=O)C(=C(C(=O)O)Cl)Cl,"2,3-dichloro-4-oxobut-2-enoic acid",373.15,pubchem,1
C=CC1=CC=CC=C1C=C,"1,2-bis(ethenyl)benzene",335.15,pubchem,1
CC(C)CCCCCOC(=O)CCCCC(=O)OCCCCCC(C)C,bis(6-methylheptyl) hexanedioate,483.15,pubchem,1
C1=C(C=C(C(=C1O)O)O)C2=C(C=C3C(=CC(=CC3=[O+]2)O)O)O.[Cl-],"2-(3,4,5-trihydroxyphenyl)chromenylium-3,5,7-triol;chloride",466.15,pubchem,1
C1=CC(=CC=C1CN)CN,[4-(aminomethyl)phenyl]methanamine,300.15,pubchem,1
CCC(CC)OC(=O)C,pentan-3-yl acetate,306.15,pubchem,1
CCCCCC(C)(C)S,2-methylheptane-2-thiol,319.15,pubchem,1
C=C(C#N)Cl,2-chloroprop-2-enenitrile,280.15,pubchem,1
CCCCCCCCCC1=CC=C(C=C1)OCCOCCOCCOCCOCCOCCOCCOCCOCCO,2-[2-[2-[2-[2-[2-[2-[2-[2-(4-nonylphenoxy)ethoxy]ethoxy]ethoxy]ethoxy]ethoxy]ethoxy]ethoxy]ethoxy]ethanol,470.15,pubchem,1
CCCCOCCOCCOCCOCCO,2-[2-[2-(2-butoxyethoxy)ethoxy]ethoxy]ethanol,439.15,pubchem,1
CCOP(=O)(O)O,ethyl dihydrogen phosphate,389.15,pubchem,1
C(C(C(C(C(F)(F)S(=O)(=O)O)(F)F)(F)F)(F)F)(C(C(C(F)(F)F)(F)F)(F)F)(F)F,"1,1,2,2,3,3,4,4,5,5,6,6,7,7,8,8,8-heptadecafluorooctane-1-sulfonic acid",284.15,pubchem,1
CC(CO)CO,"2-methylpropane-1,3-diol",400.15,pubchem,1
CCCCCCCCCCCCCCCCCCOC(=O)CCCCCCCCCCCCCCC,octadecyl hexadecanoate,511.15,pubchem,1
CCCCCCCCOP(=O)(O)OCCCCCCCC,dioctyl hydrogen phosphate,469.15,pubchem,1
CNCCCN,"N'-methylpropane-1,3-diamine",309.15,pubchem,1
CCOC(=O)C(=C)C#N,ethyl 2-cyanoprop-2-enoate,355.15,pubchem,1
C1CC=CCCC=C1,"(1Z,5Z)-cycloocta-1,5-diene",368.15,pubchem,1
CS(=O)(=O)[O-],methanesulfonate,462.15,pubchem,1
CCCCCCCCCC1=CC=CC=C1OP(OC2=CC=CC=C2CCCCCCCCC)OC3=CC=CC=C3CCCCCCCCC,tris(2-nonylphenyl) phosphite,480.15,pubchem,1
C1CCC2C(C1)C(=O)OC2=O,"3a,4,5,6,7,7a-hexahydro-2-benzofuran-1,3-dione",422.15,pubchem,1
CC1CCC2C(C1)C(=O)OC2=O,"5-methyl-3a,4,5,6,7,7a-hexahydro-2-benzofuran-1,3-dione",623.15,pubchem,1
C=CC(C(C(C(F)(F)F)(F)F)(F)F)(F)F,"3,3,4,4,5,5,6,6,6-nonafluorohex-1-ene",256.15,pubchem,1
CC1=C(C(=CC=C1)C)N.Cl,"2,6-dimethylaniline;hydrochloride",364.15,pubchem,1
CN1CCCC1C2=CN=CC=C2,3-[(2S)-1-methylpyrrolidin-2-yl]pyridine,368.15,pubchem,1
COCCOCCOCCOCCO,2-[2-[2-(2-methoxyethoxy)ethoxy]ethoxy]ethanol,434.15,pubchem,1
CC(C(=O)[O-])O,2-hydroxypropanoate,386.15,pubchem,1
CCOC(=O)C#CC1=CC=CC=C1,ethyl 3-phenylprop-2-ynoate,386.15,pubchem,1
CC1=NC(=NC(=N1)OC)NC(=O)NS(=O)(=O)C2=CC=CC=C2CCC(F)(F)F,"1-(4-methoxy-6-methyl-1,3,5-triazin-2-yl)-3-[2-(3,3,3-trifluoropropyl)phenyl]sulfonylurea",373.15,pubchem,1
CCC(C)SP(=O)(OCC)SC(C)CC,2-[butan-2-ylsulfanyl(ethoxy)phosphoryl]sulfanylbutane,402.15,pubchem,1
CC(COC1=CC=C(C=C1)OC2=CC=CC=C2)OC3=CC=CC=N3,2-[1-(4-phenoxyphenoxy)propan-2-yloxy]pyridine,392.15,pubchem,1
CC1=NC2=NC(=NN2C=C1)S(=O)(=O)NC3=C(C=CC=C3F)F,"N-(2,6-difluorophenyl)-5-methyl-[1,2,4]triazolo[1,5-a]pyrimidine-2-sulfonamide",366.15,pubchem,1
C1C(O1)C2CO2,(2R)-2-[(2R)-oxiran-2-yl]oxirane,319.15,pubchem,1
CCOC(=O)C1CC(=O)C(=C(C2CC2)O)C(=O)C1,"ethyl 4-[cyclopropyl(hydroxy)methylidene]-3,5-dioxocyclohexane-1-carboxylate",406.15,pubchem,1
CC(COC(C)(C)C)O,1-[(2-methylpropan-2-yl)oxy]propan-2-ol,317.15,pubchem,1
CCCCCCCCCCCCOCC,1-ethoxydodecane,516.15,pubchem,1
C1C=CCC2C1C(=O)OC2=O,"(3aS,7aR)-3a,4,7,7a-tetrahydro-2-benzofuran-1,3-dione",430.15,pubchem,1
CC(=CCC1CCCC1=O)C,2-(3-methylbut-2-enyl)cyclopentan-1-one,296.15,pubchem,1
CCC(=O)[O-],propanoate,325.15,pubchem,1
CCCC(=O)[O-],butanoate,345.15,pubchem,1
CC(C)CCOCC(=O)OCC=C,prop-2-enyl 2-(3-methylbutoxy)acetate,341.15,pubchem,1
CC1CNCC(O1)C,"2,6-dimethylmorpholine",317.15,pubchem,1
CC1CCC(CC1)CO,(4-methylcyclohexyl)methanol,385.15,pubchem,1
C(CP(CCC(=O)O)CCC(=O)O)C(=O)O,3-[bis(2-carboxyethyl)phosphanyl]propanoic acid,475.15,pubchem,1
C(CO)C=CO,"but-1-ene-1,4-diol",401.15,pubchem,1
CCCCCCCCCCCCCC(=O)OC1C(C2(C(C=C(CC3(C2C=C(C3=O)C)O)CO)C4C1(C4(C)C)OC(=O)C)O)C,"[(1S,2S,6S,10S,11R,13S,14R,15R)-13-acetyloxy-1,6-dihydroxy-8-(hydroxymethyl)-4,12,12,15-tetramethyl-5-oxo-14-tetracyclo[8.5.0.02,6.011,13]pentadeca-3,8-dienyl] tetradecanoate",310.15,pubchem,1
CC1=CC(=O)C(C(=O)O1)C(=O)C,"3-acetyl-6-methylpyran-2,4-dione",342.15,pubchem,1
CC(=CC1C(C1(C)C)C(=O)OCN2C(=O)CN(C2=O)CC#C)C,"(2,5-dioxo-3-prop-2-ynylimidazolidin-1-yl)methyl 2,2-dimethyl-3-(2-methylprop-1-enyl)cyclopropane-1-carboxylate",383.15,pubchem,1
[Si](Cl)(Cl)Cl,InChI=1S/Cl3Si/c1-4(2)3,259.15,pubchem,1
CC(C)(C)C1=CC=CC=C1OP(=O)(OC2=CC=CC=C2)OC3=CC=CC=C3,(2-tert-butylphenyl) diphenyl phosphate,497.15,pubchem,1
CC1(C2CCC1(C(=O)C2)C)C,"(1R,4R)-1,7,7-trimethylbicyclo[2.2.1]heptan-2-one",320.15,pubchem,1
CC1CCC(C(C1)O)C(C)C,"(1S,2R,5S)-5-methyl-2-propan-2-ylcyclohexan-1-ol",364.15,pubchem,1
CC(C)CCCCCOC(=O)C=C,6-methylheptyl prop-2-enoate,364.15,pubchem,1
CC1=NC2=C(C1(C)C)C3=CC=CC=C3C=C2,"1,1,2-trimethylbenzo[e]indole",455.15,pubchem,1
CCCCCCCCCCCCC1=CC=CC=C1O,2-dodecylphenol,436.15,pubchem,1
CCOCC(C)OC(=O)C,1-ethoxypropan-2-yl acetate,326.15,pubchem,1
C(C=CCO)O,"(E)-but-2-ene-1,4-diol",401.15,pubchem,1
CC1C(SC(=O)N1C(=O)NC2CCCCC2)C3=CC=C(C=C3)Cl,"(4R,5R)-5-(4-chlorophenyl)-N-cyclohexyl-4-methyl-2-oxo-1,3-thiazolidine-3-carboxamide",373.15,pubchem,1
CCCCOC(=O)C(C)OC1=CC=C(C=C1)OC2=C(C=C(C=C2)C#N)F,butyl (2R)-2-[4-(4-cyano-2-fluorophenoxy)phenoxy]propanoate,395.15,pubchem,1
CC(C)OC(C)C(Cl)Cl,"1,1-dichloro-2-propan-2-yloxypropane",358.15,pubchem,1
CC12CC=CCC1C(=O)OC2=O,"7a-methyl-4,7-dihydro-3aH-2-benzofuran-1,3-dione",623.15,pubchem,1
C(CCC(=O)[O-])CC(=O)[O-],hexanedioate,658.15,pubchem,1
C1CCC(C(C1)CN2CCN(CC2)C3=NSC4=CC=CC=C43)CN5C(=O)C6C7CCC(C7)C6C5=O,"(1S,2R,6S,7R)-4-[[(1R,2R)-2-[[4-(1,2-benzothiazol-3-yl)piperazin-1-yl]methyl]cyclohexyl]methyl]-4-azatricyclo[5.2.1.02,6]decane-3,5-dione",282.15,pubchem,1
CC1(C2CCC1(C(C2)OC(=O)CSC#N)C)C,"[(1S,2S,4R)-1,7,7-trimethyl-2-bicyclo[2.2.1]heptanyl] 2-thiocyanatoacetate",355.15,pubchem,1
CC1=CC(=C(C=C1)NC(=O)CC(=O)C)C,"N-(2,4-dimethylphenyl)-3-oxobutanamide",444.15,pubchem,1
CC12CCC(CC1O2)C3(CO3)C,1-methyl-4-(2-methyloxiran-2-yl)-7-oxabicyclo[4.1.0]heptane,391.15,pubchem,1
CCCCCC(=O)CC,octan-3-one,319.15,pubchem,1
CC(=O)OC1CC2CCC1(C2(C)C)C,"[(1S,2S,4R)-1,7,7-trimethyl-2-bicyclo[2.2.1]heptanyl] acetate",361.15,pubchem,1
CC=CC1=CC=CC=C1,[(E)-prop-1-enyl]benzene,325.15,pubchem,1
C1=CC=C(C=C1)NCl,N-chloroaniline,381.15,pubchem,1
C1CCC=CC=CC1,"(1Z,3Z)-cycloocta-1,3-diene",308.15,pubchem,1
CCCCCCCCCCCCCCCCCC(=O)O.O.Cl[Cr]Cl.Cl[Cr]Cl,dichlorochromium;octadecanoic acid;hydrate,275.15,pubchem,1
CC1CCC(C(C1)O)C(C)C,"(1S,2S,5R)-5-methyl-2-propan-2-ylcyclohexan-1-ol",364.15,pubchem,1
CC1(C2CCC1(C(C2)O)C)C,"(2S)-1,7,7-trimethylbicyclo[2.2.1]heptan-2-ol",339.15,pubchem,1
CC1=CCC(CC1)C(=C)C,(4R)-1-methyl-4-prop-1-en-2-ylcyclohexene,321.15,pubchem,1
CC1(C2CCC(=C)C1C2)C,"(1S,5S)-6,6-dimethyl-2-methylidenebicyclo[3.1.1]heptane",304.15,pubchem,1
CC1=CCC2CC1C2(C)C,"(1S,5S)-2,6,6-trimethylbicyclo[3.1.1]hept-2-ene",306.15,pubchem,1
CC(=O)OC1CC2CCC1(C2(C)C)C,"[(2R)-1,7,7-trimethyl-2-bicyclo[2.2.1]heptanyl] acetate",361.15,pubchem,1
CC(=O)OC1CC2CCC1(C2(C)C)C,"[(2S)-1,7,7-trimethyl-2-bicyclo[2.2.1]heptanyl] acetate",361.15,pubchem,1
CC1(C2CCC1(C(=O)C2)C)C,"(1S,4S)-1,7,7-trimethylbicyclo[2.2.1]heptan-2-one",339.15,pubchem,1
C(=CC(=O)O)C(=O)O,(E)-but-2-enedioic acid,546.15,pubchem,1
CCCCCCCCC=CCCCCCCCC(=O)O,(Z)-octadec-9-enoic acid,462.15,pubchem,1
CC=CC=O,(E)-but-2-enal,286.15,pubchem,1
CCC(=C(CC)C1=CC=C(C=C1)O)C2=CC=C(C=C2)O,4-[(E)-4-(4-hydroxyphenyl)hex-3-en-3-yl]phenol,377.15,pubchem,1
B(F)(F)F.CCOCC,ethoxyethane;trifluoroborane,337.15,pubchem,1
CC(C)CCCCCOC(=O)COC1=CC(=C(C=C1Cl)Cl)Cl,"6-methylheptyl 2-(2,4,5-trichlorophenoxy)acetate",342.15,pubchem,1
CC1=CC=CC=C1OP(=O)(OC2=CC=CC=C2)OC3=CC=CC=C3,(2-methylphenyl) diphenyl phosphate,505.15,pubchem,1
CCCCO.CCCCO.CCCCO.CCCCO.[Ti],butan-1-ol;titanium,350.15,pubchem,1
CCCCC(Cl)Cl,"1,1-dichloropentane",314.15,pubchem,1
C(C(=O)O)(Cl)Br,2-bromo-2-chloroacetic acid,383.15,pubchem,1
CC(C)CCCCCOC(=O)C(C)OC1=CC(=C(C=C1Cl)Cl)Cl,"6-methylheptyl 2-(2,4,5-trichlorophenoxy)propanoate",480.15,pubchem,1
CC=CC(=O)O,(E)-but-2-enoic acid,361.15,pubchem,1
C1=CC=C(C=C1)C=CC=O,(E)-3-phenylprop-2-enal,344.15,pubchem,1
CC(=O)OC1CC2CCC1(C2(C)C)C,"[(1R,2R,4R)-1,7,7-trimethyl-2-bicyclo[2.2.1]heptanyl] acetate",361.15,pubchem,1
CC=CC1=CC=C(C=C1)OC,1-methoxy-4-[(E)-prop-1-enyl]benzene,364.15,pubchem,1
CC(=CCCC(=CCO)C)C,"(2E)-3,7-dimethylocta-2,6-dien-1-ol",381.15,pubchem,1
CC(=CCCl)Cl,"(Z)-1,3-dichlorobut-2-ene",300.15,pubchem,1
CC(=CCCC(=CC=O)C)C,"(2E)-3,7-dimethylocta-2,6-dienal",375.15,pubchem,1
C1CC=CCCC=CCCC=C1,"(1E,5E,9E)-cyclododeca-1,5,9-triene",344.15,pubchem,1
CCOC(=O)C=CC(=O)OCC,diethyl (E)-but-2-enedioate,377.15,pubchem,1
C(=CCl)Cl,"(E)-1,2-dichloroethene",277.15,pubchem,1
C(C=CCCl)Cl,"(E)-1,4-dichlorobut-2-ene",326.15,pubchem,1
CC=CC=CC(=O)O,"(2E,4E)-hexa-2,4-dienoic acid",400.15,pubchem,1
CC(=CCCC(=CC=O)C)C,"(2Z)-3,7-dimethylocta-2,6-dienal",375.15,pubchem,1
C(C=CCO)O,"(Z)-but-2-ene-1,4-diol",401.15,pubchem,1
CC=CC(=O)O,(Z)-but-2-enoic acid,361.15,pubchem,1
CC(=CCCC(=CCO)C)C,"(2Z)-3,7-dimethylocta-2,6-dien-1-ol",380.15,pubchem,1