,compound,flashpoint,pure substance,smiles,source
14663,PhenylTrifluoroSilane-,283.15,1,F[Si](F)(F)c1ccccc1,le15
14664,AllylTrimethoxySilane,319.15,1,C=CC[Si](OC)(OC)OC,le15
14665,"1,3diisopropylbenzene",349.0,1,CC(C)c1cccc(C(C)C)c1,le15
14666,"1,4diisopropylbenzene",349.0,1,CC(C)c1ccc(C(C)C)cc1,le15
14667,1phenylhexane,356.15,1,CCCCCCc1ccccc1,le15
14668,1tertButyl4ethylBenzene,343.15,1,CCc1ccc(C(C)(C)C)cc1,le15
14669,Hexylbenzene,353.15,1,CCCCCCc1ccccc1,le15
14670,1methoxy2propoxyTrimethylSilane,293.15,1,COCC(C)O[Si](C)(C)C,le15
14671,Octanoylchloride,355.15,1,CCCCCCCC(=O)Cl,le15
14672,2chloromethyl3trimethylsilyl1propene,316.15,1,C=C(CCl)C[Si](C)(C)C,le15
14673,"2,4dichlorophenol",387.05,1,Oc1ccc(Cl)cc1Cl,le15
14674,Chloromethylmethyldichlorosilane,293.15,1,C[Si](Cl)(Cl)CCl,le15
14675,Ethyltrichlorosilane,300.15,1,CC[Si](Cl)(Cl)Cl,le15
14676,Isopropylbenzoate,372.05,1,CC(C)OC(=O)c1ccccc1,le15
14677,4tertButyl2methylphenol,390.95,1,Cc1cc(C(C)(C)C)ccc1O,le15
14678,TriethoxySilane,299.15,1,CCO[SiH](OCC)OCC,le15
14679,BenzylTrimethylSilane,335.15,1,C[Si](C)(C)Cc1ccccc1,le15
14680,1bromohexane,330.35,1,CCCCCCBr,le15
14681,"1,1bicyclohexyl",347.15,1,C1CCC(C2CCCCC2)CC1,le15
14682,Ethylbromoacetate,320.95,1,CCOC(=O)CBr,le15
14683,BromomethylTrimethylSilane,289.15,1,C[Si](C)(C)CBr,le15
14684,2cyanoethylMethylDichloroSilane,333.15,1,C[Si](Cl)(Cl)CCC#N,le15
14685,2dodecene,351.15,1,CC=CCCCCCCCCC,le15
14686,1heptynylTrimethylSilane,315.15,1,CCCCCC#C[Si](C)(C)C,le15
14687,CyclopentylDichloroSilane,316.15,1,Cl[SiH](Cl)C1CCCC1,le15
14688,Diphenylamine,425.95,1,c1ccc(Nc2ccccc2)cc1,le15
14689,2phenylphenol,397.05,1,Oc1ccccc1-c1ccccc1,le15
14690,Diphenylether,388.15,1,c1ccc(Oc2ccccc2)cc1,le15
14691,HexylTrifluoroSilane-,266.15,1,CCCCCC[Si](F)(F)F,le15
14692,Dodecane,344.15,1,CCCCCCCCCCCC,le15
14693,ChloromethylTrimethoxySilane,299.15,1,CO[Si](CCl)(OC)OC,le15
14694,PhenylDimethylChloroSilane,334.15,1,C[Si](C)(Cl)c1ccccc1,le15
14695,1bromo4methylBenzene,358.15,1,Cc1ccc(Br)cc1,le15
14696,3chloropropylDimethylChloroSilane,313.15,1,C[Si](C)(Cl)CCCCl,le15
14697,2ethylhexylacetate,344.15,1,CCCCC(CC)COC(C)=O,le15
14698,OctylAcetate,359.15,1,CCCCCCCCOC(C)=O,le15
14699,MethacryloxymethylTrimethylSilane,318.15,1,C=C(C)C(=O)OC[Si](C)(C)C,le15
14700,"2,5dimethoxychlorobenzene",390.35,1,COc1ccc(OC)c(Cl)c1,le15
14701,DiisopropylaminoTrimethylSilane,301.15,1,CC(C)N(C(C)C)[Si](C)(C)C,le15
14702,TriethylAcetoxySilane,314.15,1,CCC(CC)(CC)C(=O)O[SiH3],le15
14703,1dodecanethiol,360.95,1,CCCCCCCCCCCCS,le15
14704,VinylPentamethylDisiloxane,285.15,1,C=C[Si](C)(C)O[Si](C)(C)C,le15
14705,HeptamethylDisilazane,300.15,1,CN([Si](C)(C)C)[Si](C)(C)C,le15
14706,AllylTrichloroSilane,304.15,1,C=CC[Si](Cl)(Cl)Cl,le15
14707,DimethylDiacetoxySilane,310.15,1,CC(=O)O[Si](C)(C)OC(C)=O,le15
14708,DiethylDiethoxySilane,316.15,1,CCO[Si](CC)(CC)OCC,le15
14709,PhenylDichloroSilane,321.15,1,Cl[SiH](Cl)c1ccccc1,le15
14710,bisChloromethylMethylChloroSilane,315.15,1,C[Si](Cl)(CCl)CCl,le15
14711,Anthracene,394.15,1,c1ccc2cc3ccccc3cc2c1,le15
14712,Dibutylsulfone,416.15,1,CCCCS(=O)(=O)CCCC,le15
14713,IsobutylTrimethoxySilane,315.15,1,CO[Si](CC(C)C)(OC)OC,le15
14714,MethylTriethoxySilane,297.15,1,CCO[Si](C)(OCC)OCC,le15
14715,Dibutyldisulfide,366.45,1,CCCCSSCCCC,le15
14716,HexamethylDisilaThiane,299.15,1,C[Si](C)(C)S[Si](C)(C)C,le15
14717,1bromoheptane,333.75,1,CCCCCCCBr,le15
14718,1bromovinylTrimethylSilane,288.15,1,C=C(Br)[Si](C)(C)C,le15
14719,2bromovinylTrimethylSilane,288.15,1,C[Si](C)(C)C=CBr,le15
14720,3chloropropylMethylDimethoxySilane,318.15,1,CO[Si](C)(CCCCl)OC,le15
14721,ChloromethylMethylDiethoxySilane,311.15,1,CCO[Si](C)(CCl)OCC,le15
14722,1iodobutane,306.15,1,CCCCI,le15
14723,2iodobutane,301.15,1,CCC(C)I,le15
14724,2ethylhexylacrylate,359.0,1,C=CC(=O)OCC(CC)CCCC,le15
14725,DiphenylSilane,371.15,1,c1ccc([SiH2]c2ccccc2)cc1,le15
14726,Tridecane,352.15,1,CCCCCCCCCCCCC,le15
14727,BenzylDimethylChloroSilane,346.15,1,C[Si](C)(Cl)Cc1ccccc1,le15
14728,ChloromethylDimethylPhenylSilane,326.15,1,C[Si](C)(CCl)c1ccccc1,le15
14729,HexylDichloroSilane,337.15,1,CCCCCC[SiH](Cl)Cl,le15
14730,"1,3divinylTetramethylDisilazane",307.15,1,C=C[Si](C)(C)N[Si](C)(C)C=C,le15
14731,HexafluoroBenzene,283.15,1,Fc1c(F)c(F)c(F)c(F)c1F,le15
14732,TrimethylsilylTrifluoroacetate,273.15,1,C[Si](C)(C)OC(=O)C(F)(F)F,le15
14733,NonylAcetate,372.15,1,CCCCCCCCCOC(C)=O,le15
14734,2butyl1octanol,383.15,1,CCCCCCC(CO)CCCC,le15
14735,Dihexylether,350.15,1,CCCCCCOCCCCCC,le15