compound,flashpoint,pure substance,smiles,source
SUCCINONITRILE,405.0,1.0,N#CCCC#N,didier14
PENTANAL,285.1,1.0,CCCCC=O,didier14
"1,4-BUTANEDIOL",407.1,1.0,OCCCCO,didier14
n-PENTYL MERCAPTAN,291.0,1.0,CCCCCS,didier14
3-METHOXYPROPIONITRILE,338.1,1.0,COCCC#N,didier14
"1,2-DIMETHOXYETHANE",271.5,1.0,COCCOC,didier14
2-ETHOXYETHANOL,316.0,1.0,CCOCCO,didier14
CYCLOHEXANE,253.2,1.0,C1CCCCC1,didier14
PYRIDINE,293.1,1.0,c1ccncc1,didier14
GLUTARIC ACID,482.0,1.0,O=C(O)CCCC(=O)O,didier14
DIGLYCOLIC ACID,500.0,1.0,O=C(O)COCC(=O)O,didier14
SQUALANE,490.0,1.0,CC(C)CCCC(C)CCCC(C)CCCCC(C)CCCC(C)CCCC(C)C,didier14
2-OCTANONE,324.1,1.0,CCCCCCC(C)=O,didier14
n-HEPTANOIC ACID,382.0,1.0,CCCCCCC(=O)O,didier14
2-ETHOXYETHYL ACETATE,328.0,1.0,CCOCCOC(C)=O,didier14
PIMELIC ACID,488.0,1.0,O=C(O)CCCCCC(=O)O,didier14
SEBACIC ACID,496.0,1.0,O=C(O)CCCCCCCCC(=O)O,didier14
n-HEXYLAMINE,281.1,1.0,CCCCCCN,didier14
1-HEXANOL,333.0,1.0,CCCCCCO,didier14
"1,5-PENTANEDIOL",402.1,1.0,OCCCCCO,didier14
GLUTARALDEHYDE,355.0,1.0,O=CCCCC=O,didier14
n-HEXYL MERCAPTAN,293.1,1.0,CCCCCCS,didier14
BUTYL VINYL ETHER,272.0,1.0,C=COCCCC,didier14
DIETHYLENETRIAMINE,372.0,1.0,NCCNCCN,didier14
N-AMINOETHYL ETHANOLAMINE,375.0,1.0,NCCNCCO,didier14
DIETHANOLAMINE,425.0,1.0,OCCNCCO,didier14
DI(2-CHLOROETHYL)ETHER,328.1,1.0,ClCCOCCCl,didier14
DIETHYLENE GLYCOL,397.0,1.0,OCCOCCO,didier14
HYDROXYPIVALYL HYDROXYPIVALATE,426.0,1.0,CC(C)(CO)C(=O)OC(=O)C(C)(C)CO,didier14
ETHYLENE GLYCOL DIACETATE,361.1,1.0,CC(=O)OCCOC(C)=O,didier14
n-OCTANE,286.0,1.0,CCCCCCCC,didier14
1-OCTENE,281.0,1.0,C=CCCCCCC,didier14
HEPTANAL,308.1,1.0,CCCCCCC=O,didier14
2-BUTOXYETHANOL,333.1,1.0,CCCCOCCO,didier14
2-(2-METHOXYETHOXY)ETHANOL,357.0,1.0,COCCOCCO,didier14
n-NONANE,304.0,1.0,CCCCCCCCC,didier14
1-OCTANOL,357.0,1.0,CCCCCCCCO,didier14
2-(2-ETHOXYETHOXY)ETHANOL,356.4,1.0,CCOCCOCCO,didier14
DI-(2-CHLOROETHOXY)METHANE,383.1,1.0,ClCCOCOCCCl,didier14
DI-n-BUTYLAMINE,312.1,1.0,CCCCNCCCC,didier14
DIETHYLENE GLYCOL DIMETHYL ETHER,335.9,1.0,COCCOCCOC,didier14
"1,4-DICYANO-2-BUTENE",418.0,1.0,N#CCC=CCC#N,didier14
n-UNDECANE,338.1,1.0,CCCCCCCCCCC,didier14
ETHYLENE GLYCOL MONOBUTYL ETHER ACETATE,344.1,1.0,CCCCOCCOC(C)=O,didier14
n-OCTYL ACETATE,359.1,1.0,CCCCCCCCOC(C)=O,didier14
DIETHYLENE GLYCOL ETHYL ETHER ACETATE,380.0,1.0,CCOCCOCCOC(C)=O,didier14
n-DECYL ACETATE,377.0,1.0,CCCCCCCCCCOC(C)=O,didier14
TRIETHYLENETETRAMINE,408.1,1.0,NCCNCCNCCN,didier14
2-HEXOXYETHANOL,355.0,1.0,CCCCCCOCCO,didier14
TRIETHYLENE GLYCOL,429.1,1.0,OCCOCCOCCO,didier14
CYCLOPENTYLACETIC ACID,382.1,1.0,O=C(O)CC1CCCC1,didier14
1-DECANOL,355.4,1.0,CCCCCCCCCCO,didier14
DECANAL,358.1,1.0,CCCCCCCCCC=O,didier14
n-OCTYL FORMATE,337.0,1.0,CCCCCCCCOC=O,didier14
2-(2-BUTOXYETHOXY)ETHANOL,351.0,1.0,CCCCOCCOCCO,didier14
TRIETHYLENE GLYCOL MONOMETHYL ETHER,387.6,1.0,COCCOCCOCCO,didier14
DIETHYLENE GLYCOL DIETHYL ETHER,355.1,1.0,CCOCCOCCOCC,didier14
1-DODECENE,340.0,1.0,C=CCCCCCCCCCC,didier14
1-UNDECANOL,388.0,1.0,CCCCCCCCCCCO,didier14
UNDECANAL,369.1,1.0,CCCCCCCCCCC=O,didier14
"DECAN-1,10-DIOL",425.1,1.0,OCCCCCCCCCCO,didier14
TRIETHYLENE GLYCOL DIMETHYL ETHER,383.1,1.0,COCCOCCOCCOC,didier14
TRIETHYLENE GLYCOL MONOETHYL ETHER,408.1,1.0,CCOCCOCCOCCO,didier14
1-DODECANOL,398.0,1.0,CCCCCCCCCCCCO,didier14
DODECANAL,374.1,1.0,CCCCCCCCCCCC=O,didier14
TETRAETHYLENEPENTAMINE,436.0,1.0,NCCNCCNCCNCCN,didier14
2-(2-HEXOXYETHOXY)ETHANOL,408.1,1.0,CCCCCCOCCOCCO,didier14
TETRAETHYLENE GLYCOL,469.0,1.0,OCCOCCOCCOCCO,didier14
1-TETRADECANOL,416.0,1.0,CCCCCCCCCCCCCCO,didier14
DIETHYLENE GLYCOL DI-n-BUTYL ETHER,391.1,1.0,CCCCOCCOCCOCCCC,didier14
1-ETHYLNAPHTHALENE,384.1,1.0,CCc1cccc2ccccc12,didier14
1-OCTADECENE,421.1,1.0,C=CCCCCCCCCCCCCCCCC,didier14
"2,6-NAPHTHALENEDICARBOXYLIC ACID",544.0,1.0,O=C(O)c1ccc2cc(C(=O)O)ccc2c1,didier14
PROPYLENE,165.0,1.0,C=CC,didier14
PENTAERYTHRITOL,533.1,1.0,OCC(CO)(CO)CO,didier14
DIOCTYL PHTHALATE,489.0,1.0,CCCCCCCCOC(=O)c1ccccc1C(=O)OCCCCCCCC,didier14
"2,2,3,4-TETRAMETHYLPENTANE",284.0,1.0,CC(C)C(C)C(C)(C)C,didier14
o-CHLOROBENZOIC ACID,435.0,1.0,O=C(O)c1ccccc1Cl,didier14
2-HYDROXYACETOPHENONE,371.1,1.0,O=C(CO)c1ccccc1,didier14
6-HYDROXYHEXANOIC ACID,444.0,1.0,O=C(O)CCCCCO,didier14
PENTAETHYLENE GLYCOL DIMETHYL ETHER,468.0,1.0,COCCOCCOCCOCCOCCOC,didier14
METHYL SALICYLATE,369.0,1.0,COC(=O)c1ccccc1O,didier14
ISOQUINOLINE,380.1,1.0,c1ccc2cnccc2c1,didier14
2-FORMYL BENZOIC ACID,436.0,1.0,O=Cc1ccccc1C(=O)O,didier14
DIMETHYL TEREPHTHALATE,414.1,1.0,COC(=O)c1ccc(C(=O)OC)cc1,didier14
"1,2-BENZENEDIOL",400.0,1.0,Oc1ccccc1O,didier14
"1,2,4-TRICHLOROBENZENE",378.7,1.0,Clc1ccc(Cl)c(Cl)c1,didier14
ETHYL VANILLIN,445.0,1.0,CCOc1cc(C=O)ccc1O,didier14
VANILLIN,432.0,1.0,COc1cc(C=O)ccc1O,didier14
TRIETHYLAMINE,258.1,1.0,CCN(CC)CC,didier14
"N,N-DIMETHYLANILINE",335.1,1.0,CN(C)c1ccccc1,didier14
m-CHLORONITROBENZENE,400.1,1.0,O=[N+]([O-])c1cccc(Cl)c1,didier14
ISOPHTHALIC ACID,601.0,1.0,O=C(O)c1cccc(C(=O)O)c1,didier14
HYDRAZOBENZENE,503.0,1.0,c1ccc(NNc2ccccc2)cc1,didier14
p-ETHYLPHENOL,373.1,1.0,CCc1ccc(O)cc1,didier14
p-HYDROXYBENZALDEHYDE,445.0,1.0,O=Cc1ccc(O)cc1,didier14
4-HEPTANONE,321.1,1.0,CCCC(=O)CCC,didier14
DIETHYL SUCCINATE,363.0,1.0,CCOC(=O)CCC(=O)OCC,didier14
PROPANAL,243.2,1.0,CCC=O,didier14
N-METHYLFORMAMIDE,376.0,1.0,CNC=O,didier14
DIACETONE ALCOHOL,331.0,1.0,CC(=O)CC(C)(C)O,didier14
3-METHYL-1-BUTANOL,316.0,1.0,CC(C)CCO,didier14
ACETYLACETONE,307.1,1.0,CC(=O)CC(C)=O,didier14
BUTANAL,262.1,1.0,CCCC=O,didier14
LEVULINIC ACID,410.0,1.0,CC(=O)CCC(=O)O,didier14
DIOCTYL ADIPATE,500.1,1.0,CCCCCCCCOC(=O)CCCCC(=O)OCCCCCCCC,didier14
n-BUTYL ACETATE,295.0,1.0,CCCCOC(C)=O,didier14
n-BUTYL STEARATE,433.1,1.0,CCCCCCCCCCCCCCCCCC(=O)OCCCC,didier14
2-OCTANOL,344.3,1.0,CCCCCCC(C)O,didier14
AZELAIC ACID,492.0,1.0,O=C(O)CCCCCCCC(=O)O,didier14
n-OCTANOIC ACID,393.0,1.0,CCCCCCCC(=O)O,didier14
HEXAMETHYLENEDIAMINE,366.0,1.0,NCCCCCCN,didier14
1-NONENE,295.0,1.0,C=CCCCCCCC,didier14
OCTANAL,324.1,1.0,CCCCCCCC=O,didier14
DIETHYLENE GLYCOL MONOBUTYL ETHER ACETATE,375.1,1.0,CCCCOCCOCCOC(C)=O,didier14
n-DECANE,319.0,1.0,CCCCCCCCCC,didier14
NONANAL,336.1,1.0,CCCCCCCCC=O,didier14
DIMETHYLAMINE,223.2,1.0,CNC,didier14
NEOPENTYL GLYCOL,371.1,1.0,CC(C)(CO)CO,didier14
PYRUVIC ACID,355.1,1.0,CC(=O)C(=O)O,didier14
"N,N-DIMETHYLACETAMIDE",336.1,1.0,CC(=O)N(C)C,didier14
PYRENE,472.0,1.0,c1cc2ccc3cccc4ccc(c1)c2c34,didier14
DIMETHYL PHTHALATE,419.0,1.0,COC(=O)c1ccccc1C(=O)OC,didier14
DI-n-PROPYL PHTHALATE,433.0,1.0,CCCOC(=O)c1ccccc1C(=O)OCCC,didier14
trans-3-HEXENE,261.1,1.0,CC/C=C/CC,didier14
DIPROPYLENE GLYCOL t-BUTYL ETHER,392.0,1.0,CC(CO)OCC(C)OC(C)(C)C,didier14
1-PENTADECENE,385.0,1.0,C=CCCCCCCCCCCCCC,didier14
trans-2-OCTENE,294.3,1.0,C/C=C/CCCCC,didier14
o-DIETHYLBENZENE,330.4,1.0,CCc1ccccc1CC,didier14
sec-BUTYLBENZENE,325.0,1.0,CCC(C)c1ccccc1,didier14
2-METHYL-1-BUTANOL,316.1,1.0,CCC(C)CO,didier14
ACETOXYACETIC ACID,440.0,1.0,CC(=O)OCC(=O)O,didier14
sec-BUTYLAMINE,244.3,1.0,CCC(C)N,didier14
"trans-1,4-DIETHYLCYCLOHEXANE",320.0,1.0,CC[C@H]1CC[C@H](CC)CC1,didier14
DIETHYL MALEATE,366.1,1.0,CCOC(=O)/C=C\C(=O)OCC,didier14
MONOETHANOLAMINE,358.1,1.0,NCCO,didier14
GLYCOL ALDEHYDE,360.0,1.0,O=CCO,didier14
ETHYL ACETATE,269.0,1.0,CCOC(C)=O,didier14
MALONIC ACID,496.0,1.0,O=C(O)CC(=O)O,didier14
m-DIETHYLBENZENE,329.0,1.0,CCc1cccc(CC)c1,didier14
ETHYL ACETOACETATE,330.4,1.0,CCOC(=O)CC(C)=O,didier14
"1,3-DICHLOROPROPANE",294.1,1.0,ClCCCCl,didier14
n-HEXANOIC ACID,375.0,1.0,CCCCCC(=O)O,didier14
n-HEPTANE,269.0,1.0,CCCCCCC,didier14
DI-n-PROPYLAMINE,290.1,1.0,CCCNCCC,didier14
n-DODECANOIC ACID,430.0,1.0,CCCCCCCCCCCC(=O)O,didier14
1-NONANOL,368.0,1.0,CCCCCCCCCO,didier14
n-NONYL ACETATE,372.1,1.0,CCCCCCCCCOC(C)=O,didier14
TRIETHYLENE GLYCOL n-BUTYL ETHER,416.0,1.0,CCCCOCCOCCOCCO,didier14
TETRAETHYLENE GLYCOL DIMETHYL ETHER,414.1,1.0,COCCOCCOCCOCCOC,didier14
"2,2,4-TRIMETHYL-1,3-PENTANEDIOL",383.1,1.0,CC(C)C(O)C(C)(C)CO,didier14
DIMETHYL ISOPHTHALATE,411.1,1.0,COC(=O)c1cccc(C(=O)OC)c1,didier14
trans-2-HEPTENE,272.0,1.0,C/C=C/CCCC,didier14
trans-3-HEPTENE,267.1,1.0,CC/C=C/CCC,didier14
"1,4-DICHLORO-cis-2-BUTENE",323.0,1.0,ClC/C=C\CCl,didier14
8-HYDROXYQUINOLINE,404.0,1.0,Oc1cccc2cccnc12,didier14
cis-3-OCTENE,290.0,1.0,CC/C=C\CCCC,didier14
trans-4-OCTENE,281.0,1.0,CCC/C=C/CCC,didier14
trans-3-OCTENE,282.0,1.0,CC/C=C/CCCC,didier14
"2-METHYL-1,3-PENTANEDIOL",394.0,1.0,CCC(O)C(C)CO,didier14
2-ETHYL HEXANOIC ACID,387.1,1.0,CCCCC(CC)C(=O)O,didier14
p-METHOXYPHENOL,398.0,1.0,COc1ccc(O)cc1,didier14
TRI-n-HEPTYL TRIMELLITATE,546.0,1.0,CCCCCCCOC(=O)c1ccc(C(=O)OCCCCCCC)c(C(=O)OCCCCCCC)c1,didier14
TETRAETHYLENE GLYCOL MONOBUTYL ETHER,436.0,1.0,CCCCOCCOCCOCCOCCO,didier14
ETHYLENE GLYCOL 2-ETHYLHEXYL ETHER,383.1,1.0,CCCCC(CC)COCCO,didier14
"cis-1,2-DICHLOROETHYLENE",277.0,1.0,Cl/C=C\Cl,didier14
"trans-1,2-DICHLOROETHYLENE",275.0,1.0,Cl/C=C/Cl,didier14
3-AMINO-1-PROPANOL,352.6,1.0,NCCCO,didier14
PROPYLENE GLYCOL n-PROPYL ETHER,321.1,1.0,CCCOCC(C)O,didier14
1-ETHOXY-2-PROPANOL,315.1,1.0,CCOCC(C)O,didier14
CYCLOHEXYL MERCAPTAN,316.1,1.0,SC1CCCCC1,didier14
METHYL-4-FORMYLBENZOATE,403.0,1.0,COC(=O)c1ccc(C=O)cc1,didier14
3-ETHYLHEPTANE,295.0,1.0,CCCCC(CC)CC,didier14
5-METHYLNONANE,311.0,1.0,CCCCC(C)CCCC,didier14
METHYL tert-BUTYL ETHER,240.2,1.0,COC(C)(C)C,didier14
1-n-BUTYLNAPHTHALENE,401.0,1.0,CCCCc1cccc2ccccc12,didier14
"1,1-DIMETHYLCYCLOPENTANE",257.0,1.0,CC1(C)CCCC1,didier14
n-HEPTYL MERCAPTAN,319.1,1.0,CCCCCCCS,didier14
ETHYLCYCLOPENTANE,269.0,1.0,CCC1CCCC1,didier14
BIS(CYANOETHYL)ETHER,445.0,1.0,N#CCCOCCC#N,didier14
"2,4,4-TRIMETHYLHEXANE",283.0,1.0,CCC(C)(C)CC(C)C,didier14
"2,3,3,4-TETRAMETHYLPENTANE",304.0,1.0,CC(C)C(C)(C)C(C)C,didier14
1-METHYL-1-ETHYLCYCLOPENTANE,279.0,1.0,CCC1(C)CCCC1,didier14
ETHYLCYCLOHEXANE,295.1,1.0,CCC1CCCCC1,didier14
n-PROPYLCYCLOHEXANE,304.0,1.0,CCCC1CCCCC1,didier14
n-BUTYLCYCLOHEXANE,321.0,1.0,CCCCC1CCCCC1,didier14
4-METHYLNONANE,311.0,1.0,CCCCCC(C)CCC,didier14
n-DECYLCYCLOHEXANE,404.0,1.0,CCCCCCCCCCC1CCCCC1,didier14
1-TRIACONTENE,517.0,1.0,C=CCCCCCCCCCCCCCCCCCCCCCCCCCCCC,didier14
2-(2-PENTOXYETHOXY)ETHANOL,383.0,1.0,CCCCCOCCOCCO,didier14
"1,2-BENZENEDICARBOXYLIC ACID, HEPTYL, NONYL ESTER",500.0,1.0,CCCCCCCCCOC(=O)c1ccccc1C(=O)OCCCCCCC,didier14
n-BUTYLCYCLOPENTANE,305.0,1.0,CCCCC1CCCC1,didier14
n-PROPYLCYCLOPENTANE,288.0,1.0,CCCC1CCCC1,didier14
DIMERCAPTOETHYL ETHER,371.1,1.0,SC(S)COCC(S)S,didier14
"2-METHYL-1,3-PROPANEDIOL",386.0,1.0,CC(CO)CO,didier14
CHRYSENE,510.0,1.0,c1ccc2c(c1)ccc1c3ccccc3ccc21,didier14
"trans-3,5-DIMETHOXYSTILBENE",489.0,1.0,COc1cc(/C=C/c2ccccc2)cc(OC)c1,didier14
3-METHYLOCTANE,297.0,1.0,CCCCCC(C)CC,didier14
4-METHYLOCTANE,295.0,1.0,CCCCC(C)CCC,didier14
ETHYLENE GLYCOL DIACRYLATE,373.1,1.0,C=CC(=O)OCCOC(=O)C=C,didier14
tert-BUTYLFORMAMIDE,368.1,1.0,CC(C)(C)NC=O,didier14
DIPROPYL MALEATE,391.0,1.0,CCCOC(=O)/C=C\C(=O)OCCC,didier14
AMINOCAPRONITRILE,378.0,1.0,CCCCC(N)C#N,didier14
"BENZENE-1,2,4-TRICARBOXYLIC ACID TRIMETHYL ESTER",468.0,1.0,COC(=O)c1ccc(C(=O)OC)c(C(=O)OC)c1,didier14
ACRYLOXY PROPIONIC ACID,419.0,1.0,C=CC(=O)OC(C)C(=O)O,didier14
TRIPROPYLENE GLYCOL,413.1,1.0,CC(O)COC(C)COC(C)CO,didier14
DIPROPYLENE GLYCOL,391.0,1.0,CC(O)COC(C)CO,didier14
TRIPROPYLENE GLYCOL MONOMETHYL ETHER,384.0,1.0,COC(C)COC(C)COC(C)CO,didier14
4-HYDROXYBUTYRALDEHYDE,346.0,1.0,O=CCCCO,didier14
ACRIDINE,445.0,1.0,c1ccc2nc3ccccc3cc2c1,didier14
1-n-NONYLNAPHTHALENE,449.0,1.0,CCCCCCCCCc1cccc2ccccc12,didier14
1-n-DECYLNAPHTHALENE,458.0,1.0,CCCCCCCCCCc1cccc2ccccc12,didier14
DIISODECYL PHTHALATE,505.4,1.0,CC(C)CCCCCCCOC(=O)c1ccccc1C(=O)OCCCCCCCC(C)C,didier14
DIISOOCTYL PHTHALATE,504.0,1.0,CC(C)CCCCCOC(=O)c1ccccc1C(=O)OCCCCCC(C)C,didier14
1-n-PROPYLNAPHTHALENE,387.0,1.0,CCCc1cccc2ccccc12,didier14
ETHYLENE GLYCOL MONOPROPYL ETHER,322.1,1.0,CCCOCCO,didier14
ADAMANTANE,316.0,1.0,C1C2CC3CC1CC(C2)C3,didier14
DIISONONYL PHTHALATE,489.0,1.0,CC(C)CCCCCCOC(=O)c1ccccc1C(=O)OCCCCCCC(C)C,didier14
1-n-HEXYLNAPHTHALENE,425.0,1.0,CCCCCCc1cccc2ccccc12,didier14
CYCLOPENTANE,233.0,1.0,C1CCCC1,didier14
PYRIDAZINE,358.1,1.0,c1ccnnc1,didier14
DIPROPYLENE GLYCOL n-PROPYL ETHER,370.9,1.0,CCCOC(C)COC(C)CO,didier14
DIPROPYLENE GLYCOL MONOETHYL ETHER,364.0,1.0,CCOC(C)COC(C)CO,didier14
4-HYDROXYMETHYL BENZOIC ACID,495.0,1.0,O=C(O)c1ccc(CO)cc1,didier14
HYDRAZINE,311.0,1.0,NN,didier14
"1,2,4-BUTANETRIOL",440.0,1.0,OCCC(O)CO,didier14
ETHYLBENZENE HYDROPEROXIDE,414.0,1.0,CCc1ccccc1.[O-]O,didier14
2-METHYLOCTANE,296.0,1.0,CCCCCCC(C)C,didier14
n-DECANOIC ACID,412.0,1.0,CCCCCCCCCC(=O)O,didier14
3-METHYL-1-HEXENE,267.1,1.0,C=CC(C)CCC,didier14
DIPROPYLENE GLYCOL MONOMETHYL ETHER,347.1,1.0,COC(C)COC(C)CO,didier14
"2,2,5-TRIMETHYLHEXANE",286.0,1.0,CC(C)CCC(C)(C)C,didier14
DI-n-UNDECYL PHTHALATE,535.0,1.0,CCCCCCCCCCCOC(=O)c1ccccc1C(=O)OCCCCCCCCCCC,didier14
DI-n-HEPTYL PHTHALATE,485.0,1.0,CCCCCCCOC(=O)c1ccccc1C(=O)OCCCCCCC,didier14
"1,2,3,4-TETRAMETHYLCYCLOHEXANE",319.0,1.0,CC1CCC(C)C(C)C1C,didier14
6-AMINOHEXANAMIDE,444.0,1.0,NCCCCCC(N)=O,didier14
3-HYDROXY-2-METHYL PROPIONALDEHYDE,352.0,1.0,CC(C=O)CO,didier14
ISOPROPYLCYCLOPENTANE,283.0,1.0,CC(C)C1CCCC1,didier14
1-ISOPROPOXY-2-PROPANOL,309.0,1.0,CC(O)COC(C)C,didier14
ALLYL-TERT-BUTYLPEROXIDE,286.0,1.0,C=CCOOC(C)(C)C,didier14
6-AMINOHEXANOL,390.0,1.0,NCCCCCCO,didier14
"N,N'-DI-tert-BUTYLETHYLENEDIAMINE",334.0,1.0,CC(C)(C)NCCNC(C)(C)C,didier14
CYCLOHEXYL FORMATE,324.1,1.0,O=COC1CCCCC1,didier14
"1,2,3-BUTANETRIOL",474.0,1.0,CC(O)C(O)CO,didier14
CYANOGEN,204.0,1.0,N#CC#N,didier14
"1,5-PENTANEDIAMINE",335.1,1.0,NCCCCCN,didier14
DI-n-OCTYL TEREPHTHALATE,507.0,1.0,CCCCCCCCOC(=O)c1ccc(C(=O)OCCCCCCCC)cc1,didier14
n-BUTYLHYDROPEROXIDE,325.0,1.0,CCCCOO,didier14
"1,2,3,4-TETRAMETHYLBENZENE",341.1,1.0,Cc1ccc(C)c(C)c1C,didier14
CITRACONIC ACID,493.0,1.0,C/C(=C/C(=O)O)C(=O)O,didier14
FORMALDEHYDE,206.0,1.0,C=O,didier14
LACTIC ACID,410.0,1.0,CC(O)C(=O)O,didier14
5-NONANONE,333.1,1.0,CCCCC(=O)CCCC,didier14
ISOVALERIC ACID,350.0,1.0,CC(C)CC(=O)O,didier14
SUBERIC ACID,489.0,1.0,O=C(O)CCCCCCC(=O)O,didier14
ACETYLSALICYLIC ACID,436.0,1.0,CC(=O)Oc1ccccc1C(=O)O,didier14
2-METHYL-2-BUTENE,228.2,1.0,CC=C(C)C,didier14
ISOBUTYL MERCAPTAN,264.1,1.0,CC(C)CS,didier14
"2,3-BUTANEDIOL",358.1,1.0,CC(O)C(C)O,didier14
"1,2,3-TRIMETHYLBENZENE",317.1,1.0,Cc1cccc(C)c1C,didier14
"2,3-XYLENOL",365.0,1.0,Cc1cccc(O)c1C,didier14
TRIMELLITIC ACID,550.0,1.0,O=C(O)c1ccc(C(=O)O)c(C(=O)O)c1,didier14
"1,1-DIMETHOXYETHANE",256.1,1.0,COC(C)OC,didier14
n-PENTYLBENZENE,338.1,1.0,CCCCCc1ccccc1,didier14
AMINOACETONITRILE,339.0,1.0,N#CCN,didier14
"1,2-ETHANEDITHIOL",317.1,1.0,SCCS,didier14
m-DICHLOROBENZENE,345.0,1.0,Clc1cccc(Cl)c1,didier14
ETHYLIDENE DIACETATE,337.0,1.0,CC(=O)OC(C)OC(C)=O,didier14
ISOBUTYL FORMATE,277.0,1.0,CC(C)COC=O,didier14
2-HEPTANOL,332.1,1.0,CCCCCC(C)O,didier14
1-CHLOROPENTANE,286.0,1.0,CCCCCCl,didier14
GLUTARONITRILE,417.0,1.0,N#CCCCC#N,didier14
n-HEXADECANE,408.1,1.0,CCCCCCCCCCCCCCCC,didier14
METHYL ISOBUTYRATE,276.1,1.0,COC(=O)C(C)C,didier14
METHYL LACTATE,322.1,1.0,COC(=O)C(C)O,didier14
PROPYLENE GLYCOL ETHYL ETHER ACETATE,327.0,1.0,CCOCC(C)OC(C)=O,didier14
BENZAMIDE,430.0,1.0,NC(=O)c1ccccc1,didier14
METHYL PROPIONATE,271.0,1.0,CCC(=O)OC,didier14
"3,3-DIMETHYL-1-BUTENE",245.2,1.0,C=CC(C)(C)C,didier14
"2,3,3-TRIMETHYLPENTANE",273.0,1.0,CCC(C)(C)C(C)C,didier14
3-METHYL-1-BUTENE,217.2,1.0,C=CC(C)C,didier14
"2,3-DIMETHYL-2-BUTENE",257.1,1.0,CC(C)=C(C)C,didier14
METHYL ISOPROPYL KETONE,279.1,1.0,CC(=O)C(C)C,didier14
"2,2,3-TRIMETHYLPENTANE",270.0,1.0,CCC(C)C(C)(C)C,didier14
BENZANTHRACENE,508.0,1.0,c1ccc2cc3c(ccc4ccccc43)cc2c1,didier14
3-METHYL-2-PENTANONE,285.1,1.0,CCC(C)C(C)=O,didier14
ETHYL ISOPROPYL KETONE,286.1,1.0,CCC(=O)C(C)C,didier14
"2,3,4-TRIMETHYLPENTANE",273.0,1.0,CC(C)C(C)C(C)C,didier14
DIISOPROPYL KETONE,288.1,1.0,CC(C)C(=O)C(C)C,didier14
n-OCTADECANOIC ACID,476.1,1.0,CCCCCCCCCCCCCCCCCC(=O)O,didier14
"1,2-PROPYLENE GLYCOL",372.0,1.0,CC(O)CO,didier14
"2,6-XYLENOL",346.1,1.0,Cc1cccc(C)c1O,didier14
"2,6-DIMETHYLNAPHTHALENE",381.0,1.0,Cc1ccc2cc(C)ccc2c1,didier14
"2,7-DIMETHYLNAPHTHALENE",382.0,1.0,Cc1ccc2ccc(C)cc2c1,didier14
"3,4-DIMETHYLHEXANE",277.0,1.0,CCC(C)C(C)CC,didier14
3-PENTANOL,300.0,1.0,CCC(O)CC,didier14
"1,2-BUTANEDIOL",363.1,1.0,CCC(O)CO,didier14
METHOXYACETONE,293.0,1.0,COCC(C)=O,didier14
1-tert-BUTOXY-2-[2-(HYDROXY)PROPOXY]PROPANE,400.0,1.0,CC(O)COC(C)COC(C)(C)C,didier14
3-METHYL-1-PENTANOL,331.1,1.0,CCC(C)CCO,didier14
"2,4-DIMETHYLHEXANE",283.1,1.0,CCC(C)CC(C)C,didier14
4-METHYLHEPTANE,279.1,1.0,CCCC(C)CCC,didier14
3-METHYLHEPTANE,279.0,1.0,CCCCC(C)CC,didier14
n-BUTYL PROPIONATE,305.4,1.0,CCCCOC(=O)CC,didier14
"1,1-DIMETHYLCYCLOHEXANE",276.0,1.0,CC1(C)CCCCC1,didier14
1-METHYLCYCLOHEXANOL,338.1,1.0,CC1(O)CCCCC1,didier14
3-METHYLNONANE,311.0,1.0,CCCCCCC(C)CC,didier14
2-HEXANONE,296.1,1.0,CCCCC(C)=O,didier14
ALLYL ACETATE,295.4,1.0,C=CCOC(C)=O,didier14
"2,5-DIMETHYLHEXANE",271.0,1.0,CC(C)CCC(C)C,didier14
2-METHYLHEPTANE,277.1,1.0,CCCCCC(C)C,didier14
1-HEXENE,242.0,1.0,C=CCCCC,didier14
1-HEPTENE,265.1,1.0,C=CCCCCC,didier14
n-HEPTACOSANE,475.0,1.0,CCCCCCCCCCCCCCCCCCCCCCCCCCC,didier14
alpha-HYDROXYISOBUTYRIC ACID,396.0,1.0,CC(C)(O)C(=O)O,didier14
NEOHEXANOIC ACID,352.1,1.0,CC(C)(C)CC(=O)O,didier14
3-METHYL-2-BUTANOL,299.1,1.0,CC(C)C(C)O,didier14
"2,6-DIETHYLNAPHTHALENE",410.0,1.0,CCc1ccc2cc(CC)ccc2c1,didier14
p-AMINOAZOBENZENE,466.0,1.0,Nc1ccc(N=Nc2ccccc2)cc1,didier14
2-MERCAPTOETHANOL,340.1,1.0,OCCS,didier14
DIETHYL ETHER,228.2,1.0,CCOCC,didier14
2-PENTANOL,307.0,1.0,CCCC(C)O,didier14
ACETAMIDE,398.0,1.0,CC(N)=O,didier14
1-PHENYLNAPHTHALENE,435.0,1.0,c1ccc(-c2cccc3ccccc23)cc1,didier14
"2,6-DINITROTOLUENE",417.0,1.0,Cc1c([N+](=O)[O-])cccc1[N+](=O)[O-],didier14
2-METHYL-1-HEXENE,267.1,1.0,C=C(C)CCCC,didier14
"3,4-DINITROTOLUENE",453.0,1.0,Cc1ccc([N+](=O)[O-])c([N+](=O)[O-])c1,didier14
o-ETHYLTOLUENE,312.1,1.0,CCc1ccccc1C,didier14
"cis-2-BUTENE-1,4-DIOL",401.1,1.0,OC/C=C\CO,didier14
"1,2-DICHLOROBUTANE",297.0,1.0,CCC(Cl)CCl,didier14
"2,3-DICHLORO-1-PROPANOL",365.0,1.0,OCC(Cl)CCl,didier14
METHYL t-BUTYL SULFIDE,270.1,1.0,CSC(C)(C)C,didier14
DIMETHYL CARBONATE,289.9,1.0,COC(=O)OC,didier14
m-CHLOROBENZOYL CHLORIDE,372.0,1.0,O=C(Cl)c1cccc(Cl)c1,didier14
"3,5-DINITROTOLUENE",443.0,1.0,Cc1cc([N+](=O)[O-])cc([N+](=O)[O-])c1,didier14
"2,5-DINITROTOLUENE",438.0,1.0,Cc1cc([N+](=O)[O-])ccc1[N+](=O)[O-],didier14
2-PENTOXYETHANOL,347.0,1.0,CCCCCOCCO,didier14
4-CARBOXYBENZALDEHYDE,548.0,1.0,O=Cc1ccc(C(=O)O)cc1,didier14
"1,4-CYCLOHEXANEDICARBOXYLIC ACID",508.1,1.0,O=C(O)C1CCC(C(=O)O)CC1,didier14
3-ETHYLHEXANE,279.0,1.0,CCCC(CC)CC,didier14
m-ETHYLTOLUENE,311.1,1.0,CCc1cccc(C)c1,didier14
CYCLOHEXYL ACETATE,330.1,1.0,CC(=O)OC1CCCCC1,didier14
p-ETHYLTOLUENE,309.1,1.0,CCc1ccc(C)cc1,didier14
METHYL n-BUTYRATE,287.0,1.0,CCCC(=O)OC,didier14
DIMETHYL MALEATE,386.1,1.0,COC(=O)/C=C\C(=O)OC,didier14
METHYL ETHYL SULFIDE,258.1,1.0,CCSC,didier14
ANILINE,343.1,1.0,Nc1ccccc1,didier14
METHOXYACETIC ACID,388.0,1.0,COCC(=O)O,didier14
"2,4-PENTANEDIOL",374.1,1.0,CC(O)CC(C)O,didier14
2-HEXANOL,319.3,1.0,CCCCC(C)O,didier14
1-NITROBUTANE,320.1,1.0,CCCC[N+](=O)[O-],didier14
1-CHLORO-3-PROPANOL,346.1,1.0,OCCCCl,didier14
HEXANAMIDE,410.0,1.0,CCCCCC(N)=O,didier14
METHYL n-BUTYL SULFIDE,289.0,1.0,CCCCSC,didier14
ETHYL PROPYL ETHER,247.0,1.0,CCCOCC,didier14
n-PENTYL ACETATE,296.1,1.0,CCCCCOC(C)=O,didier14
HEXANENITRILE,320.0,1.0,CCCCCC#N,didier14
"2,2'-IMINOBIS-ACETONITRILE",413.0,1.0,N#CCNCC#N,didier14
"1,2-DIETHOXYETHANE",300.1,1.0,CCOCCOCC,didier14
n-TRIDECANE,352.0,1.0,CCCCCCCCCCCCC,didier14
n-TETRADECANE,373.1,1.0,CCCCCCCCCCCCCC,didier14
1-HEXADECENE,405.1,1.0,C=CCCCCCCCCCCCCCC,didier14
n-HEPTADECANE,421.1,1.0,CCCCCCCCCCCCCCCCC,didier14
n-NONADECANE,441.0,1.0,CCCCCCCCCCCCCCCCCCC,didier14
n-OCTACOSANE,475.0,1.0,CCCCCCCCCCCCCCCCCCCCCCCCCCCC,didier14
n-NONACOSANE,475.0,1.0,CCCCCCCCCCCCCCCCCCCCCCCCCCCCC,didier14
"1,1,1,2-TETRACHLOROETHANE",334.0,1.0,ClCC(Cl)(Cl)Cl,didier14
n-TRIACONTANE,475.0,1.0,CCCCCCCCCCCCCCCCCCCCCCCCCCCCCC,didier14
ETHANOL,286.0,1.0,CCO,didier14
ACETIC ACID,316.0,1.0,CC(=O)O,didier14
cis-2-HEPTENE,265.0,1.0,C/C=C\CCCC,didier14
trans-2-PENTENE,225.0,1.0,C/C=C/CC,didier14
n-NONYL n-UNDECYL PHTHALATE,524.0,1.0,CCCCCCCCCCCOC(=O)c1ccccc1C(=O)OCCCCCCCCC,didier14
BENZOIC ACID,394.3,1.0,O=C(O)c1ccccc1,didier14