compound,flashpoint,pure substance,smiles,source
but-2-enoic acid,361.15,1,CC=CC(=O)O,pubchem
"1,3-dichlorobut-2-ene",300.15,1,CC(=CCCl)Cl,pubchem
"3,7-dimethylocta-2,6-dienal",375.15,1,CC(=CCCC(=CC=O)C)C,pubchem
"cyclododeca-1,5,9-triene",344.15,1,C1CC=CCCC=CCCC=C1,pubchem
"1,2-dichloroethene",277.15,1,C(=CCl)Cl,pubchem
"1,4-dichlorobut-2-ene",326.15,1,C(C=CCCl)Cl,pubchem
"hexa-2,4-dienoic acid",400.15,1,CC=CC=CC(=O)O,pubchem
"(2E)-3,7-dimethylocta-2,6-dien-1-ol",381.15,1,CC(=CCCC(=CCO)C)C,pubchem
"4,4a-dimethyl-6-prop-1-en-2-yl-3,4,5,6,7,8-hexahydronaphthalen-2-one",373.15,1,CC1CC(=O)C=C2C1(CC(CC2)C(=C)C)C,pubchem
3-methyl-2-pent-2-enylcyclopent-2-en-1-one,380.15,1,CCC=CCC1=C(CCC1=O)C,pubchem
"2,3-dichloro-4-oxobut-2-enoic acid",373.15,1,C(=O)C(=C(C(=O)O)Cl)Cl,pubchem
"(4R,5R)-5-(4-chlorophenyl)-N-cyclohexyl-4-methyl-2-oxo-1,3-thiazolidine-3-carboxamide",373.15,1,CC1C(SC(=O)N1C(=O)NC2CCCCC2)C3=CC=C(C=C3)Cl,pubchem
3-phenylprop-2-en-1-ol,399.15,1,C1=CC=C(C=C1)C=CCO,pubchem
hex-3-en-1-ol,403.15,1,CCC=CCCO,pubchem
"(2-methyl-3-phenylphenyl)methyl 3-(2-chloro-3,3,3-trifluoroprop-1-enyl)-2,2-dimethylcyclopropane-1-carboxylate",438.15,1,CC1=C(C=CC=C1COC(=O)C2C(C2(C)C)C=C(C(F)(F)F)Cl)C3=CC=CC=C3,pubchem
"4-(2,6,6-trimethylcyclohex-2-en-1-yl)but-3-en-2-one",391.15,1,CC1=CCCC(C1C=CC(=O)C)(C)C,pubchem
"S-(2,3-dichloroprop-2-enyl) N,N-di(propan-2-yl)carbamothioate",369.15,1,CC(C)N(C(C)C)C(=O)SCC(=CCl)Cl,pubchem
(E)-but-2-ene,262.15,1,CC=CC,pubchem
N-butan-2-ylidenehydroxylamine,332.15,1,CCC(=NO)C,pubchem
N-butylidenehydroxylamine,331.15,1,CCCC=NO,pubchem
2-ethylhex-2-enal,341.15,1,CCCC=C(CC)C=O,pubchem
2-methyl-3-phenylprop-2-enal,352.15,1,CC(=CC1=CC=CC=C1)C=O,pubchem
acetyloxymethylimino-methyl-oxidoazanium,372.15,1,CC(=O)OCN=[N+](C)[O-],pubchem
non-2-ene,299.15,1,CCCCCCC=CC,pubchem
5-ethylidenebicyclo[2.2.1]hept-2-ene,299.15,1,CC=C1CC2CC1C=C2,pubchem
"1,2,3-trichloroprop-1-ene",358.15,1,C(C(=CCl)Cl)Cl,pubchem
"but-1-ene-1,4-diol",401.15,1,C(CO)C=CO,pubchem
(2-bromo-2-nitroethenyl)benzene,327.15,1,C1=CC=C(C=C1)C=C([N+](=O)[O-])Br,pubchem
"[(S)-cyano-(3-phenoxyphenyl)methyl] (1R,3S)-2,2-dimethyl-3-(1,2,2,2-tetrabromoethyl)cyclopropane-1-carboxylate",299.15,1,CC1(C(C1C(=O)OC(C#N)C2=CC(=CC=C2)OC3=CC=CC=C3)C(C(Br)(Br)Br)Br)C,pubchem
"(2-methyl-4-oxo-3-prop-2-ynylcyclopent-2-en-1-yl) (1S,3S)-2,2-dimethyl-3-(2-methylprop-1-enyl)cyclopropane-1-carboxylate",412.15,1,CC1=C(C(=O)CC1OC(=O)C2C(C2(C)C)C=C(C)C)CC#C,pubchem
"1,3,4,7,8,9,10,10-octachlorotricyclo[5.2.1.02,6]dec-8-ene",380.15,1,C1C2C(C(C1Cl)Cl)C3(C(=C(C2(C3(Cl)Cl)Cl)Cl)Cl)Cl,pubchem
"3,4,5,6,13,13-hexachloro-10-oxapentacyclo[6.3.1.13,6.02,7.09,11]tridec-4-ene",300.15,1,C1C2C3C(C1C4C2O4)C5(C(=C(C3(C5(Cl)Cl)Cl)Cl)Cl)Cl,pubchem
zinc;manganese(2+);N-[2-(sulfidocarbothioylamino)ethyl]carbamodithioate,411.15,1,C(CNC(=S)[S-])NC(=S)[S-].C(CNC(=S)[S-])NC(=S)[S-].[Mn+2].[Zn+2],pubchem
"cyclopenta-1,3-diene;nickel(2+)",277.15,1,[CH-]1C=CC=C1.[CH-]1C=CC=C1.[Ni+2],pubchem
"tricyclo[5.2.1.02,6]deca-3,8-diene",305.15,1,C1C=CC2C1C3CC2C=C3,pubchem
"[2,3-dihydroxy-5-[[(2R,3R,4S,5R,6S)-3,4,5,6-tetrakis[[3,4-dihydroxy-5-(3,4,5-trihydroxybenzoyl)oxybenzoyl]oxy]oxan-2-yl]methoxycarbonyl]phenyl] 3,4,5-trihydroxybenzoate",472.15,1,C1=C(C=C(C(=C1O)O)O)C(=O)OC2=CC(=CC(=C2O)O)C(=O)OCC3C(C(C(C(O3)OC(=O)C4=CC(=C(C(=C4)OC(=O)C5=CC(=C(C(=C5)O)O)O)O)O)OC(=O)C6=CC(=C(C(=C6)OC(=O)C7=CC(=C(C(=C7)O)O)O)O)O)OC(=O)C8=CC(=C(C(=C8)OC(=O)C9=CC(=C(C(=C9)O)O)O)O)O)OC(=O)C1=CC(=C(C(=C1)OC(=O)C1=CC(=C(C(=C1)O)O)O)O)O,pubchem
potassium;(Z)-octadec-9-enoate,333.15,1,CCCCCCCCC=CCCCCCCCC(=O)[O-].[K+],pubchem
"(1R,4aR,4bR,10aR)-1,4a-dimethyl-7-propan-2-yl-2,3,4,4b,5,6,10,10a-octahydrophenanthrene-1-carboxylic acid",460.15,1,CC(C)C1=CC2=CCC3C(C2CC1)(CCCC3(C)C(=O)O)C,pubchem
"cyclopenta-1,3-diene;nickel(2+)",277.15,1,C1C=CC=[C-]1.C1C=CC=[C-]1.[Ni+2],pubchem
"4-(2-ethylhexyl)-4-azatricyclo[5.2.1.02,6]dec-8-ene-3,5-dione",450.15,1,CCCCC(CC)CN1C(=O)C2C3CC(C2C1=O)C=C3,pubchem
butan-1-ol;titanium,350.15,1,CCCCO.CCCCO.CCCCO.CCCCO.[Ti],pubchem
2-hydroxypropyl prop-2-enoate,338.15,1,CC(COC(=O)C=C)O,pubchem
3-(3-ethylcyclopentyl)propanoic acid,374.15,1,CCC1CCC(C1)CCC(=O)O,pubchem
zinc;bis(8-methylnonoxy)-sulfanylidene-sulfido-λ5-phosphane,553.15,1,CC(C)CCCCCCCOP(=S)(OCCCCCCCC(C)C)[S-].CC(C)CCCCCCCOP(=S)(OCCCCCCCC(C)C)[S-].[Zn+2],pubchem
"(7-chloro-6-bicyclo[3.2.0]hepta-2,6-dienyl) dimethyl phosphate",438.15,1,COP(=O)(OC)OC1=C(C2C1CC=C2)Cl,pubchem
"(6Z,10E,14E,18E)-2,6,10,15,19,23-hexamethyltetracosa-2,6,10,14,18,22-hexaene",383.15,1,CC(=CCCC(=CCCC(=CCCC=C(C)CCC=C(C)CCC=C(C)C)C)C)C,pubchem
nonane,304.15,1,CCCCCCCCC,pubchem
undecane,338.15,1,CCCCCCCCCCC,pubchem
hexadecane,408.15,1,CCCCCCCCCCCCCCCC,pubchem
heptadecane,422.15,1,CCCCCCCCCCCCCCCCC,pubchem
methylcyclopentane,249.15,1,CC1CCCC1,pubchem
"2,4,4-trimethylpent-1-ene",275.15,1,CC(=C)CC(C)(C)C,pubchem
"octa-1,7-diene",282.15,1,C=CCCCCC=C,pubchem
benzene,262.15,1,C1=CC=CC=C1,pubchem
toluene,277.15,1,CC1=CC=CC=C1,pubchem
"1,3,5-trimethylbenzene",323.15,1,CC1=CC(=CC(=C1)C)C,pubchem
"1,2,3-trimethylbenzene",317.15,1,CC1=C(C(=CC=C1)C)C,pubchem
propan-2-one,255.15,1,CC(=O)C,pubchem
pentan-3-ol,303.15,1,CCC(CC)O,pubchem
"butane-2,3-diol",358.15,1,CC(C(C)O)O,pubchem
"ethane-1,2-diol",384.15,1,C(CO)O,pubchem
"N,N-dimethylcyclohexanamine",315.15,1,CN(C)C1CCCCC1,pubchem
"ethane-1,2-diamine",307.15,1,C(CN)N,pubchem
N-methylformamide,371.15,1,CNC=O,pubchem
methylsulfanylmethane,235.15,1,CSC,pubchem
styrene,304.15,1,C=CC1=CC=CC=C1,pubchem
N-methylaniline,352.15,1,CNC1=CC=CC=C1,pubchem
2-methoxyethanol,315.15,1,COCCO,pubchem
2-(methylamino)ethanol,347.15,1,CNCCO,pubchem
2-ethylbutan-1-ol,326.15,1,CCC(CC)CO,pubchem
4-methylpentan-2-ol,314.15,1,CC(C)CC(C)O,pubchem
heptan-1-ol,350.15,1,CCCCCCCO,pubchem
nonan-1-ol,347.15,1,CCCCCCCCCO,pubchem
tetradecan-1-ol,414.15,1,CCCCCCCCCCCCCCO,pubchem
5-methyloxolan-2-one,354.15,1,CC1CCC(=O)O1,pubchem
cyclohexyl acetate,331.15,1,CC(=O)OC1CCCCC1,pubchem
oxetan-2-one,343.15,1,C1COC1=O,pubchem
prop-1-en-2-yl acetate,289.15,1,CC(=C)OC(=O)C,pubchem
2-ethylhexyl prop-2-enoate,355.15,1,CCCCC(CC)COC(=O)C=C,pubchem
prop-2-enyl acetate,295.15,1,CC(=O)OCC=C,pubchem
butyl 2-methylprop-2-enoate,325.15,1,CCCCOC(=O)C(=C)C,pubchem
butyl butanoate,326.15,1,CCCCOC(=O)CCC,pubchem
butyl acetate,295.15,1,CCCCOC(=O)C,pubchem
butyl propanoate,311.15,1,CCCCOC(=O)CC,pubchem
bis(2-ethylhexyl) hexanedioate,469.15,1,CCCCC(CC)COC(=O)CCCCC(=O)OCC(CC)CCCC,pubchem
dibutyl decanedioate,451.15,1,CCCCOC(=O)CCCCCCCCC(=O)OCCCC,pubchem
diethyl butanedioate,363.15,1,CCOC(=O)CCC(=O)OCC,pubchem
ethenyl acetate,265.15,1,CC(=O)OC=C,pubchem
ethyl 2-methylprop-2-enoate,289.15,1,CCOC(=O)C(=C)C,pubchem
ethyl acetate,269.15,1,CCOC(=O)C,pubchem
ethyl prop-2-enoate,282.15,1,CCOC(=O)C=C,pubchem
hexyl acetate,310.15,1,CCCCCCOC(=O)C,pubchem
2-methylpropyl 2-methylpropanoate,310.15,1,CC(C)COC(=O)C(C)C,pubchem
2-methylpropyl acetate,290.15,1,CC(C)COC(=O)C,pubchem
3-methylbutyl acetate,298.15,1,CC(C)CCOC(=O)C,pubchem
propan-2-yl acetate,275.15,1,CC(C)OC(=O)C,pubchem
methyl propanoate,271.15,1,CCC(=O)OC,pubchem
butyl octadecanoate,433.15,1,CCCCCCCCCCCCCCCCCC(=O)OCCCC,pubchem
propyl acetate,287.15,1,CCCOC(=O)C,pubchem
pentyl acetate,306.15,1,CCCCCOC(=O)C,pubchem
cyclodecane,332.0,1,C1CCCCCCCCC1,carroll11
cyclononane,316.0,1,C1CCCCCCCC1,carroll11
"1,3,5,7-cyclooctatetraene",295.0,1,C1=CC=CC=CC=C1,carroll11
cyclooctane,301.0,1,C1CCCCCCC1,carroll11
propan-2-ylcyclohexane,309.15,1,CC(C)C1CCCCC1,pubchem
methylenecyclopentane,255.0,1,C=C1CCCC1,carroll11
1-methylcyclohexene,272.0,1,CC1=CCCCC1,carroll11
1-methylcyclopentene,254.0,1,CC1=CCCC1,carroll11
2-methylpent-1-ene,247.15,1,CCCC(=C)C,pubchem
2-methylprop-1-ene,197.15,1,CC(=C)C,pubchem
"2,3-dimethyl-1,3-butadiene",251.0,1,CC(=C)C(=C)C,carroll11
"2,3,3-trimethyl-1-butene",256.0,1,CC(=C)C(C)(C)C,carroll11
"2,4,4-trimethylpent-2-ene",275.15,1,CC(=CC(C)(C)C)C,pubchem
4-ethenylcyclohexene,289.15,1,C=CC1CCC=CC1,pubchem
4-methyl-1-hexene,258.0,1,CC(CC=C)CC,carroll11
but-1-ene,194.15,1,CCC=C,pubchem
"buta-1,3-diene",197.15,1,C=CC=C,pubchem
cyclopentene,239.15,1,C1CC=CC1,pubchem
hept-1-ene,269.15,1,CCCCCC=C,pubchem
"1,6-heptadiene",263.0,1,C=CCCCC=C,carroll11
hex-1-ene,247.15,1,CCCCC=C,pubchem
non-1-ene,299.15,1,CCCCCCCC=C,pubchem
"1,8-nonadiene",299.0,1,C=CCCCCCC=C,carroll11
pent-1-ene,222.15,1,CCCC=C,pubchem
prop-1-ene,165.14999999999995,1,CC=C,pubchem
tridec-1-ene,352.15,1,CCCCCCCCCCCC=C,pubchem
2-methylheptane,277.15,1,CCCCCC(C)C,pubchem
2-methylhexane,255.15,1,CCCCC(C)C,pubchem
"2,4-dimethylpentane",261.0,1,CC(C)CC(C)C,carroll11
"2,5-dimethylhexane",271.0,1,CC(C)CCC(C)C,carroll11
"2,6-dimethylheptane",299.0,1,CC(C)CCCC(C)C,carroll11
2-methylpropane,190.15,1,CC(C)C,pubchem
2-methylpentane,244.15,1,CCCC(C)C,pubchem
pentadecane,388.0,1,CCCCCCCCCCCCCCC,carroll11
butan-1-olate;titanium(4+),350.15,1,CCCC[O-].CCCC[O-].CCCC[O-].CCCC[O-].[Ti+4],pubchem
triethyl phosphate,389.15,1,CCOP(=O)(OCC)OCC,pubchem
trimethyl phosphite,301.15,1,COP(OC)OC,pubchem
Acetanilide,447.15,1,CC(=O)Nc1ccccc1,hazardous materials
Acetic anhydride,327.15,1,CC(=O)OC(C)=O,hazardous materials
Acetone,255.14999999999998,1,CC(C)=O,hazardous materials
Acetone cyanohydrin,347.15,1,CC(C)(O)C#N,hazardous materials
Acetyl peroxide,386.15,1,CC(=O)OOC(C)=O,hazardous materials
Adipic acid,464.15,1,O=C(O)CCCCC(=O)O,hazardous materials
Adiponitrile,366.15,1,N#CCCCCC#N,hazardous materials
Allyl acetate,294.15,1,C=CCOC(C)=O,hazardous materials
Aminoethylethanol amine,402.15,1,NCCC(O)CN,hazardous materials
iso-Amyl acetate,296.15,1,CC(=O)OCCC(C)C,hazardous materials
sec-Amyl acetate,305.15,1,CCCC(C)OC(C)=O,hazardous materials
iso-Amyl formate,299.15,1,CC(C)CCOC=O,hazardous materials
iso-Amyl nitrate,325.15,1,CC(C)CCO[N+](=O)[O-],hazardous materials
Aniline,343.15,1,Nc1ccccc1,hazardous materials
o-Anisaldehyde,391.15,1,COc1ccccc1C=O,hazardous materials
Anisole,325.15,1,COc1ccccc1,hazardous materials
Anthracene,394.15,1,c1ccc2cc3ccccc3cc2c1,hazardous materials
Anthraquinone,458.15,1,O=C1c2ccccc2C(=O)c2ccccc21,hazardous materials
Benzaldehyde,337.15,1,O=Cc1ccccc1,hazardous materials
Benzoic acid,394.15,1,O=C(O)c1ccccc1,hazardous materials
Benzonitrile,358.15,1,N#Cc1ccccc1,hazardous materials
Benzotrifluoride,285.15,1,FC(F)(F)c1ccccc1,hazardous materials
Benzoyl chloride,345.15,1,O=C(Cl)c1ccccc1,hazardous materials
Benzylamine,336.15,1,NCc1ccccc1,hazardous materials
Benzyl chloride,340.15,1,ClCc1ccccc1,hazardous materials
Benzyl mercaptan,343.15,1,SCc1ccccc1,hazardous materials
Bicyclohexyl,347.15,1,C1CCC(C2CCCCC2)CC1,hazardous materials
Biphenyl,386.15,1,c1ccc(-c2ccccc2)cc1,hazardous materials
Bromobenzene,324.15,1,Brc1ccccc1,hazardous materials
o-Bromotoluene,352.15,1,Cc1ccccc1Br,hazardous materials
1-Butene,193.14999999999998,1,C=CCC,hazardous materials
n-Butyl acetate,300.15,1,CCCCOC(C)=O,hazardous materials
iso-Butyl acetate,291.15,1,CC(=O)OCC(C)C,hazardous materials
sec-Butyl acetate,304.15,1,CCC(C)OC(C)=O,hazardous materials
n-Butyl alcohol,302.15,1,CCCCO,hazardous materials
"1,3-Butylene glycol ",394.15,1,CC(O)CCO,hazardous materials
Butyl methacrylate,325.15,1,C=C(C)C(=O)OCCCC,hazardous materials
tert-Butyl perbenzoate,361.15,1,CC(C)(C)OOC(=O)c1ccccc1,hazardous materials
Butyl vinyl ether,264.15,1,C=COCCCC,hazardous materials
2-Butyrolactone,371.15,1,CCC1OC1=O,hazardous materials
Camphor,339.15,1,CC12CCC(CC1=O)C2(C)C,hazardous materials
Carbon disulphide,243.14999999999998,1,S=C=S,hazardous materials
Chloroacetaldehyde,361.15,1,O=CCCl,hazardous materials
Chlorobenzene,302.15,1,Clc1ccccc1,hazardous materials
"1-Chloro-2,4-dinitrobenzene ",467.15,1,O=[N+]([O-])c1ccc(Cl)c([N+](=O)[O-])c1,hazardous materials
Chloronaphthalene,405.15,1,Clc1cccc2ccccc12,hazardous materials
1-Chloro-1-nitropropane,335.15,1,CCC(Cl)[N+](=O)[O-],hazardous materials
o-Chlorophenol,337.15,1,Oc1ccccc1Cl,hazardous materials
p-Chlorophenol,394.15,1,Oc1ccc(Cl)cc1,hazardous materials
Chlorotrifluoroethylene,246.14999999999998,1,FC(F)=C(F)Cl,hazardous materials
Cinnamaldehyde,322.15,1,O=CC=Cc1ccccc1,hazardous materials
Crotonaldehyde,286.15,1,C/C=C/C=O,hazardous materials
Cumene hydroperoxide,352.15,1,CC(C)c1ccccc1.[O-]O,hazardous materials
Cyclohexanone,317.15,1,O=C1CCCCC1,hazardous materials
Cyclohexylamine,305.15,1,NC1CCCCC1,hazardous materials
Cyclohexylbenzene,372.15,1,c1ccc(C2CCCCC2)cc1,hazardous materials
Cyclopentanone,299.15,1,O=C1CCCC1,hazardous materials
p-Cymene,320.15,1,Cc1ccc(C(C)C)cc1,hazardous materials
n-Decyl alcohol,355.15,1,CCCCCCCCCCO,hazardous materials
Dibutyl oxalate,377.15,1,CCCCOC(=O)C(=O)OCCCC,hazardous materials
Dibutyl peroxide,291.15,1,CCCCOOCCCC,hazardous materials
Dibutyl phosphite,322.15,1,CCCCOP([O-])OCCCC,hazardous materials
Dibutyl tartrate,364.15,1,CCCCOC(=O)C(O)C(O)C(=O)OCCCC,hazardous materials
Dichloroacetyl chloride,339.15,1,O=C(Cl)C(Cl)Cl,hazardous materials
"2,5-Dichloroaniline ",439.15,1,Nc1cc(Cl)ccc1Cl,hazardous materials
o-Dichlorobenzene,339.15,1,Clc1ccccc1Cl,hazardous materials
"1,3-Dichloro-2-butene ",300.15,1,CC(Cl)=CCCl,hazardous materials
"1,1-Dichloro-1-nitroethane ",349.15,1,CC(Cl)(Cl)[N+](=O)[O-],hazardous materials
"2,4-Dichlorophenol ",387.15,1,Oc1ccc(Cl)cc1Cl,hazardous materials
"1,2-Dichloropropane ",289.15,1,CC(Cl)CCl,hazardous materials
Dicyclohexylamine,372.15,1,C1CCC(NC2CCCCC2)CC1,hazardous materials
Diethanolamine,425.15,1,OCCNCCO,hazardous materials
"N,N-Diethylaniline ",358.15,1,CCN(CC)c1ccccc1,hazardous materials
Diethylene glycol,397.15,1,OCCOCCO,hazardous materials
"3,4-Dihydro-2H-pyran ",255.14999999999998,1,C1=COCCC1,hazardous materials
Diisobutyl carbinol,347.15,1,CC(C)CC(O)CC(C)C,hazardous materials
Diisopropyl benzene,349.15,1,CC(C)c1ccccc1C(C)C,hazardous materials
Dimethoxypropane,266.15,1,COC(C)(C)OC,hazardous materials
"N,N-Dimethylaniline ",336.15,1,CN(C)c1ccccc1,hazardous materials
Dimethyl sulphoxide,368.15,1,CS(C)=O,hazardous materials
m-Dinitrobenzene,423.15,1,O=[N+]([O-])c1cccc([N+](=O)[O-])c1,hazardous materials
o-Dinitrobenzene,423.15,1,O=[N+]([O-])c1ccccc1[N+](=O)[O-],hazardous materials
p-Dinitrobenzene,423.15,1,O=[N+]([O-])c1ccc([N+](=O)[O-])cc1,hazardous materials
"2,4-Dinitrotoluene ",480.15,1,Cc1ccc([N+](=O)[O-])cc1[N+](=O)[O-],hazardous materials
Di-n-Octyl phthalate,492.15,1,CCCCCCCCOC(=O)c1ccccc1C(=O)OCCCCCCCC,hazardous materials
Di-sec-Octyl phthalate,491.15,1,CCCCCCC(C)OC(=O)c1ccccc1C(=O)OC(C)CCCCCC,hazardous materials
Diphenylamine,426.15,1,c1ccc(Nc2ccccc2)cc1,hazardous materials
Diphenylmethane,403.15,1,c1ccc(Cc2ccccc2)cc1,hazardous materials
Dipropylene glycol methyl ether,358.15,1,COC(C)COC(C)CO,hazardous materials
Epichlorohydrin,314.15,1,ClCC1CO1,hazardous materials
Ethanolamine,358.15,1,NCCO,hazardous materials
Ethyl acetanilide,325.15,1,CCCC(=O)Nc1ccccc1,hazardous materials
Ethyl acetate,268.75,1,CCOC(C)=O,hazardous materials
Ethyl acetoacetate,357.15,1,CCOC(=O)CC(C)=O,hazardous materials
Ethyl acrylate,289.15,1,C=CC(=O)OCC,hazardous materials
n-Ethyl aniline,358.15,1,CCNc1ccccc1,hazardous materials
2-Ethyl butyraldehyde,294.15,1,CCC(C=O)CC,hazardous materials
Ethyl crotonate,275.15,1,C/C=C/C(=O)OCC,hazardous materials
Ethylene chlorohydrin,333.15,1,OCCCl,hazardous materials
2-Ethyl hexanol,357.15,1,CCCCC(CC)CO,hazardous materials
Ethyl oxalate,349.15,1,CCOC(=O)C(=O)[O-],hazardous materials
2-Ethyl-3-propyl acrolein,341.15,1,CCCC=C(C=O)CC,hazardous materials
Formamide,428.15,1,NC=O,hazardous materials
Formic acid,342.15,1,O=CO,hazardous materials
Furfural,333.15,1,O=Cc1ccco1,hazardous materials
n-Heptylamine,327.15,1,CCCCCCCN,hazardous materials
Hexachlorobenzene,515.15,1,Clc1c(Cl)c(Cl)c(Cl)c(Cl)c1Cl,hazardous materials
"2,4-Hexadienal ",341.15,1,CC=CC=CC=O,hazardous materials
"1,4-Hexadiene ",252.14999999999998,1,C=CCC=CC,hazardous materials
sec-Hexyl acetate,318.15,1,CCCCC(C)OC(C)=O,hazardous materials
Hydroquinone monomethyl ether,404.15,1,COc1ccc(O)cc1,hazardous materials
Lactonitrile,350.15,1,CC(O)C#N,hazardous materials
Maleic anhydride,375.15,1,O=C1C=CC(=O)O1,hazardous materials
"p-Mentha-1,8-diene ",318.15,1,C=C(C)C1CC=C(C)CC1,hazardous materials
2-Mercaptoethanol,347.15,1,OCCS,hazardous materials
Mesityl oxide,304.15,1,CC(=O)C=C(C)C,hazardous materials
Methyl acrylate,270.15,1,C=CC(=O)OC,hazardous materials
Methyl butyl ketone,308.15,1,CCCCC(C)=O,hazardous materials
Methyl ethyl ketone,266.15,1,CCC(C)=O,hazardous materials
Methyl formate,254.14999999999998,1,COC=O,hazardous materials
2-Methyl furan,243.14999999999998,1,Cc1ccco1,hazardous materials
Methyl methacrylate,283.15,1,C=C(C)C(=O)OC,hazardous materials
Methyl-n-Propyl ketone,280.15,1,CCCC(C)=O,hazardous materials
Methyl salicylate,374.15,1,COC(=O)c1ccccc1O,hazardous materials
Methyl vinyl ether,222.14999999999998,1,C=COC,hazardous materials
Naphthalene,352.15,1,c1ccc2ccccc2c1,hazardous materials
2-Naphthol,426.15,1,Oc1ccc2ccccc2c1,hazardous materials
1-Naphthylamine,430.15,1,Nc1cccc2ccccc12,hazardous materials
o-Nitroaniline,441.15,1,Nc1ccccc1[N+](=O)[O-],hazardous materials
p-Nitroaniline,472.15,1,Nc1ccc([N+](=O)[O-])cc1,hazardous materials
Nitrobenzene,361.15,1,O=[N+]([O-])c1ccccc1,hazardous materials
o-Nitrobiphenyl,416.15,1,O=[N+]([O-])c1ccccc1-c1ccccc1,hazardous materials
alpha-Nitronaphthalene,437.15,1,O=[N+]([O-])c1cccc2ccccc12,hazardous materials
m-Nitrotoluene,379.15,1,Cc1cccc([N+](=O)[O-])c1,hazardous materials
o-Nitrotoluene,379.15,1,Cc1ccccc1[N+](=O)[O-],hazardous materials
p-Nitrotoluene,379.15,1,Cc1ccc([N+](=O)[O-])cc1,hazardous materials
2-Octanol,361.15,1,CCCCCCC(C)O,hazardous materials
Oleic acid,462.15,1,CCCCCCCC/C=C\CCCCCCCC(=O)O,hazardous materials
n-Pentane,224.14999999999998,1,CCCCC,hazardous materials
"2,4-Pentanedione ",314.15,1,CC(=O)CC(C)=O,hazardous materials
Phenyl acetate,353.15,1,CC(=O)Oc1ccccc1,hazardous materials
p-Phenylenediamine,429.15,1,Nc1ccc(N)cc1,hazardous materials
Phenylethanolamine,425.15,1,NCC(O)c1ccccc1,hazardous materials
Phenyl ether,369.15,1,c1ccc(Oc2ccccc2)cc1,hazardous materials
Phenylhydrazine,362.15,1,NNc1ccccc1,hazardous materials
o-Phenyl phenol,397.15,1,Oc1ccccc1-c1ccccc1,hazardous materials
Phorone,358.15,1,CC(C)=CC(=O)C=C(C)C,hazardous materials
Phthalic anhydride,424.15,1,O=C1OC(=O)c2ccccc21,hazardous materials
2-Picoline,312.15,1,Cc1ccccn1,hazardous materials
4-Picoline,330.15,1,Cc1ccncc1,hazardous materials
Picric acid,423.15,1,O=[N+]([O-])c1cc([N+](=O)[O-])c(O)c([N+](=O)[O-])c1,hazardous materials
Piperylene,230.14999999999998,1,C=CC=CC,hazardous materials
"1,3-Propanediamine ",297.15,1,NCCCN,hazardous materials
"1,2-Propanediol ",372.15,1,CC(O)CO,hazardous materials
iso-Propenyl acetate,289.15,1,C=C(C)OC(C)=O,hazardous materials
iso-Propyl acetate,277.15,1,CC(=O)OC(C)C,hazardous materials
n-Propyl acetate,287.15,1,CCCOC(C)=O,hazardous materials
iso-Propyl benzoate,372.15,1,CC(C)OC(=O)c1ccccc1,hazardous materials
Propylene,165.14999999999998,1,C=CC,hazardous materials
Pyridine,293.15,1,c1ccncc1,hazardous materials
Pyruvic acid,276.15,1,CC(=O)C(=O)O,hazardous materials
Salicylaldehyde,351.15,1,O=Cc1ccccc1O,hazardous materials
Salicylic acid,430.15,1,O=C(O)c1ccccc1O,hazardous materials
Succinonitrile,405.15,1,N#CCCC#N,hazardous materials
Sulphur monochloride,391.15,1,[S]Cl,hazardous materials
m-Terphenyl,408.15,1,c1ccc(-c2cccc(-c3ccccc3)c2)cc1,hazardous materials
o-Terphenyl,436.15,1,c1ccc(-c2ccccc2-c2ccccc2)cc1,hazardous materials
"1,2,4,5-Tetrachlorobenzene ",428.15,1,Clc1cc(Cl)c(Cl)cc1Cl,hazardous materials
Tetraethylenepentamine,436.15,1,NCCNCCNCCNCCN,hazardous materials
Tetraethyl lead,366.15,1,CC[Pb](CC)(CC)CC,hazardous materials
Tetrahydronaphthalene,344.15,1,c1ccc2c(c1)CCCC2,hazardous materials
"2,2'-Thiodiethanol ",433.15,1,OCCSCCO,hazardous materials
Thiophene,272.15,1,c1ccsc1,hazardous materials
m-Toluidine,359.15,1,Cc1cccc(N)c1,hazardous materials
o-Toluidine,358.15,1,Cc1ccccc1N,hazardous materials
p-Toluidine,360.15,1,Cc1ccc(N)cc1,hazardous materials
"1,2,4-Trichlorobenzene ",372.15,1,Clc1ccc(Cl)c(Cl)c1,hazardous materials
"1,2,3-Trichloropropane ",355.15,1,ClCC(Cl)CCl,hazardous materials