,compound,flashpoint,pure substance,smiles,source
4479,1-Hexyne,252.15,1,C#CCCCC,le15
4480,"3,3-dimethylbut-1-yne",239.15,1,C#CC(C)(C)C,le15
4481,methylidenecyclopentane,255.15,1,C=C1CCCC1,le15
4482,"(2Z,4E)-hexa-2,4-diene",259.25,1,C/C=C\C=C\C,le15
4483,1-methylcyclopentene,349.15,1,CC1=CCCC1,le15
4484,1hexyne,253.0,1,C#CCCCC,le15
4485,1methylcyclopentene,256.0,1,CC1=CCCC1,le15
4486,2hexyne,262.0,1,CC#CCCC,le15
4487,Cyclohexene,253.0,1,C1=CCCCC1,le15
4488,Methylenecyclopentane,254.0,1,C=C1CCCC1,le15
4489,4-Methyloxazole,293.65,1,Cc1cocn1,le15
4490,"Isocyanic acid, allyl ester",316.15,1,C=CCN=C=O,le15
4491,"5-methyl-1,2-oxazole",303.15,1,Cc1ccno1,le15
4492,"3-Butenenitrile, 2-hydroxy-",345.05,1,C=CC(O)C#N,le15
4493,Pentanenitrile,313.75,1,CCCCC#N,le15
4494,"Butanenitrile, 3-methyl-",301.45,1,CC(C)CC#N,le15
4495,"2-Propynylamine, 1,1-dimethyl- (6CI,7CI,8CI)",275.15,1,C#CC(C)(C)N,le15
4496,2-methylbutanenitrile,297.55,1,CCC(C)C#N,le15
4497,"1,2,3,6-tetrahydropyridine",289.25,1,C1=CCNCC1,le15
4498,1-isocyanobutane,293.75,1,[C-]#[N+]CCCC,le15
4499,Butylcyanide,313.0,1,CCCCC#N,le15
4500,but-2-ynoic acid,364.05,1,CC#CC(=O)O,le15
4501,"2-Oxetanone, 4-methylene-",371.05,1,C=C1CC(=O)O1,le15
4502,methyl prop-2-ynoate,283.15,1,C#CC(=O)OC,le15
4503,"2-Butenedial, (Z)-",339.35,1,O=C/C=C\C=O,le15
4504,"Guanidine, N-cyano-",365.95,1,N#CNC(=N)N,le15
4505,"4H-1,2,4-Triazole, 4-amino-",388.85,1,Nn1cnnc1,le15
4506,"Crotonaldehyde, 3-methyl- (8CI)",307.05,1,CC(C)=CC=O,le15
4507,"3-Butyn-2-ol, 2-methyl-",298.15,1,C#CC(C)(C)O,le15
4508,6-oxabicyclo[3.1.0]hexane,283.15,1,C1CC2OC2C1,le15
4509,(E)-2-methylbut-2-enal,291.45,1,C/C=C(\C)C=O,le15
4510,3-Penten-2-one,343.15,1,CC=CC(C)=O,le15
4511,1-cyclopropylethanone,294.25,1,CC(=O)C1CC1,le15
4512,"3-Buten-2-one, 3-methyl-",284.15,1,C=C(C)C(C)=O,le15
4513,"Butanal, 2-methylene- (9CI)",274.15,1,C=C(C=O)CC,le15
4514,"penta-1,4-dien-3-ol",303.15,1,C=CC(O)C=C,le15
4515,(E)-2-methylbut-2-enal,291.45,1,C/C=C(\C)C=O,le15
4516,(E)-Pent-2-en-1-al,292.15,1,CC/C=C/C=O,le15
4517,Ethyl vinyl ketone,263.15,1,C=CC(=O)CC,le15
4518,Pent-4-yn-2-ol,310.35,1,C#CCC(C)O,le15
4519,(E)-pent-3-en-2-one,292.95,1,C/C=C/C(C)=O,le15
4520,Cyclopent-2-en-1-ol,328.25,1,OC1C=CCC1,le15
4521,1-Pentyn-3-ol,302.15,1,C#CC(O)CC,le15
4522,Pent-4-yn-1-ol,329.15,1,C#CCCCO,le15
4523,2-Pentyn-1-ol,331.15,1,CCC#CCO,le15
4524,3-Pentyn-1-ol,327.55,1,CC#CCCO,le15
4525,cyclopentanone,303.70599999999996,1,O=C1CCCC1,le15
4526,1cyclopropylethanone,286.0,1,CC(=O)C1CC1,le15
4527,"Propionitrile, 3-(methylamino)- (6CI,7CI,8CI)",336.25,1,CNCCC#N,le15
4528,"2-methyl-4,5-dihydro-1H-imidazole",347.35,1,CC1=NCCN1,le15
4529,"Acetonitrile, (dimethylamino)-",306.15,1,CN(C)CC#N,le15
4530,"3,3-dimethylbut-1-ene",245.15,1,C=CC(C)(C)C,le15
4531,"2,3-dimethylbut-1-ene",255.15,1,C=C(C)C(C)C,le15
4532,2-methylpent-2-ene,246.15,1,CCC=C(C)C,le15
4533,"2,3-dimethylbut-2-ene",257.15,1,CC(C)=C(C)C,le15
4534,1hexene,247.0,1,C=CCCCC,le15
4535,2ethyl1butene,247.0,1,C=C(CC)CC,le15
4536,2hexene,252.0,1,CC=CCCC,le15
4537,2methyl1pentene,247.0,1,C=C(C)CCC,le15
4538,2methyl2pentene,250.0,1,CCC=C(C)C,le15
4539,3methyl1pentene,245.0,1,C=CC(C)CC,le15
4540,3methyl2pentene,267.0,1,CC=C(C)CC,le15
4541,4methyl1pentene,242.0,1,C=CCC(C)C,le15
4542,methylcyclopentane,263.0,1,CC1CCCC1,le15
4543,"Methane, dichloro-",312.65,1,ClCCl,le15
4544,"Acetic acid, cyano-",380.95,1,N#CCC(=O)O,le15
4545,"2-Propenamide, 2-methyl-",354.85,1,C=C(C)C(N)=O,le15
4546,"Propionitrile, 3-methoxy- (8CI)",334.25,1,COCCC#N,le15
4547,1-isocyanatopropane,272.15,1,CCCN=C=O,le15
4548,"2-methyl-4,5-dihydro-1,3-oxazole",293.15,1,CC1=NCCO1,le15
4549,"2-Propenamide, N-methyl-",376.75,1,C=CC(=O)NC,le15
4550,cyclopropanecarboxamide,377.25,1,NC(=O)C1CC1,le15
4551,"Propanenitrile, 2-hydroxy-2-methyl-",346.15,1,CC(C)(O)C#N,le15
4552,Thiazole,299.15,1,c1cscn1,le15
4553,"Pyrrolidine, 1-methyl-",251.45,1,CN1CCCC1,le15
4554,1methylpyrrolidine,255.0,1,CN1CCCC1,le15
4555,Cyclopentylamine,285.0,1,NC1CCCC1,le15
4556,"2-Propenoic acid, 2-methyl-",347.32199999999995,1,C=C(C)C(=O)O,le15
4557,"2(3H)-Furanone, dihydro-",354.05,1,O=C1CCCO1,le15
4558,"2,3-Butanedione",278.65,1,CC(=O)C(C)=O,le15
4559,(Z)-but-2-enoic acid,354.75,1,C/C=C\C(=O)O,le15
4560,"2,3-dihydro-1,4-dioxine",298.75,1,C1=COCCO1,le15
4561,2-(oxiran-2-yl)oxirane,318.75,1,C1OC1C1CO1,le15
4562,But-3-enoic acid,341.35,1,C=CCC(=O)O,le15
4563,"Butane, 1,2:3,4-diepoxy-",313.15,1,C1OC1C1CO1,le15
4564,cyclopropanecarboxylic acid,344.85,1,O=C(O)C1CC1,le15
4565,"Formic acid, allyl ester (8CI)",279.65,1,C=CCOC=O,le15
4566,2-Butenoic acid,361.15,1,CC=CC(=O)O,le15
4567,(2S)-2-[(2S)-oxiran-2-yl]oxirane,318.75,1,C1O[C@@H]1[C@@H]1CO1,le15
4568,"2-Propenoic acid, methyl ester",279.817,1,C=CC(=O)OC,le15
4569,"2-Butenoic acid, (E)- (9CI)",354.75,1,C/C=C/C(=O)O,le15
4570,"2-Butyne-1,4-diol",408.708,1,OCC#CCO,le15
4571,(2R)-2-[(2R)-oxiran-2-yl]oxirane,318.75,1,C1O[C@H]1[C@H]1CO1,le15
4572,Crotonicacid,361.0,1,C/C=C/C(=O)O,le15
4573,Ethenylacetate,265.0,1,C=CCC(=O)[O-],le15
4574,gammaButyrolactone,371.0,1,O=C1CCCO1,le15
4575,2-Imidazolidinone,475.66900000000004,1,O=C1NCCN1,le15
4576,"Ethenamine, N-methyl-N-nitroso- (9CI)",318.65,1,C=CN(C)N=O,le15
4577,"Butyraldehyde, 2-methyl-",277.15,1,CCC(C)C=O,le15
4578,cyclopentanol,324.15,1,OC1CCCC1,le15
4579,"Furan, 2-methyl-tetrahydro-",262.15,1,CC1CCCO1,le15
4580,2-Pentanone,280.35,1,CCCC(C)=O,le15
4581,Valeraldehyde,285.35,1,CCCCC=O,le15
4582,oxane,258.15,1,C1CCOCC1,le15
4583,"2-Buten-1-ol, 3-methyl-",316.15,1,CC(C)=CCO,le15
4584,"Butyraldehyde, 3-methyl-",268.15,1,CC(C)CC=O,le15
4585,1-Penten-3-ol,298.15,1,C=CC(O)CC,le15
4586,4-Penten-2-ol,298.75,1,C=CCC(C)O,le15
4587,"2,2-dimethylpropanal",258.15,1,CC(C)(C)C=O,le15
4588,"3-Buten-1-ol, 3-methyl-",313.25,1,C=C(C)CCO,le15
4589,1-ethenoxypropane,247.05,1,C=COCCC,le15
4590,1-cyclopropylethanol,303.75,1,CC(O)C1CC1,le15
4591,Pent-4-en-1-ol,316.15,1,C=CCCCO,le15
4592,3-Penten-2-ol,300.95,1,CC=CC(C)O,le15
4593,"2-Penten-1-ol, (2Z)-",323.75,1,CC/C=C\CO,le15
4594,(E)-pent-2-en-1-ol,323.75,1,CC/C=C/CO,le15
4595,3-methylbut-3-en-2-ol,302.75,1,C=C(C)C(C)O,le15
4596,3-Pentanone,285.95,1,CCC(=O)CC,le15
4597,"3-Butyn-2-ol, 2-methyl- (8CI,9CI)",285.95,1,C#CC(C)(C)O,le15
4598,"1-Propene, 1-ethoxy- (9CI)",254.25,1,CC=COCC,le15
4599,3methyl2butanone,279.0,1,CC(=O)C(C)C,le15
4600,3pentanone,286.0,1,CCC(=O)CC,le15
4601,Pentanal,281.0,1,CCCCC=O,le15
4602,Piperazine,322.85,1,C1CNCCN1,le15
4603,"2,5-dihydrothiophene",296.65,1,C1=CCSC1,le15
4604,"Butane, 2,2-dimethyl-",225.15,1,CCC(C)(C)C,le15
4605,"Pentane, 3-methyl-",267.15,1,CCC(C)CC,le15
4606,"Pentane, 2-methyl-",241.15,1,CCCC(C)C,le15
4607,2methylpentane,250.0,1,CCCC(C)C,le15
4608,3methylpentane,267.0,1,CCC(C)CC,le15
4609,Oxirane-2-carboxamide,513.95,1,NC(=O)C1CO1,le15
4610,"2-Butanone, oxime",333.15,1,CCC(C)=NO,le15
4611,Butyraldehyde oxime,331.15,1,CCCC=NO,le15
4612,Morpholine,308.75,1,C1COCCN1,le15
4613,butanamide,361.05,1,CCCC(N)=O,le15
4614,2-methylpropanamide,360.85,1,CC(C)C(N)=O,le15
4615,N-ethylacetamide,378.55,1,CCNC(C)=O,le15
4616,N-methylpropanamide,378.55,1,CCC(=O)NC,le15
4617,Morpholine,308.0,1,C1COCCN1,le15
4618,"Isothiocyanic acid, ethyl ester",305.35,1,CCN=C=S,le15
4619,ethyl thiocyanate,295.15,1,CCSC#N,le15
4620,"1-Butanamine, 2-methyl-",276.45,1,CCC(C)CN,le15
4621,"1-Butanamine, N-methyl-",274.85,1,CCCCNC,le15
4622,"Propylamine, 1,2-dimethyl-",245.35,1,CC(C)C(C)N,le15
4623,"Propylamine, 1-ethyl- (8CI)",275.35,1,CCC(N)CC,le15
4624,"Ethanamine, N-ethyl-N-methyl-",275.35,1,CCN(C)CC,le15
4625,"N,N-dimethylpropan-2-amine",264.15,1,CC(C)N(C)C,le15
4626,"1-Butanamine, 3-methyl-",291.45,1,CC(C)CCN,le15
4627,1-Pentanamine,277.55,1,CCCCCN,le15
4628,N-ethylpropan-2-amine,289.25,1,CCNC(C)C,le15
4629,"2-Propenenitrile, 2-chloro-",279.85,1,C=C(Cl)C#N,le15
4630,2-oxopropanoic acid,327.45,1,CC(=O)C(=O)O,le15
4631,Ethanediamide,385.85,1,NC(=O)C(N)=O,le15
4632,"Ethanedial, dioxime",329.35,1,ON=CC=NO,le15
4633,"Hydrazine, 1,2-diformyl- (8CI)",354.75,1,O=CNNC=O,le15
4634,"Propanoic acid, 2-methyl-",331.35,1,CC(C)C(=O)O,le15
4635,"Butyraldehyde, 3-hydroxy-",331.85,1,CC(O)CC=O,le15
4636,Butanoic acid,342.15,1,CCCC(=O)O,le15
4637,Acetic acid ethyl ester,269.15,1,CCOC(C)=O,le15
4638,oxolan-3-ol,354.25,1,OC1CCOC1,le15
4639,"but-3-ene-1,2-diol",362.45,1,C=CC(O)CO,le15
4640,"1,3-Dioxolane, 2-methyl-",271.15,1,CC1OCCO1,le15
4641,"2-Butanone, 3-hydroxy-",322.85,1,CC(=O)C(C)O,le15
4642,"Ethanol, 2-(ethenyloxy)- (9CI)",323.15,1,C=COCCO,le15
4643,"Propane, 1,2-epoxy-3-methoxy-",281.25,1,COCC1CO1,le15
4644,1-hydroxybutan-2-one,333.15,1,CCC(=O)CO,le15
4645,"(Z)-2-Butene-1,4-diol",401.15,1,OC/C=C\CO,le15
4646,"1,4-Dioxane",285.35,1,C1COCCO1,le15
4647,"Propanoic acid, methyl ester",271.15,1,CCC(=O)OC,le15
4648,2methylpropanoicacid,329.0,1,CC(C)C(=O)O,le15
4649,"Urea, N,N'-dimethyl-",397.45,1,CNC(=O)NC,le15
4650,"Ethylamine, N-methyl-N-nitroso-",320.35,1,CCN(C)N=O,le15
4651,Pentyl alcohol,322.05,1,CCCCCO,le15
4652,"1-Propanol, 2,2-dimethyl-",310.15,1,CC(C)(C)CO,le15
4653,Isopentyl alcohol (8CI),318.75,1,CC(C)CCO,le15
4654,3-Pentanol,313.15,1,CCC(O)CC,le15
4655,"Propane, 2-methoxy-2-methyl-",245.15,1,COC(C)(C)C,le15
4656,2-Pentanol,307.15,1,CCCC(C)O,le15
4657,2-methoxybutane,243.15,1,CCC(C)OC,le15
4658,"2-Butanol, 2-methyl-",294.25,1,CCC(C)(C)O,le15
4659,1methoxybutane,263.0,1,CCCCOC,le15
4660,2methoxybutane,243.0,1,CCC(C)OC,le15
4661,2methyl1butanol,316.0,1,CCC(C)CO,le15
4662,2methyl2butanol,294.0,1,CCC(C)(C)O,le15
4663,2pentanol,313.0,1,CCCC(C)O,le15
4664,3methyl1butanol,316.0,1,CC(C)CCO,le15
4665,3methyl2butanol,312.0,1,CC(C)C(C)O,le15
4666,3pentanol,313.0,1,CCC(O)CC,le15
4667,EthylPropylEther,253.0,1,CCCOCC,le15
4668,"Ethylenediamine, N,N-dimethyl- (8CI)",297.05,1,CN(C)CCN,le15
4669,"1,2-Ethanediamine, N1-ethyl-",283.15,1,CCNCCN,le15
4670,1-Methyltrimethylenediamine,309.65,1,CC(N)CCN,le15
4671,"Hydrazine, 1,1-diethyl-",295.95,1,CCN(N)CC,le15
4672,Tetramethylenediamine,324.85,1,NCCCCN,le15
4673,"1,3-Propanediamine, N-methyl-",313.15,1,CNCCCN,le15
4674,3-methylsulfanylprop-1-ene,291.45,1,C=CCSC,le15
4675,"Thiophene, tetrahydro-",285.95,1,C1CCSC1,le15
4676,Thiacyclopentane,285.0,1,C1CCSC1,le15
4677,diethylsilicon,244.25,1,CC[Si]CC,le15
4678,"4-chlorobuta-1,2-diene",273.65,1,C=C=CCCl,le15
4679,"Carbamic acid, ethyl ester",370.35,1,CCOC(N)=O,le15
4680,2-aminobutan-1-ol,355.35,1,CCC(N)CO,le15
4681,"Ethanol, 2-(dimethylamino)-",313.75,1,CN(C)CCO,le15
4682,"1-Propanol, 2-amino-2-methyl-",340.35,1,CC(C)(N)CO,le15
4683,"N,N-diethylhydroxylamine",318.15,1,CCN(O)CC,le15
4684,"1-Propanamine, 3-methoxy-",295.95,1,COCCCN,le15
4685,"1-Butanol, 4-amino-",380.95,1,NCCCCO,le15
4686,1-aminobutan-2-ol,334.15,1,CCC(O)CN,le15
4687,"Ethanol, 2-(ethylamino)-",351.15,1,CCNCCO,le15
4688,2-ethoxyethanamine,290.85,1,CCOCCN,le15
4689,2dimethylaminoethanol,313.0,1,CN(C)CCO,le15
4690,Thiazolidine,329.25,1,C1CSCN1,le15
4691,"Propanenitrile, 3-chloro-",348.75,1,N#CCCCl,le15
4692,2-Chloropropionitrile,306.45,1,CC(Cl)C#N,le15
4693,"Propanoic acid, 2-hydroxy-",383.086,1,CC(O)C(=O)O,le15
4694,"2-Propanone, 1,3-dihydroxy-",370.45,1,O=C(CO)CO,le15
4695,"Carbonic acid, dimethyl ester",291.15,1,COC(=O)OC,le15
4696,"Acetic acid, 2-methoxy-",394.15,1,COCC(=O)O,le15
4697,"Propanoic acid, 2-hydroxy-, (S)- (9CI)",383.05,1,C[C@H](O)C(=O)O,le15
4698,methyl 2-hydroxyacetate,340.35,1,COC(=O)CO,le15
4699,Dimethylcarbonate,291.0,1,COC(=O)OC,le15
4700,"Carbazic acid, methyl ester (8CI)",359.25,1,COC(=O)NN,le15
4701,"Hydroperoxide, 1,1-dimethylethyl",308.15,1,CC(C)(C)OO,le15
4702,"1,3-Butanediol",394.25,1,CC(O)CCO,le15
4703,"2-Propanol, 1-methoxy-",344.95,1,COCC(C)O,le15
4704,"Ethane, 1,2-dimethoxy-",273.15,1,COCCOC,le15
4705,"Ethanol, 2-ethoxy-",317.15,1,CCOCCO,le15
4706,"2-methylpropane-1,2-diol",346.85,1,CC(C)(O)CO,le15
4707,"1,2-Butanediol",366.45,1,CCC(O)CO,le15
4708,2-methoxypropan-1-ol,315.05,1,COC(C)CO,le15
4709,"1-Propanol, 3-methoxy-",325.95,1,COCCCO,le15
4710,"2-methylpropane-1,3-diol",375.65,1,CC(CO)CO,le15
4711,1methoxy2propanol,311.0,1,COCC(C)O,le15
4712,"2-Propanol, 1,3-diamino-",370.05,1,NCC(O)CN,le15
4713,"Pseudourea, 1-methyl-2-thio- (7CI)",312.25,1,CNC(=N)S,le15
4714,"Ethane, 1,1'-thiobis-",263.15,1,CCSCC,le15
4715,1-methylsulfanylpropane,273.15,1,CCCSC,le15
4716,"2-Propanethiol, 2-methyl-",249.15,1,CC(C)(C)S,le15
4717,2butanethiol,250.0,1,CCC(C)S,le15
4718,2methyl2propanethiol,247.0,1,CC(C)(C)S,le15
4719,prop-2-enoyl chloride,289.25,1,C=CC(=O)Cl,le15
4720,"1-Propene, 3-chloro-2-methyl-",260.35,1,C=C(C)CCl,le15
4721,(Z)-2-chlorobut-2-ene,254.15,1,C/C=C(/C)Cl,le15
4722,(Z)-1-chlorobut-2-ene,378.55,1,C/C=C\CCl,le15
4723,(E)-1-chlorobut-2-ene,261.15,1,C/C=C/CCl,le15
4724,(E)-1-chlorobut-2-ene,258.15,1,C/C=C/CCl,le15
4725,chloromethylcyclopropane,271.45,1,ClCC1CC1,le15
4726,3chloro2methyl1propene,261.0,1,C=C(C)CCl,le15
4727,"1,3-Propanediol, 2-amino-",388.25,1,NC(CO)CO,le15
4728,Hydrazinecarbothioamide,353.15,1,NNC(N)=S,le15
4729,"Acetic acid, fluoro-, methyl ester",290.75,1,COC(=O)CF,le15
4730,Glycerol,457.0,1,OCC(O)CO,le15
4731,"Acetic acid, mercapto-",372.95,1,O=C(O)CS,le15
4732,"Benzene, methyl-",283.15,1,Cc1ccccc1,le15
4733,"Bicyclo(2.2.1)hepta-2,5-diene",262.05,1,C1=CC2C=CC1C2,le15
4734,"1,3,5-Cycloheptatriene",299.85,1,C1=CC=CCC=C1,le15
4735,"2-Propanone, 1-chloro-",300.95,1,CC(=O)CCl,le15
4736,"Propane, 1-chloro-2,3-epoxy-",307.05,1,ClCC1CO1,le15
4737,3-chloropropanal,299.55,1,O=CCCCl,le15
4738,PropanoylChloride,285.0,1,CCC(=O)Cl,le15
4739,2-chloro-2-methylpropane,291.45,1,CC(C)(C)Cl,le15
4740,"2-chloro-1,1,1,3,3,3-hexadeuterio-2-(trideuteriomethyl)propane",291.45,1,[2H]C([2H])([2H])C(Cl)(C([2H])([2H])[2H])C([2H])([2H])[2H],le15
4741,1chloro2methylpropane,294.0,1,CC(C)CCl,le15
4742,1chlorobutane,267.0,1,CCCCCl,le15
4743,2chloro2methylpropane,291.0,1,CC(C)(C)Cl,le15
4744,furan-2-carbonitrile,308.15,1,N#Cc1ccco1,le15
4745,Benzenamine,349.15,1,Nc1ccccc1,le15
4746,"Pyridine, 4-methyl-",313.15,1,Cc1ccncc1,le15
4747,"Pyridine, 3-methyl-",309.26099999999997,1,Cc1cccnc1,le15
4748,"Pyridine, 2-methyl-",299.26099999999997,1,Cc1ccccn1,le15
4749,2chloropyridine,339.0,1,Clc1ccccn1,le15
4750,3picoline,313.0,1,Cc1cccnc1,le15
4751,4methylpyridine,310.0,1,Cc1ccncc1,le15
4752,4picoline,313.0,1,Cc1ccncc1,le15
4753,"Acetamide, 2-chloro-",381.75,1,NC(=O)CCl,le15
4754,dimethylphosphinic acid,410.85,1,CP(C)(=O)O,le15
4755,2-ethenylfuran,278.65,1,C=Cc1ccco1,le15
4756,"Pyrazine, 2-methyl-",323.15,1,Cc1cnccn1,le15
4757,"Pyridine, 3-amino-",397.15,1,Nc1cccnc1,le15
4758,"Pyridine, 4-amino-",429.15,1,Nc1ccncc1,le15
4759,3-methylpyridazine,360.95,1,Cc1cccnn1,le15
4760,5-methylpyrimidine,316.406,1,Cc1cncnc1,le15
4761,4-methylpyrimidine,313.15,1,Cc1ccncn1,le15
4762,"2,2-dimethylpropanedinitrile",350.95,1,CC(C)(C#N)C#N,le15
4763,2-methylpyrimidine,293.45,1,Cc1ncccn1,le15
4764,"Methane, sulfonylbis-",416.15,1,CS(C)(=O)=O,le15
4765,"2-methylcyclohexa-1,3-diene",276.25,1,CC1=CCCC=C1,le15
4766,1-Hepten-3-yne,281.35,1,C=CC#CCCC,le15
4767,"cyclohepta-1,3-diene",284.25,1,C1=CCCCC=C1,le15
4768,2norbornene,258.0,1,C1=CC2CCC1C2,le15
4769,"ethane-1,2-dithiol",317.55,1,SCCS,le15
4770,Methyl disulfide (8CI),297.55,1,CSSC,le15
4771,DimethylDisulfide,297.0,1,CSSC,le15
4772,"Acetic acid, chloro-",399.15,1,O=C(O)CCl,le15
4773,"Carbonochloridic acid, methyl ester",280.95,1,COC(=O)Cl,le15
4774,"2-Propanol, 1-chloro-",324.85,1,CC(O)CCl,le15
4775,1-chloro-2-methoxyethane,288.15,1,COCCCl,le15
4776,chloromethoxyethane,292.15,1,CCOCCl,le15
4777,3chloro1propanol,346.0,1,OCCCCl,le15
4778,chloro(dimethyl)silicon,245.15,1,C[Si](C)Cl,le15
4779,"Ethyne, dichloro- (9CI)",280.45,1,ClC#CCl,le15
4780,1H-pyrrole-2-carbaldehyde,379.85,1,O=Cc1ccc[nH]1,le15
4781,1H-pyridin-2-one,454.25,1,O=c1cccc[nH]1,le15
4782,"Acetonitrile, 2,2'-iminobis-",431.05,1,N#CCNCC#N,le15
4783,1-ethylpyrrole,298.65,1,CCn1cccc1,le15
4784,"2,4-dimethyl-1H-pyrrole",329.75,1,Cc1c[nH]c(C)c1,le15
4785,2-ethyl-1H-pyrrole,335.35,1,CCc1ccc[nH]1,le15
4786,"Pyrrole, 2,5-dimethyl- (8CI)",327.15,1,Cc1ccc(C)[nH]1,le15
4787,Chloronitromethane,297.85,1,O=[N+]([O-])CCl,le15
4788,"Acetic acid, 2,2-difluoro-",351.15,1,O=C(O)C(F)F,le15
4789,2-Furancarboxaldehyde,331.45,1,O=Cc1ccco1,le15
4790,pyran-4-one,374.25,1,O=c1ccocc1,le15
4791,pyran-2-one,362.35,1,O=c1cccco1,le15
4792,furan-3-carbaldehyde,321.45,1,O=Cc1ccoc1,le15
4793,Furfural,333.0,1,O=Cc1ccco1,le15
4794,"Benzene, fluoro-",258.15,1,Fc1ccccc1,le15
4795,Methanesulphonic acid,462.15,1,CS(=O)(=O)O,le15
4796,"2,4-Hexadienal, (2E,4E)-",341.15,1,C/C=C/C=C/C=O,le15
4797,"Furan, 2,5-dimethyl-",271.45,1,Cc1ccc(C)o1,le15
4798,2-methylcyclopent-2-en-1-one,326.25,1,CC1=CCCC1=O,le15
4799,hex-5-yn-2-one,315.85,1,C#CCCC(C)=O,le15
4800,3-methylcyclopent-2-en-1-one,326.25,1,CC1=CC(=O)CC1,le15
4801,"Furan, 2-ethyl-",274.15,1,CCc1ccco1,le15
4802,"2,4-dimethylfuran",273.95,1,Cc1coc(C)c1,le15
4803,2-Cyclohexen-1-one,328.85,1,O=C1C=CCCC1,le15
4804,cyclohex-3-en-1-one,319.95,1,O=C1CC=CCC1,le15
4805,"3,5-dimethyl-1H-pyrazole",363.65,1,Cc1cc(C)[nH]n1,le15
4806,"2,5-dimethyl-1H-imidazole",415.45,1,Cc1cnc(C)[nH]1,le15
4807,"Acrylonitrile, 3-(dimethylamino)- (7CI,8CI)",405.05,1,CN(C)C=CC#N,le15
4808,1-ethylimidazole,352.05,1,CCn1ccnc1,le15
4809,"1,2-dimethylimidazole",365.15,1,Cc1nccn1C,le15
4810,3-methylcyclohexene,270.15,1,CC1C=CCCC1,le15
4811,hept-2-yne,281.15,1,CC#CCCCC,le15
4812,1-methylcyclohexene,269.25,1,CC1=CCCCC1,le15
4813,hept-1-yne,271.15,1,C#CCCCCC,le15
4814,"2,4-dimethylpenta-1,3-diene",283.15,1,C=C(C)C=C(C)C,le15
4815,methylidenecyclohexane,266.45,1,C=C1CCCCC1,le15
4816,ethylidenecyclopentane,275.85,1,CC=C1CCCC1,le15
4817,"hepta-1,2-diene",275.35,1,C=C=CCCCC,le15
4818,hept-3-yne,278.45,1,CCC#CCCC,le15
4819,1heptyne,271.0,1,C#CCCCCC,le15
4820,1methylcyclohexene,270.0,1,CC1=CCCCC1,le15
4821,Methylenecyclohexane,267.0,1,C=C1CCCCC1,le15
4822,"Methane, chloro(methylthio)- (9CI)",290.35,1,CSCCl,le15
4823,2-chloroethanethiol,304.05,1,SCCCl,le15
4824,"1,1-Dichloroethene (9CI)",248.15,1,C=C(Cl)Cl,le15
4825,"Ethene, 1,2-dichloro-, (E)- (9CI)",279.25,1,Cl/C=C/Cl,le15
4826,"Ethylene, 1,2-dichloro-",279.25,1,ClC=CCl,le15
4827,"1H-Pyrrole-2,5-dione",409.75,1,O=C1C=CC(=O)N1,le15
4828,"Pyridine, 3-fluoro- (8CI)(9CI)",286.483,1,Fc1cccnc1,le15
4829,"Pyridine, 2-fluoro-",301.483,1,Fc1ccccn1,le15
4830,4-fluoropyridine,295.95,1,Fc1ccncc1,le15
4831,"3,5-dimethyl-1,2-oxazole",304.25,1,Cc1cc(C)on1,le15
4832,furan-2-ylmethanamine,319.85,1,NCc1ccco1,le15
4833,"2,4-dimethyl-1,3-oxazole",307.65,1,Cc1coc(C)n1,le15
4834,"2,5-dimethyl-1,3-oxazole",303.15,1,Cc1cnc(C)o1,le15
4835,"2-Propen-1-amine, N-2-propenyl-",288.75,1,C=CCNCC=C,le15
4836,"Pentanenitrile, 4-methyl-",318.75,1,CC(C)CCC#N,le15
4837,"Phosphonofluoridic acid, methyl-",318.75,1,CP(=O)(O)F,le15
4838,"furan-2,5-dione",376.45,1,O=C1C=CC(=O)O1,le15
4839,Furfuryl alcohol,338.15,1,OCc1ccco1,le15
4840,Methanesulphonyl fluoride,301.65,1,CS(=O)(=O)F,le15
4841,"2(3H)-Furanone, 5-methyl-",341.15,1,CC1=CCC(=O)O1,le15
4842,ethyl prop-2-ynoate,296.15,1,C#CC(=O)OCC,le15
4843,"Acrylic acid, vinyl ester (6CI,7CI,8CI)",286.65,1,C=COC(=O)C=C,le15
4844,Furan-3-methanol,311.45,1,OCc1ccoc1,le15
4845,2-methoxyfuran,283.15,1,COc1ccco1,le15
4846,Furfurylalcohol,338.0,1,OCc1ccco1,le15
4847,"3,4-dimethyl-1,2,5-oxadiazole",308.65,1,Cc1nonc1C,le15
4848,"Ethanimidic acid, N-cyano-, methyl ester",292.05,1,COC(C)=NC#N,le15
4849,Cyclohexanone,317.15,1,O=C1CCCCC1,le15
4850,3-Hexyn-2-ol,326.45,1,CCC#CC(C)O,le15
4851,"2,4-Hexadien-1-ol",345.35,1,CC=CC=CCO,le15
4852,"3-Penten-2-one, 4-methyl-",303.75,1,CC(=O)C=C(C)C,le15
4853,7-Oxabicyclo(4.1.0)heptane,300.35,1,C1CCC2OC2C1,le15
4854,"1-Propene, 3,3'-oxybis-",266.15,1,C=CCOCC=C,le15
4855,"1-Pentyn-3-ol, 4-methyl-",315.05,1,C#CC(O)C(C)C,le15
4856,Hex-2-yn-1-ol,340.95,1,CCCC#CCO,le15
4857,3-Cyclohexen-1-ol,326.55,1,OC1CC=CCC1,le15
4858,cyclopentanecarbaldehyde,309.15,1,O=CC1CCCC1,le15
4859,"Hexa-1,5-dien-3-ol",302.55,1,C=CCC(O)C=C,le15
4860,3-Hexyn-1-ol,336.45,1,CCC#CCCO,le15
4861,2-methylcyclopentan-1-one,305.85,1,CC1CCCC1=O,le15
4862,(E)-hex-4-en-3-one,307.55,1,C/C=C/C(=O)CC,le15
4863,"2-Hexenal, (2E)-",308.15,1,CCC/C=C/C=O,le15