,compound,flashpoint,pure substance,smiles,source
3818,ACETOXYETHYLDIMETHYLCHLOROSILANE,336.15,1,CC(=O)OCC[Si](C)(C)Cl,gelest_silanes
3819,ACETOXYETHYLMETHYLDICHLOROSILANE,338.15,1,CC(=O)OCC[Si](C)(Cl)Cl,gelest_silanes
3820,ACETOXYETHYLTRICHLOROSILANE,355.15,1,CC(=O)OCC[Si](Cl)(Cl)Cl,gelest_silanes
3821,ACETOXYETHYLTRIETHOXYSILANE,372.15,1,CCO[Si](CCOC(C)=O)(OCC)OCC,gelest_silanes
3822,ACETOXYMETHYLTRIMETHYLSILANE,293.15,1,CC(=O)OC[Si](C)(C)C,gelest_silanes
3823,3-ACETOXYPROPYLMETHYLDICHLOROSILANE,358.15,1,CC(=O)OCCC[Si](C)(Cl)Cl,gelest_silanes
3824,3-ACETOXYPROPYLTRIMETHOXYSILANE,366.15,1,CO[Si](CCCOC(C)=O)(OC)OC,gelest_silanes
3825,ACETOXYTRIMETHYLSILANE,277.15,1,CC(=O)O[Si](C)(C)C,gelest_silanes
3826,ACETYLTRIMETHYLSILANE,281.15,1,CC(=O)[Si](C)(C)C,gelest_silanes
3827,ACRYLOXYMETHYLTRIMETHOXYSILANE,335.15,1,C=CC(=O)OC[Si](OC)(OC)OC,gelest_silanes
3828,(3-ACRYLOXYPROPYL)DIMETHYLMETHOXYSILANE,358.15,1,C=CC(=O)OCCC[Si](C)(C)OC,gelest_silanes
3829,(3-ACRYLOXYPROPYL)TRIMETHOXYSILANE,396.15,1,C=CC(=O)OCCC[Si](OC)(OC)OC,gelest_silanes
3830,(3-ACRYLOXYPROPYL)TRIS(TRIMETHYLSILOXY)SILANE,366.15,1,C=CC(=O)OCCC[Si](O[Si](C)(C)C)(O[Si](C)(C)C)O[Si](C)(C)C,gelest_silanes
3831,ACRYLOXYTRIMETHYLSILANE,299.15,1,C=CC(=O)O[Si](C)(C)C,gelest_silanes
3832,3-(N-ALLYLAMINO)PROPYLTRIMETHOXYSILANE,361.15,1,C=CCNCCC[Si](OC)(OC)OC,gelest_silanes
3833,ALLYLAMINOTRIMETHYLSILANE,283.15,1,C=CCN[Si](C)(C)C,gelest_silanes
3834,ALLYL(CHLOROMETHYL)DIMETHYLSILANE,300.15,1,C=CC[Si](C)(C)CCl,gelest_silanes
3835,ALLYL(3-CHLOROPROPYL)DICHLOROSILANE,349.15,1,C=CC[Si](Cl)(Cl)CCCCl,gelest_silanes
3836,ALLYLDICHLOROSILANE,269.15,1,C=CC[SiH](Cl)Cl,gelest_silanes
3837,ALLYLDIMETHYL(DIISOPROPYLAMINO)SILANE,335.15,1,C=CC[Si](C)(C)N(C(C)C)C(C)C,gelest_silanes
3838,ALLYLDIMETHYLSILANE,253.15,1,C=CC[SiH](C)C,gelest_silanes
3839,ALLYL(4-METHOXYPHENYL)DIMETHYLSILANE,375.15,1,C=CC[Si](C)(C)c1ccc(OC)cc1,gelest_silanes
3840,ALLYLMETHYLDICHLOROSILANE,300.15,1,C=CCC[SiH](Cl)Cl,gelest_silanes
3841,ALLYLOXY-t-BUTYLDIMETHYLSILANE,305.15,1,C=CCO[Si](C)(C)C(C)(C)C,gelest_silanes
3842,ALLYLOXYTRIMETHYLSILANE,273.15,1,C=CCO[Si](C)(C)C,gelest_silanes
3843,ALLYLPHENYLDICHLOROSILANE,349.15,1,C=CC[Si](Cl)(Cl)c1ccccc1,gelest_silanes
3844,ALLYLTRICHLOROSILANE,304.15,1,C=CC[Si](Cl)(Cl)Cl,gelest_silanes
3845,ALLYLTRIETHOXYSILANE,320.15,1,C=CC[Si](OCC)(OCC)OCC,gelest_silanes
3846,ALLYLTRIISOPROPYLSILANE,349.15,1,C=CC[Si](C(C)C)(C(C)C)C(C)C,gelest_silanes
3847,ALLYLTRIMETHOXYSILANE,319.15,1,C=CC[Si](OC)(OC)OC,gelest_silanes
3848,ALLYLTRIMETHYLSILANE,280.15,1,C=CC[Si](C)(C)C,gelest_silanes
3849,ALLYLTRIS(TRIMETHYLSILOXY)SILANE,340.15,1,C=CC[Si](O[Si](C)(C)C)(O[Si](C)(C)C)O[Si](C)(C)C,gelest_silanes
3850,4-AMINOBUTYLTRIETHOXYSILANE,382.15,1,CCO[Si](CCCCN)(OCC)OCC,gelest_silanes
3851,N-(2-AMINOETHYL)-3-AMINOPROPYLMETHYLDIMETHOXYSILANE,363.15,1,CO[Si](C)(CCCNCCN)OC,gelest_silanes
3852,N-(2-AMINOETHYL)-3-AMINOPROPYLTRIETHOXYSILANE,421.15,1,CCO[Si](CCCNCCN)(OCC)OCC,gelest_silanes
3853,N-(2-AMINOETHYL)-3-AMINOPROPYLTRIMETHOXYSILANE,423.15,1,CO[Si](CCCNCCN)(OC)OC,gelest_silanes
3854,N-(2-AMINOETHYL)-3-AMINOPROPYLTRIMETHOXYSILANE,423.15,1,CO[Si](CCCNCCN)(OC)OC,gelest_silanes
3855,AMINOMETHYLTRIMETHYLSILANE,282.15,1,C[Si](C)(C)CN,gelest_silanes
3856,m-AMINOPHENYLTRIMETHOXYSILANE,453.15,1,CO[Si](OC)(OC)c1cccc(N)c1,gelest_silanes
3857,p-AMINOPHENYLTRIMETHOXYSILANE,453.15,1,CO[Si](OC)(OC)c1ccc(N)cc1,gelest_silanes
3858,AMINOPHENYLTRIMETHOXYSILANE,453.15,1,CO[Si](OC)(OCN)c1ccccc1,gelest_silanes
3859,3-AMINOPROPYLDIMETHYLETHOXYSILANE,346.15,1,CCO[Si](C)(C)CCCN,gelest_silanes
3860,3-AMINOPROPYLTRIETHOXYSILANE,377.15,1,CCO[Si](CCCN)(OCC)OCC,gelest_silanes
3861,3-AMINOPROPYLTRIMETHOXYSILANE,356.15,1,CO[Si](CCCN)(OC)OC,gelest_silanes
3862,3-AMINOPROPYLTRIMETHOXYSILANE,356.15,1,CO[Si](CCCN)(OC)OC,gelest_silanes
3863,3-AMINOPROPYLTRIMETHYLSILANE,332.15,1,C[Si](C)(C)CCCN,gelest_silanes
3864,3-AMINOPROPYLTRIS(METHOXYETHOXYETHOXY)SILANE,341.15,1,COCCOCCO[Si](CCCN)(OCCOCCOC)OCCOCCOC,gelest_silanes
3865,(AZIDOMETHYL)TRIMETHYLSILANE,279.15,1,C[Si](C)(C)CN=[N+]=[N-],gelest_silanes
3866,6-AZIDOSULFONYLHEXYLTRIETHOXYSILANE,387.15,1,CCO[Si](CCCCCCS(=O)(=O)N=[N+]=[N-])(OCC)OCC,gelest_silanes
3867,N-BENZYLAMINOMETHYLTRIMETHYLSILANE,389.15,1,C[Si](C)(C)CNCc1ccccc1,gelest_silanes
3868,BENZYLDIMETHYLCHLOROSILANE,346.15,1,C[Si](C)(Cl)Cc1ccccc1,gelest_silanes
3869,BENZYLDIMETHYLSILANE,338.15,1,C[SiH](C)Cc1ccccc1,gelest_silanes
3870,N-BENZYL-N-METHOXYMETHYL-N-(TRIMETHYLSILYLMETHYL)AMINE,339.15,1,COCN(Cc1ccccc1)C[Si](C)(C)C,gelest_silanes
3871,ALLYLTRI-n-BUTYLTIN,376.15,1,C=CC[Sn](CCCC)(CCCC)CCCC,gelest_tin
3872,BIS[BIS(TRIMETHYLSILYL)AMINO]TIN(II),329.15,1,C[Si](C)(C)N([Sn]N([Si](C)(C)C)[Si](C)(C)C)[Si](C)(C)C,gelest_tin
3873,t-BUTYLTRI n-BUTYLTIN,375.15,1,CCCC[Sn](CCCC)(CCCC)C(C)(C)C,gelest_tin
3874,CHLOROMETHYLTRIMETHYLTIN,312.15,1,C[Sn](C)(C)CCl,gelest_tin
3875,DIALLYLDI-n-BUTYLTIN,374.15,1,C=CC[Sn](CC=C)(CCCC)CCCC,gelest_tin
3876,DI-n-BUTYLDIACETOXYTIN,416.15,1,CCCC[Sn](CCCC)(OC(C)=O)OC(C)=O,gelest_tin
3877,DI-n-BUTYLDI-n-BUTOXYTIN,389.15,1,CCCCO[Sn](CCCC)(CCCC)OCCCC,gelest_tin
3878,DI-n-BUTYLDICHLOROTIN,441.15,1,CCCC[Sn](Cl)(Cl)CCCC,gelest_tin
3879,DI-t-BUTYLDICHLOROTIN,386.15,1,CC(C)(C)[Sn](Cl)(Cl)C(C)(C)C,gelest_tin
3880,DI-n-BUTYLDIMETHOXYTIN,383.15,1,CCCC[Sn](CCCC)(OC)OC,gelest_tin
3881,DIMETHYLAMINOTRI-n-BUTYLTIN,388.15,1,CCCC[Sn](CCCC)(CCCC)N(C)C,gelest_tin
3882,DIMETHYLAMINOTRIMETHYLTIN,274.15,1,CN(C)[Sn](C)(C)C,gelest_tin
3883,DIOCTYLDICHLOROTIN,477.15,1,CCCCCCCC[Sn](Cl)(Cl)CCCCCCCC,gelest_tin
3884,DIOCTYLDILAURYLTIN,471.15,1,CCCCCCCCCCCC[Sn](CCCCCCCC)(CCCCCCCC)CCCCCCCCCCCC,gelest_tin
3885,DIVINYLDICHLOROTIN,477.15,1,C=C[Sn](Cl)(Cl)C=C,gelest_tin
3886,1-ETHOXYVINYLTRI-n-BUTYLTIN,386.15,1,C=C(OCC)[Sn](CCCC)(CCCC)CCCC,gelest_tin
3887,ETHYNYLTRI-n-BUTYLTIN,346.15,1,C#C[Sn](CCCC)(CCCC)CCCC,gelest_tin
3888,PHENYLETHYNYLTRI-n-BUTYLTIN,386.15,1,CCCC[Sn](C#Cc1ccccc1)(CCCC)CCCC,gelest_tin
3889,PHENYLTRI-n-BUTYLTIN,380.15,1,CCCC[Sn](CCCC)(CCCC)c1ccccc1,gelest_tin
3890,PHENYLTHIOTRI-n-BUTYLTIN,377.15,1,CCCC[Sn](CCCC)(CCCC)Sc1ccccc1,gelest_tin
3891,TETRAALLYLTIN,348.15,1,C=CC[Sn](CC=C)(CC=C)CC=C,gelest_tin
3892,TETRABUTYLDILAURYLDISTANNOXANE,504.15,1,CCCCCCCCCCCC[Sn](CCCC)(CCCCCCCCCCCC)O[Sn](CCCC)(CCCC)CCCC,gelest_tin
3893,TETRA-n-BUTYLTIN,274.15,1,CCCC[Sn](CCCC)(CCCC)CCCC,gelest_tin
3894,TETRA-n-BUTYLTIN,380.15,1,CCCC[Sn](CCCC)(CCCC)CCCC,gelest_tin
3895,TETRAETHYLTIN,326.15,1,CC[Sn](CC)(CC)CC,gelest_tin
3896,TETRAKIS(DIETHYLAMINO)TIN,312.15,1,CCN(CC)[Sn](N(CC)CC)(N(CC)CC)N(CC)CC,gelest_tin
3897,TETRAMETHYLTIN,261.15,1,C[Sn](C)(C)C,gelest_tin
3898,TETRAMETHYLTIN,261.15,1,C[Sn](C)(C)C,gelest_tin
3899,TETRA-n-OCTYLTIN,367.15,1,CCCCCCCC[Sn](CCCCCCCC)(CCCCCCCC)CCCCCCCC,gelest_tin
3900,TETRAPHENYLTIN,504.15,1,c1ccc([Sn](c2ccccc2)(c2ccccc2)c2ccccc2)cc1,gelest_tin
3901,TETRAVINYLTIN,313.15,1,C=C[Sn](C=C)(C=C)C=C,gelest_tin
3902,2-THIENYLTRI-n-BUTYLTIN,379.15,1,CCCC[Sn](CCCC)(CCCC)c1cccs1,gelest_tin
3903,TRI-n-BUTYLACETOXYTIN,393.15,1,CCCCC(CCCC)(CCCC)C(=O)O[Sn],gelest_tin
3904,TRI-n-BUTYLCHLOROTIN,393.15,1,CCCC[Sn](Cl)(CCCC)CCCC,gelest_tin
3905,TRI-n-BUTYLETHOXYTIN,377.15,1,CCCC[Sn](CCCC)(CCCC)OCC,gelest_tin
3906,TRI-n-BUTYLIODOTIN,386.15,1,CCCC[Sn](I)(CCCC)CCCC,gelest_tin
3907,TRI-n-BUTYLMETHOXYTIN,371.15,1,CCCC[Sn](CCCC)(CCCC)OC,gelest_tin
3908,TRI-n-BUTYLTIN HYDRIDE,313.15,1,CCCC[SnH](CCCC)CCCC,gelest_tin
3909,TRICYCLOHEXYLTIN HYDRIDE,378.15,1,C1CCC([SnH](C2CCCCC2)C2CCCCC2)CC1,gelest_tin
3910,TRIETHYLBROMOTIN,372.15,1,CC[Sn](Br)(CC)CC,gelest_tin
3911,TRIMETHYLCHLOROTIN,370.15,1,C[Sn](C)(C)Cl,gelest_tin
3912,TRIPHENYLCHLOROTIN,343.15,1,Cl[Sn](c1ccccc1)(c1ccccc1)c1ccccc1,gelest_tin
3913,Acetaldehyde,235.15,1,CC=O,hazardous materials
3914,Acetanilide,447.15,1,CC(=O)Nc1ccccc1,hazardous materials
3915,Acetic acid,316.15,1,CC(=O)O,hazardous materials
3916,Acetic anhydride,327.15,1,CC(=O)OC(C)=O,hazardous materials
3917,Acetone,255.15,1,CC(C)=O,hazardous materials
3918,Acetone cyanohydrin,347.15,1,CC(C)(O)C#N,hazardous materials
3919,Acetonitrile,279.15,1,CC#N,hazardous materials
3920,Acetyl chloride,277.15,1,CC(=O)Cl,hazardous materials
3921,Acetyl peroxide,386.15,1,CC(=O)OOC(C)=O,hazardous materials
3922,Acrolein,247.15,1,C=CC=O,hazardous materials
3923,Acrylic acid,325.15,1,C=CC(=O)O,hazardous materials
3924,Acrylonitrile,273.15,1,C=CC#N,hazardous materials
3925,Adipic acid,464.15,1,O=C(O)CCCCC(=O)O,hazardous materials
3926,Adiponitrile,366.15,1,N#CCCCCC#N,hazardous materials
3927,Allyl acetate,294.15,1,C=CCOC(C)=O,hazardous materials
3928,Allyl alcohol,294.15,1,C=CCO,hazardous materials
3929,Allyl amine,244.15,1,C=CCN,hazardous materials
3930,Allyl bromide,272.15,1,C=CCBr,hazardous materials
3931,Allyl chloride,241.15,1,C=CCCl,hazardous materials
3932,Allyl chloroformate,304.15,1,C=CCOC(=O)Cl,hazardous materials
3933,Allyl glycidyl ether,330.15,1,C=CCOCC1CO1,hazardous materials
3934,Aminoethylethanol amine,402.15,1,NCCC(O)CN,hazardous materials
3935,iso-Amyl acetate,296.15,1,CC(=O)OCCC(C)C,hazardous materials
3936,sec-Amyl acetate,305.15,1,CCCC(C)OC(C)=O,hazardous materials
3937,iso-Amyl alcohol,316.15,1,CC(C)CCO,hazardous materials
3938,tert-Amyl alcohol,292.15,1,CCC(C)(C)O,hazardous materials
3939,Amylamine,280.15,1,CCCCCN,hazardous materials
3940,iso-Amyl formate,299.15,1,CC(C)CCOC=O,hazardous materials
3941,Amyl mercaptan,291.15,1,CCCCCS,hazardous materials
3942,iso-Amyl nitrate,325.15,1,CC(C)CCO[N+](=O)[O-],hazardous materials
3943,Amyl nitrite,283.15,1,CCCCCON=O,hazardous materials
3944,Aniline,343.15,1,Nc1ccccc1,hazardous materials
3945,o-Anisaldehyde,391.15,1,COc1ccccc1C=O,hazardous materials
3946,Anisole,325.15,1,COc1ccccc1,hazardous materials
3947,Anthracene,394.15,1,c1ccc2cc3ccccc3cc2c1,hazardous materials
3948,Anthraquinone,458.15,1,O=C1c2ccccc2C(=O)c2ccccc21,hazardous materials
3949,Aziridine,262.15,1,C1CN1,hazardous materials
3950,Benzaldehyde,337.15,1,O=Cc1ccccc1,hazardous materials
3951,Benzene,262.15,1,c1ccccc1,hazardous materials
3952,Benzoic acid,394.15,1,O=C(O)c1ccccc1,hazardous materials
3953,Benzonitrile,358.15,1,N#Cc1ccccc1,hazardous materials
3954,Benzotrifluoride,285.15,1,FC(F)(F)c1ccccc1,hazardous materials
3955,Benzoyl chloride,345.15,1,O=C(Cl)c1ccccc1,hazardous materials
3956,Benzyl acetate,375.15,1,CC(=O)OCc1ccccc1,hazardous materials
3957,Benzyl alcohol,374.15,1,OCc1ccccc1,hazardous materials
3958,Benzylamine,336.15,1,NCc1ccccc1,hazardous materials
3959,Benzyl benzoate,421.15,1,O=C(OCc1ccccc1)c1ccccc1,hazardous materials
3960,Benzyl chloride,340.15,1,ClCc1ccccc1,hazardous materials
3961,Benzyl mercaptan,343.15,1,SCc1ccccc1,hazardous materials
3962,Bicyclohexyl,347.15,1,C1CCC(C2CCCCC2)CC1,hazardous materials
3963,Biphenyl,386.15,1,c1ccc(-c2ccccc2)cc1,hazardous materials
3964,Bromobenzene,324.15,1,Brc1ccccc1,hazardous materials
3965,o-Bromotoluene,352.15,1,Cc1ccccc1Br,hazardous materials
3966,n-Butane,213.15,1,CCCC,hazardous materials
3967,1-Butene,193.15,1,C=CCC,hazardous materials
3968,n-Butyl acetate,300.15,1,CCCCOC(C)=O,hazardous materials
3969,iso-Butyl acetate,291.15,1,CC(=O)OCC(C)C,hazardous materials
3970,sec-Butyl acetate,304.15,1,CCC(C)OC(C)=O,hazardous materials
3971,n-Butyl alcohol,302.15,1,CCCCO,hazardous materials
3972,iso-Butyl alcohol,301.15,1,CC(C)CO,hazardous materials
3973,sec-Butyl alcohol,297.15,1,CCC(C)O,hazardous materials
3974,tert-Butyl alcohol,283.15,1,CC(C)(C)O,hazardous materials
3975,Butylamine,261.15,1,CCCCN,hazardous materials
3976,iso-Butylamine,264.15,1,CC(C)CN,hazardous materials
3977,n-Butyl benzene,344.15,1,CCCCc1ccccc1,hazardous materials
3978,iso-Butyl benzene,325.15,1,CC(C)Cc1ccccc1,hazardous materials
3979,n-Butyl bromide,291.15,1,CCCCBr,hazardous materials
3980,n-Butyl chloride,280.15,1,CCCCCl,hazardous materials
3981,"1,3-Butylene glycol ",394.15,1,CC(O)CCO,hazardous materials
3982,"2,3-Butylene glycol ",358.15,1,CC(O)C(C)O,hazardous materials
3983,n-Butyl formate,291.15,1,CCCCOC=O,hazardous materials
3984,Butyl lactate,344.15,1,CCCCOC(=O)C(C)O,hazardous materials
3985,Butyl mercaptan,275.15,1,CCCCS,hazardous materials
3986,Butyl methacrylate,325.15,1,C=C(C)C(=O)OCCCC,hazardous materials
3987,Isobutyl methyl ketone,290.15,1,CC(=O)CC(C)C,hazardous materials
3988,tert-Butyl perbenzoate,361.15,1,CC(C)(C)OOC(=O)c1ccccc1,hazardous materials
3989,Butyl vinyl ether,264.15,1,C=COCCCC,hazardous materials
3990,n-Butyraldehyde,266.45,1,CCCC=O,hazardous materials
3991,n-Butyric acid,339.15,1,CCCC(=O)O,hazardous materials
3992,n-Butyric anhydride,361.15,1,CCCC(=O)OC(=O)CCC,hazardous materials
3993,2-Butyrolactone,371.15,1,CCC1OC1=O,hazardous materials
3994,n-Butyronitrile,299.15,1,CCCC#N,hazardous materials
3995,Camphor,339.15,1,CC12CCC(CC1=O)C2(C)C,hazardous materials
3996,Caproic acid,375.15,1,CCCCCC(=O)O,hazardous materials
3997,Caprylaldehyde,325.15,1,CCCCCCCC=O,hazardous materials
3998,Carbon disulphide,243.15,1,S=C=S,hazardous materials
3999,Chloroacetaldehyde,361.15,1,O=CCCl,hazardous materials
4000,Chlorobenzene,302.15,1,Clc1ccccc1,hazardous materials
4001,"1-Chloro-2,4-dinitrobenzene ",467.15,1,O=[N+]([O-])c1ccc(Cl)c([N+](=O)[O-])c1,hazardous materials
4002,Chloronaphthalene,405.15,1,Clc1cccc2ccccc12,hazardous materials
4003,1-Chloro-1-nitropropane,335.15,1,CCC(Cl)[N+](=O)[O-],hazardous materials
4004,o-Chlorophenol,337.15,1,Oc1ccccc1Cl,hazardous materials
4005,p-Chlorophenol,394.15,1,Oc1ccc(Cl)cc1,hazardous materials
4006,Chlorotrifluoroethylene,246.15,1,FC(F)=C(F)Cl,hazardous materials
4007,Cinnamaldehyde,322.15,1,O=CC=Cc1ccccc1,hazardous materials
4008,m-Cresol,367.15,1,Cc1cccc(O)c1,hazardous materials
4009,o-Cresol,354.15,1,Cc1ccccc1O,hazardous materials
4010,p-Cresol,367.15,1,Cc1ccc(O)cc1,hazardous materials
4011,Crotonaldehyde,286.15,1,C/C=C/C=O,hazardous materials
4012,Cumene,317.15,1,CC(C)c1ccccc1,hazardous materials
4013,Cumene hydroperoxide,352.15,1,CC(C)c1ccccc1.[O-]O,hazardous materials
4014,Cyclohexane,253.15,1,C1CCCCC1,hazardous materials
4015,Cyclohexanol,341.15,1,OC1CCCCC1,hazardous materials
4016,Cyclohexanone,317.15,1,O=C1CCCCC1,hazardous materials
4017,Cyclohexylamine,305.15,1,NC1CCCCC1,hazardous materials
4018,Cyclohexylbenzene,372.15,1,c1ccc(C2CCCCC2)cc1,hazardous materials
4019,Cyclopentane,266.15,1,C1CCCC1,hazardous materials
4020,Cyclopentanone,299.15,1,O=C1CCCC1,hazardous materials
4021,p-Cymene,320.15,1,Cc1ccc(C(C)C)cc1,hazardous materials
4022,Decahydronaphthalene,330.15,1,C1CCC2CCCCC2C1,hazardous materials
4023,iso-Decaldehyde,358.15,1,CC(C)CCCCCCC=O,hazardous materials
4024,n-Decane,319.15,1,CCCCCCCCCC,hazardous materials
4025,n-Decyl alcohol,355.15,1,CCCCCCCCCCO,hazardous materials
4026,Diacetone alcohol,337.15,1,CC(=O)CC(C)(C)O,hazardous materials
4027,Dibutylamine,325.15,1,CCCCNCCCC,hazardous materials
4028,Dibutyldichlorotin,628.15,1,CCCC[Sn](Cl)(Cl)CCCC,hazardous materials
4029,Di-n-butyl ether,298.15,1,CCCCOCCCC,hazardous materials
4030,Dibutyl oxalate,377.15,1,CCCCOC(=O)C(=O)OCCCC,hazardous materials
4031,Dibutyl peroxide,291.15,1,CCCCOOCCCC,hazardous materials
4032,Dibutyl phosphite,322.15,1,CCCCOP([O-])OCCCC,hazardous materials
4033,Dibutyl phthalate,430.15,1,CCCCOC(=O)c1ccccc1C(=O)OCCCC,hazardous materials
4034,Dibutyl tartrate,364.15,1,CCCCOC(=O)C(O)C(O)C(=O)OCCCC,hazardous materials
4035,Dichloroacetyl chloride,339.15,1,O=C(Cl)C(Cl)Cl,hazardous materials
4036,"2,5-Dichloroaniline ",439.15,1,Nc1cc(Cl)ccc1Cl,hazardous materials
4037,o-Dichlorobenzene,339.15,1,Clc1ccccc1Cl,hazardous materials
4038,"1,4-Dichlorobutane ",325.15,1,ClCCCCCl,hazardous materials
4039,"1,3-Dichloro-2-butene ",300.15,1,CC(Cl)=CCCl,hazardous materials
4040,"1,1-Dichloroethane ",267.15,1,CC(Cl)Cl,hazardous materials
4041,"1,1-Dichloro-1-nitroethane ",349.15,1,CC(Cl)(Cl)[N+](=O)[O-],hazardous materials
4042,"2,4-Dichlorophenol ",387.15,1,Oc1ccc(Cl)cc1Cl,hazardous materials
4043,"1,2-Dichloropropane ",289.15,1,CC(Cl)CCl,hazardous materials
4044,"1,3-Dichloropropane ",308.15,1,ClCCCCl,hazardous materials
4045,Dicyclohexylamine,372.15,1,C1CCC(NC2CCCCC2)CC1,hazardous materials
4046,Diethanolamine,425.15,1,OCCNCCO,hazardous materials
4047,"N,N-Diethylaniline ",358.15,1,CCN(CC)c1ccccc1,hazardous materials
4048,Diethylcarbonate,298.15,1,CCOC(=O)OCC,hazardous materials
4049,Diethylene glycol,397.15,1,OCCOCCO,hazardous materials
4050,Diethylene glycol-monoethyl ether,369.15,1,CCOCCOCCO,hazardous materials
4051,Diethylenetriamine,375.15,1,NCCNCCN,hazardous materials
4052,Diethyl ketone,286.15,1,CCC(=O)CC,hazardous materials
4053,Diethyl malonate,366.15,1,CCOC(=O)CC(=O)OCC,hazardous materials
4054,Diethyl sulphate,377.15,1,CCOS(=O)(=O)OCC,hazardous materials
4055,"3,4-Dihydro-2H-pyran ",255.15,1,C1=COCCC1,hazardous materials
4056,Diisobutyl ketone,333.15,1,CC(C)CC(=O)CC(C)C,hazardous materials
4057,Diisobutyl carbinol,347.15,1,CC(C)CC(O)CC(C)C,hazardous materials
4058,Diisopropyl amine,272.15,1,CC(C)NC(C)C,hazardous materials
4059,Diisopropyl ether,245.15,1,CC(C)OC(C)C,hazardous materials
4060,Diisopropyl benzene,349.15,1,CC(C)c1ccccc1C(C)C,hazardous materials
4061,Dimethoxyethane,313.15,1,COCCOC,hazardous materials
4062,Dimethoxymethane,255.15,1,COCOC,hazardous materials
4063,Dimethoxypropane,266.15,1,COC(C)(C)OC,hazardous materials
4064,"N,N-Dimethyl acetamide ",350.15,1,CC(=O)N(C)C,hazardous materials
4065,"N,N-Dimethylaniline ",336.15,1,CN(C)c1ccccc1,hazardous materials
4066,"2,2-Dimethyl butane ",225.15,1,CCC(C)(C)C,hazardous materials
4067,"2,3-Dimethyl butane ",244.15,1,CC(C)C(C)C,hazardous materials
4068,Dimethyl carbonate,292.15,1,COC(=O)OC,hazardous materials
4069,Dimethylformamide,331.15,1,CN(C)C=O,hazardous materials
4070,Dimethyl phthalate,419.15,1,COC(=O)c1ccccc1C(=O)OC,hazardous materials
4071,Dimethyl sulphate,356.15,1,COS(=O)(=O)OC,hazardous materials
4072,Dimethyl sulphoxide,368.15,1,CS(C)=O,hazardous materials
4073,m-Dinitrobenzene,423.15,1,O=[N+]([O-])c1cccc([N+](=O)[O-])c1,hazardous materials
4074,o-Dinitrobenzene,423.15,1,O=[N+]([O-])c1ccccc1[N+](=O)[O-],hazardous materials
4075,p-Dinitrobenzene,423.15,1,O=[N+]([O-])c1ccc([N+](=O)[O-])cc1,hazardous materials
4076,"2,4-Dinitrotoluene ",480.15,1,Cc1ccc([N+](=O)[O-])cc1[N+](=O)[O-],hazardous materials
4077,Di-n-Octyl phthalate,492.15,1,CCCCCCCCOC(=O)c1ccccc1C(=O)OCCCCCCCC,hazardous materials
4078,Di-sec-Octyl phthalate,491.15,1,CCCCCCC(C)OC(=O)c1ccccc1C(=O)OC(C)CCCCCC,hazardous materials
4079,"1,4-Dioxane ",285.15,1,C1COCCO1,hazardous materials
4080,Diphenylamine,426.15,1,c1ccc(Nc2ccccc2)cc1,hazardous materials
4081,Diphenylmethane,403.15,1,c1ccc(Cc2ccccc2)cc1,hazardous materials
4082,Dipropylene glycol methyl ether,358.15,1,COC(C)COC(C)CO,hazardous materials
4083,n-Dodecane,347.15,1,CCCCCCCCCCCC,hazardous materials
4084,Epichlorohydrin,314.15,1,ClCC1CO1,hazardous materials
4085,"1,2-Epoxy-propane ",236.15,1,CC1CO1,hazardous materials
4086,Ethanol,285.15,1,CCO,hazardous materials
4087,Ethanolamine,358.15,1,NCCO,hazardous materials
4088,Ethyl acetanilide,325.15,1,CCCC(=O)Nc1ccccc1,hazardous materials
4089,Ethyl acetate,268.75,1,CCOC(C)=O,hazardous materials
4090,Ethyl acetoacetate,357.15,1,CCOC(=O)CC(C)=O,hazardous materials
4091,Ethyl acrylate,289.15,1,C=CC(=O)OCC,hazardous materials
4092,Ethyl amyl ketone,330.15,1,CCCCCC(=O)CC,hazardous materials
4093,n-Ethyl aniline,358.15,1,CCNc1ccccc1,hazardous materials
4094,Ethyl benzene,288.15,1,CCc1ccccc1,hazardous materials
4095,Ethyl bromoacetate,321.15,1,CCOC(=O)CBr,hazardous materials
4096,Ethyl butyl ketone,319.15,1,CCCCC(=O)CC,hazardous materials
4097,2-Ethyl butyraldehyde,294.15,1,CCC(C=O)CC,hazardous materials
4098,Ethyl butyrate,299.15,1,CCCC(=O)OCC,hazardous materials
4099,Ethyl chloride,223.15,1,CCCl,hazardous materials
4100,Ethyl chloroacetate,339.15,1,CCOC(=O)CCl,hazardous materials
4101,Ethyl chloroformate,289.15,1,CCOC(=O)Cl,hazardous materials
4102,Ethyl crotonate,275.15,1,C/C=C/C(=O)OCC,hazardous materials
4103,Ethyl cyanoacetate,383.15,1,CCOC(=O)CC#N,hazardous materials
4104,Ethylene chlorohydrin,333.15,1,OCCCl,hazardous materials
4105,Ethylene dichloride,286.15,1,ClCCCl,hazardous materials