,compound,flashpoint,pure substance,smiles,source
3221,"methyl (9Z,12Z)-octadeca-9,12-dienoate",386.0,1,CCCCC/C=C\C/C=C\CCCCCCCC(=O)OC,saldana11
3222,methyl (9Z)-hexadec-9-enoate,386.0,1,CCCCCC/C=C\CCCCCCCC(=O)OC,saldana11
3223,methyl (9Z)-octadec-9-enoate,386.0,1,CCCCCCCC/C=C\CCCCCCCC(=O)OC,saldana11
3224,methyl 10-undecenoate,373.0,1,C=CCCCCCCCCC(=O)OC,saldana11
3225,methyl 2-methylprop-2-enoate,284.0,1,COC(=O)C(=C)C,saldana11
3226,methyl 2-methylpropanoate,276.0,1,COC(=O)C(C)C,saldana11
3227,methyl but-3-enoate,293.0,1,COC(=O)CC=C,saldana11
3228,methyl butanoate,287.0,1,CCCC(=O)OC,saldana11
3229,methyl decanoate,367.0,1,CCCCCCCCCC(=O)OC,saldana11
3230,methyl dodecanoate,386.0,1,CCCCCCCCCCCC(=O)OC,saldana11
3231,methyl eicosanoate,386.0,1,CCCCCCCCCCCCCCCCCCCC(=O)OC,saldana11
3232,methyl ethanoate,263.0,1,COC(=O)C,saldana11
3233,methyl heneicosanoate,386.0,1,CCCCCCCCCCCCCCCCCCCCC(=O)OC,saldana11
3234,methyl heptadecanoate,383.0,1,CCCCCCCCCCCCCCCCC(=O)OC,saldana11
3235,methyl heptanoate,325.0,1,CCCCCCC(=O)OC,saldana11
3236,methyl hex-5-enoate,319.0,1,C=CCCCC(=O)OC,saldana11
3237,methyl hexadecanoate,425.0,1,CCCCCCCCCCCCCCCC(=O)OC,saldana11
3238,methyl hexanoate,316.0,1,CCCCCC(=O)OC,saldana11
3239,methyl methanoate,254.0,1,COC=O,saldana11
3240,methyl nonadecanoate,386.0,1,CCCCCCCCCCCCCCCCCCC(=O)OC,saldana11
3241,methyl nonanoate,360.0,1,CCCCCCCCC(=O)OC,saldana11
3242,methyl octadecanoate,388.0,1,CCCCCCCCCCCCCCCCCC(=O)OC,saldana11
3243,methyl octanoate,342.0,1,CCCCCCCC(=O)OC,saldana11
3244,methyl pent-4-enoate,302.0,1,COC(=O)CCC=C,saldana11
3245,methyl pentadecanoate,386.0,1,CCCCCCCCCCCCCCC(=O)OC,saldana11
3246,methyl prop-2-enoate,270.0,1,COC(=O)C=C,saldana11
3247,methyl propanoate,271.0,1,CCC(=O)OC,saldana11
3248,methyl tridecanoate,386.0,1,CCCCCCCCCCCCC(=O)OC,saldana11
3249,n-butyl octadecanoate,433.0,1,CCCCCCCCCCCCCCCCCC(=O)OCCCC,saldana11
3250,n-propyl ethanoate,288.0,1,CCCOC(=O)C,saldana11
3251,n-propyl methanoate,270.0,1,CCCOC=O,saldana11
3252,n-propyl propanoate,292.0,1,CCCOC(=O)CC,saldana11
3253,neopentyl ethanoate,316.0,1,CC(=O)OCC(C)(C)C,saldana11
3254,nonyl ethanoate,372.0,1,CCCCCCCCCOC(=O)C,saldana11
3255,nonyl methanoate,360.0,1,CCCCCCCCCOC=O,saldana11
3256,octyl butanoate,378.0,1,CCCCCCCCOC(=O)CCC,saldana11
3257,octyl ethanoate,359.0,1,CCCCCCCCOC(=O)C,saldana11
3258,octyl methanoate,353.0,1,CCCCCCCCOC=O,saldana11
3259,pentyl butanoate,345.0,1,CCCCCOC(=O)CCC,saldana11
3260,pentyl ethanoate,312.0,1,CCCCCOC(=O)C,saldana11
3261,pentyl methanoate,319.0,1,CCCCCOC=O,saldana11
3262,pentyl propanoate,336.0,1,CCCCCOC(=O)CC,saldana11
3263,propyl 2-methylprop-2-enoate,322.0,1,CCCOC(=O)C(=C)C,saldana11
3264,propyl prop-2-enoate,311.0,1,CCCOC(=O)C=C,saldana11
3265,sec-butyl ethanoate,255.0,1,CCC(C)OC(=O)C,saldana11
3266,sec-butyl methanoate,299.0,1,CC(CC)OC=O,saldana11
3267,tert-butyl 2-methylprop-2-enoate,300.0,1,CC(=C)C(=O)OC(C)(C)C,saldana11
3268,tert-butyl butanoate,320.0,1,CCCC(=O)OC(C)(C)C,saldana11
3269,tert-butyl ethanoate,287.0,1,CC(=O)OC(C)(C)C,saldana11
3270,tert-butyl methanoate,264.0,1,O=COC(C)(C)C,saldana11
3271,tetradecyl methanoate,433.0,1,CCCCCCCCCCCCCCOC=O,saldana11
3272,undecyl butanoate,421.0,1,CCCCCCCCCCCOC(=O)CCC,saldana11
3273,undecyl ethanoate,398.0,1,CCCCCCCCCCCOC(=O)C,saldana11
3274,undecyl methanoate,385.0,1,CCCCCCCCCCCOC=O,saldana11
3275,undecyl propanoate,410.0,1,CCCCCCCCCCCOC(=O)CC,saldana11
3276,1-methyl-4-(prop-1-en-2-yl)cyclohex-1-ene,318.0,1,CC1=CCC(CC1)C(=C)C,saldana11
3277,"1-methyl-4-(propan-2-yl)cyclohexa-1,3-diene",319.0,1,CC1=CC=C(CC1)C(C)C,saldana11
3278,"1-methyl-4-(propan-2-yl)cyclohexa-1,4-diene",324.0,1,CC1=CCC(=CC1)C(C)C,saldana11
3279,"1-trans-3,5-trimethylcyclohexane",292.0,1,C[C@H]1C[C@H](C)C[C@H](C)C1,saldana11
3280,"1,1-diethylcyclohexane",322.0,1,CCC1(CC)CCCCC1,saldana11
3281,"1,1-dimethylcyclohexane",280.0,1,CC1(C)CCCCC1,saldana11
3282,"1,1-dimethylcyclopentane",257.0,1,CC1(C)CCCC1,saldana11
3283,"1,3-dimethyladamantane",325.0,1,CC12CC3CC(C1)CC(C)(C3)C2,saldana11
3284,"2-methyl-5-propan-2-ylcyclohexa-1,3-diene",322.0,1,CC1=CCC(C=C1)C(C)C,saldana11
3285,2-norbornene,258.0,1,C1CC2C=CC1C2,saldana11
3286,3-methylidene-6-(propan-2-yl)cyclohex-1-ene,322.0,1,C=C1CCC(C=C1)C(C)C,saldana11
3287,"3,3-dimethyl-2-methylidenebicyclo[2.2.1]heptane",309.0,1,C=C1C2CCC(C2)C1(C)C,saldana11
3288,"4,6,6-trimethylbicyclo[3.1.1]hept-3-ene",303.0,1,CC1=CCC2CC1C2(C)C,saldana11
3289,5-ethylidene-2-norbornene,311.0,1,CC=C1CC2CC1C=C2,saldana11
3290,"6,6-dimethyl-4-methylidenebicyclo[3.1.1]heptane",304.0,1,C=C1CCC2CC1C2(C)C,saldana11
3291,bicyclohexyl,347.0,1,C1CCC(CC1)C1CCCCC1,saldana11
3292,butylcyclohexane,321.0,1,CCCCC1CCCCC1,saldana11
3293,butylcyclopentane,308.0,1,CCCCC1CCCC1,saldana11
3294,"cis-1,2-dimethylcyclohexane",284.0,1,C[C@@H]1CCCC[C@@H]1C,saldana11
3295,"cis-1,2-dimethylcyclopentane",269.0,1,C[C@@H]1CCC[C@@H]1C,saldana11
3296,"cis-1,3-dimethylcyclohexane",279.0,1,C[C@@H]1CCC[C@H](C)C1,saldana11
3297,"cis-1,4-dimethylcyclohexane",279.0,1,C[C@H]1CC[C@@H](C)CC1,saldana11
3298,cis-decalin,323.0,1,C1CC[C@@H]2CCCC[C@@H]2C1,saldana11
3299,cyclodecane,338.0,1,C1CCCCCCCCC1,saldana11
3300,"cyclododeca-1,5,9-triene",360.0,1,C1C=CCCC=CCCC=CC1,saldana11
3301,cycloheptane,267.0,1,C1CCCCCC1,saldana11
3302,"cyclohexa-1,3-diene",257.0,1,C1CC=CC=C1,saldana11
3303,"cyclohexa-1,4-diene",262.0,1,C1C=CCC=C1,saldana11
3304,cyclohexane,253.0,1,C1CCCCC1,saldana11
3305,cyclononane,316.0,1,C1CCCCCCCC1,saldana11
3306,"cycloocta-1,3,5,7-tetraene",295.0,1,C1=CC=CC=CC=C1,saldana11
3307,"cycloocta-1,5-diene",308.0,1,C1C=CCCC=CC1,saldana11
3308,cyclooctane,303.0,1,C1CCCCCCC1,saldana11
3309,"cyclopenta-1,3-diene",273.0,1,C1C=CC=C1,saldana11
3310,cyclopentane,236.0,1,C1CCCC1,saldana11
3311,dicyclopentadiene,305.0,1,C1=CC2C3C=CC(C3)C2C1,saldana11
3312,ethenylnorbornene,300.0,1,C=CC1CC2C=CC1C2,saldana11
3313,ethylcyclohexane,295.0,1,CCC1CCCCC1,saldana11
3314,ethylcyclopentane,269.0,1,CCC1CCCC1,saldana11
3315,isopropylcyclohexane,308.0,1,CC(C)C1CCCCC1,saldana11
3316,isopropylcyclopentane,287.0,1,CC(C)C1CCCC1,saldana11
3317,methylcyclohexane,267.0,1,CC1CCCCC1,saldana11
3318,methylcyclopentadiene,322.0,1,CC1=CC=CC1,saldana11
3319,methylcyclopentane,246.0,1,CC1CCCC1,saldana11
3320,methylenecyclopentane,254.0,1,C=C1CCCC1,saldana11
3321,pentylcyclohexane,339.0,1,CCCCCC1CCCCC1,saldana11
3322,prop-2-enylcyclohexane,302.0,1,C=CCC1CCCCC1,saldana11
3323,prop-2-enylcyclopentane,285.0,1,C=CCC1CCCC1,saldana11
3324,propylcyclohexane,304.0,1,CCCC1CCCCC1,saldana11
3325,propylcyclopentane,289.0,1,CCCC1CCCC1,saldana11
3326,terpinolene,311.0,1,CC1=CCC(=C(C)C)CC1,saldana11
3327,tert-butylcyclohexane,315.0,1,CC(C)(C)C1CCCCC1,saldana11
3328,"trans-1,2-dimethylcyclohexane",280.0,1,C[C@@H]1CCCC[C@H]1C,saldana11
3329,"trans-1,3-dimethylcyclohexane",281.0,1,C[C@@H]1CCC[C@@H](C)C1,saldana11
3330,"trans-1,4-dimethylcyclohexane",284.0,1,C[C@@H]1CC[C@@H](C)CC1,saldana11
3331,trans-decalin,325.0,1,C1CC[C@@H]2CCCC[C@H]2C1,saldana11
3332,"(2E,4E)-hexa-2,4-diene",266.0,1,C/C=C/C=C/C,saldana11
3333,(2E)-2-hexene,246.0,1,CCC/C=C/C,saldana11
3334,(2E)-2-pentene,228.0,1,CC/C=C/C,saldana11
3335,(2E)-3-heptene,267.0,1,CCC/C=C/CC,saldana11
3336,(2E)-3-methylpent-2-ene,246.0,1,CC/C(=C/C)/C,saldana11
3337,(2E)-4-methylpent-2-ene,239.0,1,C/C=C/C(C)C,saldana11
3338,(2E)-hept-2-ene,272.0,1,CCCC/C=C/C,saldana11
3339,(2E)-oct-2-ene,294.0,1,CCCCC/C=C/C,saldana11
3340,"(2Z,4E)-hexa-2,4-diene",266.0,1,C/C=C/C=C\C,saldana11
3341,(2Z)-3-methylpent-2-ene,245.0,1,CC/C(=C\C)/C,saldana11
3342,(2Z)-4-methylpent-2-ene,237.0,1,C/C=C\C(C)C,saldana11
3343,(2Z)-but-2-ene,200.0,1,C/C=C\C,saldana11
3344,(2Z)-hept-2-ene,265.0,1,CCCC/C=C\C,saldana11
3345,(2Z)-hex-2-ene,247.0,1,CCC/C=C\C,saldana11
3346,(2Z)-oct-2-ene,294.0,1,CCCCC/C=C\C,saldana11
3347,(2Z)-pent-2-ene,226.0,1,CC/C=C\C,saldana11
3348,"(3E)-1,3-hexadiene",254.0,1,CC/C=C/C=C,saldana11
3349,(3E)-3-hexene,261.0,1,CC/C=C/CC,saldana11
3350,(3E)-3-octene,282.0,1,CCCC/C=C/CC,saldana11
3351,(3Z)-hept-3-ene,264.0,1,CCC/C=C\CC,saldana11
3352,(3Z)-hex-3-ene,245.0,1,CC/C=C\CC,saldana11
3353,(3Z)-oct-3-ene,290.0,1,CCCC/C=C\CC,saldana11
3354,"(4E)-hexa-1,4-diene",248.0,1,C=CC/C=C/C,saldana11
3355,(4E)-oct-4-ene,281.0,1,CCC/C=C/CCC,saldana11
3356,"(4Z)-hexa-1,4-diene",248.0,1,C=CC/C=C\C,saldana11
3357,(4Z)-oct-4-ene,290.0,1,CCC/C=C\CCC,saldana11
3358,1-methylcyclohex-1-ene,272.0,1,CC1=CCCCC1,saldana11
3359,1-methylcyclopent-1-ene,256.0,1,CC1=CCCC1,saldana11
3360,"1,3-dimethylcyclohex-1-ene",285.0,1,CC1CCCC(=C1)C,saldana11
3361,2-ethylbut-1-ene,247.0,1,CCC(=C)CC,saldana11
3362,2-ethylpent-1-ene,263.0,1,CCCC(=C)CC,saldana11
3363,2-methylbut-1-ene,226.0,1,CCC(=C)C,saldana11
3364,2-methylbut-2-ene,228.0,1,CC=C(C)C,saldana11
3365,2-methylhept-1-ene,283.0,1,CCCCCC(=C)C,saldana11
3366,2-methylhept-2-ene,281.0,1,CCCCC=C(C)C,saldana11
3367,2-methylhex-1-ene,267.0,1,CCCCC(=C)C,saldana11
3368,2-methylpent-1-ene,247.0,1,CCCC(=C)C,saldana11
3369,2-methylpent-2-ene,250.0,1,CCC=C(C)C,saldana11
3370,2-methylprop-1-ene,197.0,1,CC(=C)C,saldana11
3371,"2,3-dimethylbut-1-ene",255.0,1,CC(=C)C(C)C,saldana11
3372,"2,3-dimethylbut-2-ene",257.0,1,CC(=C(C)C)C,saldana11
3373,"2,3-dimethylbuta-1,3-diene",251.0,1,CC(=C)C(=C)C,saldana11
3374,"2,3-dimethylhex-1-ene",281.0,1,CCCC(C)C(=C)C,saldana11
3375,"2,3-dimethylpent-1-ene",256.0,1,CCC(C)C(=C)C,saldana11
3376,"2,3,3-trimethylbut-1-ene",256.0,1,CC(=C)C(C)(C)C,saldana11
3377,"2,3,4-trimethylpent-2-ene",275.0,1,CC(C)C(=C(C)C)C,saldana11
3378,"2,4,4-trimethylpent-1-ene",268.0,1,CC(=C)CC(C)(C)C,saldana11
3379,"2,4,4-trimethylpent-2-ene",272.0,1,CC(=CC(C)(C)C)C,saldana11
3380,"2,5-dimethylhexa-1,5-diene",280.0,1,CC(=C)CCC(=C)C,saldana11
3381,"2,5-dimethylhexa-2,4-diene",297.0,1,CC(=CC=C(C)C)C,saldana11
3382,3-ethylhex-1-ene,274.0,1,CCCC(CC)C=C,saldana11
3383,3-ethylpent-1-ene,256.0,1,CCC(CC)C=C,saldana11
3384,3-ethylpent-2-ene,267.0,1,CCC(=CC)CC,saldana11
3385,3-methylbut-1-ene,217.0,1,C=CC(C)C,saldana11
3386,"3-methylbuta-1,2-diene",261.0,1,C=C=C(C)C,saldana11
3387,3-methylcyclohex-1-ene,270.0,1,CC1CCCC=C1,saldana11
3388,3-methylhex-1-ene,255.0,1,CC(CCC)C=C,saldana11
3389,3-methylpent-1-ene,245.0,1,CC(CC)C=C,saldana11
3390,"3-methylpenta-1,3-diene",245.0,1,CC=C(C)C=C,saldana11
3391,"3,3-dimethylbut-1-ene",245.0,1,C=CC(C)(C)C,saldana11
3392,4-ethenylcyclohex-1-ene,289.0,1,C=CC1CCC=CC1,saldana11
3393,4-methylhept-1-ene,275.0,1,CCCC(C)CC=C,saldana11
3394,4-methylhex-1-ene,258.0,1,CC(CC=C)CC,saldana11
3395,4-methylpent-1-ene,242.0,1,C=CCC(C)C,saldana11
3396,"4-methylpenta-1,3-diene",255.0,1,C=CC=C(C)C,saldana11
3397,"4,4-dimethylpent-1-ene",261.0,1,C=CCC(C)(C)C,saldana11
3398,5-methylhex-1-ene,263.0,1,C=CCCC(C)C,saldana11
3399,7-methyloct-1-ene,291.0,1,C=CCCCCC(C)C,saldana11
3400,but-1-ene,193.0,1,CCC=C,saldana11
3401,"buta-1,3-diene",197.0,1,C=CC=C,saldana11
3402,cycloheptene,267.0,1,C1CCC=CCC1,saldana11
3403,cyclohexene,243.0,1,C1CCC=CC1,saldana11
3404,cyclooctene,298.0,1,C1CCCC=CCC1,saldana11
3405,cyclopentene,244.0,1,C1CC=CC1,saldana11
3406,dec-1-ene,311.0,1,CCCCCCCCC=C,saldana11
3407,dodec-1-ene,346.0,1,CCCCCCCCCCC=C,saldana11
3408,hept-1-ene,265.0,1,CCCCCC=C,saldana11
3409,"hepta-1,6-diene",263.0,1,C=CCCCC=C,saldana11
3410,heptadec-1-ene,408.0,1,CCCCCCCCCCCCCCCC=C,saldana11
3411,hex-1-ene,247.0,1,CCCCC=C,saldana11
3412,"hexa-1,5-diene",246.0,1,C=CCCC=C,saldana11
3413,hexadec-1-ene,405.0,1,CCCCCCCCCCCCCCC=C,saldana11
3414,isoprene,219.0,1,C=CC(=C)C,saldana11
3415,non-1-ene,298.0,1,CCCCCCCC=C,saldana11
3416,"nona-1,8-diene",299.0,1,C=CCCCCCC=C,saldana11
3417,oct-1-ene,281.0,1,CCCCCCC=C,saldana11
3418,"octa-1,7-diene",282.0,1,C=CCCCCC=C,saldana11
3419,octadec-1-ene,421.0,1,CCCCCCCCCCCCCCCCC=C,saldana11
3420,pent-1-ene,222.0,1,CCCC=C,saldana11
3421,pentadec-1-ene,385.0,1,CCCCCCCCCCCCCC=C,saldana11
3422,propylene,165.0,1,CC=C,saldana11
3423,tetradec-1-ene,370.0,1,CCCCCCCCCCCCC=C,saldana11
3424,tridec-1-ene,352.0,1,CCCCCCCCCCCC=C,saldana11
3425,undec-1-ene,327.0,1,CCCCCCCCCC=C,saldana11
3426,2-methylheptane,277.0,1,CCCCCC(C)C,saldana11
3427,2-methylhexane,255.0,1,CCCCC(C)C,saldana11
3428,2-methylnonane,314.0,1,CCCCCCCC(C)C,saldana11
3429,2-methyloctane,297.0,1,CCCCCCC(C)C,saldana11
3430,"2,2-dimethylbutane",225.0,1,CCC(C)(C)C,saldana11
3431,"2,2-dimethylheptane",297.0,1,CCCCCC(C)(C)C,saldana11
3432,"2,2-dimethylhexane",269.0,1,CCCCC(C)(C)C,saldana11
3433,"2,2-dimethyloctane",304.0,1,CCCCCCC(C)(C)C,saldana11
3434,"2,2-dimethylpentane",258.0,1,CCCC(C)(C)C,saldana11
3435,"2,2-dimethylpropane",208.0,1,CC(C)(C)C,saldana11
3436,"2,2,3-trimethylbutane",249.0,1,CC(C)C(C)(C)C,saldana11
3437,"2,2,3-trimethylhexane",288.0,1,CCCC(C)C(C)(C)C,saldana11
3438,"2,2,3-trimethylpentane",270.0,1,CCC(C)C(C)(C)C,saldana11
3439,"2,2,3,3-tetramethylbutane",278.0,1,CC(C)(C)C(C)(C)C,saldana11
3440,"2,2,3,3-tetramethylhexane",304.0,1,CCCC(C)(C)C(C)(C)C,saldana11
3441,"2,2,3,3-tetramethylpentane",289.0,1,CCC(C)(C)C(C)(C)C,saldana11
3442,"2,2,3,4-tetramethylhexane",304.0,1,CCC(C)C(C)C(C)(C)C,saldana11
3443,"2,2,3,4-tetramethylpentane",284.0,1,CC(C)C(C)C(C)(C)C,saldana11
3444,"2,2,4-trimethylhexane",288.0,1,CCC(C)CC(C)(C)C,saldana11
3445,"2,2,4-trimethylpentane",261.0,1,CC(C)CC(C)(C)C,saldana11
3446,"2,2,4,4-tetramethylhexane",304.0,1,CCC(C)(C)CC(C)(C)C,saldana11
3447,"2,2,4,4-tetramethylpentane",276.0,1,CC(C)(C)CC(C)(C)C,saldana11
3448,"2,2,4,4,6,8,8-heptamethylnonane",368.0,1,CC(CC(C)(C)C)CC(C)(C)CC(C)(C)C,saldana11
3449,"2,2,5-trimethylhexane",286.0,1,CC(C)CCC(C)(C)C,saldana11
3450,"2,2,5,5-tetramethylhexane",289.0,1,CC(C)(C)CCC(C)(C)C,saldana11
3451,"2,3-dimethylbutane",244.0,1,CC(C)C(C)C,saldana11
3452,"2,3-dimethylheptane",288.0,1,CCCCC(C)C(C)C,saldana11
3453,"2,3-dimethylhexane",278.0,1,CCCC(C)C(C)C,saldana11
3454,"2,3-dimethyloctane",309.0,1,CCCCCC(C)C(C)C,saldana11
3455,"2,3-dimethylpentane",258.0,1,CCC(C)C(C)C,saldana11
3456,"2,3,3-trimethylhexane",288.0,1,CCCC(C)(C)C(C)C,saldana11
3457,"2,3,3-trimethylpentane",273.0,1,CCC(C)(C)C(C)C,saldana11
3458,"2,3,3,4-tetramethylhexane",304.0,1,CCC(C)C(C)(C)C(C)C,saldana11
3459,"2,3,3,4-tetramethylpentane",284.0,1,CC(C)C(C)(C)C(C)C,saldana11
3460,"2,3,4-trimethylhexane",288.0,1,CCC(C)C(C)C(C)C,saldana11
3461,"2,3,4-trimethylpentane",273.0,1,CC(C)C(C)C(C)C,saldana11
3462,"2,3,4,4-tetramethylhexane",304.0,1,CCC(C)(C)C(C)C(C)C,saldana11
3463,"2,3,4,5-tetramethylhexane",304.0,1,CC(C)C(C)C(C)C(C)C,saldana11
3464,"2,3,5-trimethylheptane",304.0,1,CCC(C)CC(C)C(C)C,saldana11
3465,"2,3,5-trimethylhexane",288.0,1,CC(C)CC(C)C(C)C,saldana11
3466,"2,4-dimethylheptane",288.0,1,CCCC(C)CC(C)C,saldana11
3467,"2,4-dimethylhexane",283.0,1,CCC(C)CC(C)C,saldana11
3468,"2,4-dimethylpentane",261.0,1,CC(C)CC(C)C,saldana11
3469,"2,4,4-trimethylhexane",288.0,1,CCC(C)(C)CC(C)C,saldana11
3470,"2,4,5-trimethylheptane",304.0,1,CCC(C)C(C)CC(C)C,saldana11
3471,"2,4,6-trimethylheptane",304.0,1,CC(C)CC(C)CC(C)C,saldana11
3472,"2,5-dimethylheptane",288.0,1,CCC(C)CCC(C)C,saldana11
3473,"2,5-dimethylhexane",271.0,1,CC(C)CCC(C)C,saldana11
3474,"2,6-dimethylheptane",299.0,1,CC(C)CCCC(C)C,saldana11
3475,"2,6-dimethyloctane",307.0,1,CCC(C)CCCC(C)C,saldana11
3476,"2,6,10,15,19,23-hexamethyltetracosane",490.0,1,CC(CCCCC(C)CCCC(C)CCCC(C)C)CCCC(C)CCCC(C)C,saldana11
3477,"2,7-dimethyloctane",314.0,1,CC(C)CCCCC(C)C,saldana11
3478,3-ethyl-2-methylpentane,276.0,1,CCC(CC)C(C)C,saldana11
3479,"3-ethyl-2,2-dimethylhexane",311.0,1,CCCC(CC)C(C)(C)C,saldana11
3480,"3-ethyl-2,2-dimethylpentane",286.0,1,CCC(CC)C(C)(C)C,saldana11
3481,"3-ethyl-2,3-dimethylpentane",288.0,1,CCC(C)(CC)C(C)C,saldana11
3482,"3-ethyl-2,3,4-trimethylpentane",304.0,1,CCC(C)(C(C)C)C(C)C,saldana11
3483,"3-ethyl-2,4-dimethylpentane",288.0,1,CCC(C(C)C)C(C)C,saldana11
3484,3-ethyl-3-methylheptane,314.0,1,CCCCC(C)(CC)CC,saldana11
3485,3-ethyl-3-methylpentane,276.0,1,CCC(C)(CC)CC,saldana11
3486,3-ethyl-4-methylhexane,288.0,1,CCC(CC)C(C)CC,saldana11
3487,3-ethyl-5-methylheptane,304.0,1,CCC(C)CC(CC)CC,saldana11
3488,3-ethylhexane,278.0,1,CCCC(CC)CC,saldana11
3489,3-ethylpentane,261.0,1,CCC(CC)CC,saldana11
3490,3-methylheptane,279.0,1,CCCCC(C)CC,saldana11
3491,3-methylhexane,269.0,1,CCCC(C)CC,saldana11
3492,3-methylnonane,311.0,1,CCCCCCC(C)CC,saldana11
3493,3-methyloctane,297.0,1,CCCCCC(C)CC,saldana11
3494,3-methylpentane,241.0,1,CCC(C)CC,saldana11
3495,"3,3-diethylpentane",294.0,1,CCC(CC)(CC)CC,saldana11
3496,"3,3-dimethylhexane",272.0,1,CCCC(C)(C)CC,saldana11
3497,"3,3-dimethyloctane",314.0,1,CCCCCC(C)(C)CC,saldana11
3498,"3,3-dimethylpentane",254.0,1,CCC(C)(C)CC,saldana11
3499,"3,3,4-trimethylhexane",288.0,1,CCC(C)C(C)(C)CC,saldana11
3500,"3,3,4,4-tetramethylhexane",304.0,1,CCC(C)(C)C(C)(C)CC,saldana11
3501,"3,3,5-trimethylheptane",304.0,1,CCC(C)CC(C)(C)CC,saldana11
3502,"3,4-dimethylheptane",288.0,1,CCCC(C)C(C)CC,saldana11
3503,"3,4-dimethylhexane",277.0,1,CCC(C)C(C)CC,saldana11
3504,"3,4,5-trimethylheptane",304.0,1,CCC(C)C(C)C(C)CC,saldana11
3505,"3,5-dimethylheptane",288.0,1,CCC(C)CC(C)CC,saldana11
3506,"3,5-dimethyloctane",314.0,1,CCCC(C)CC(C)CC,saldana11
3507,4-ethyl-3-methylheptane,314.0,1,CCCC(CC)C(C)CC,saldana11
3508,4-ethylheptane,288.0,1,CCCC(CC)CCC,saldana11
3509,4-ethyloctane,314.0,1,CCCCC(CC)CCC,saldana11
3510,4-methylheptane,279.0,1,CCCC(C)CCC,saldana11
3511,4-methylnonane,311.0,1,CCCCCC(C)CCC,saldana11
3512,4-methyloctane,295.0,1,CCCCC(C)CCC,saldana11
3513,4-propylheptane,314.0,1,CCCC(CCC)CCC,saldana11
3514,"4,4-dimethylheptane",288.0,1,CCCC(C)(C)CCC,saldana11
3515,5-methylnonane,312.0,1,CCCCC(C)CCCC,saldana11
3516,isobutane,190.0,1,CC(C)C,saldana11
3517,isohexane,250.0,1,CCCC(C)C,saldana11
3518,isopentane,217.0,1,CCC(C)C,saldana11
3519,n-decane,319.0,1,CCCCCCCCCC,saldana11
3520,n-dodecane,347.0,1,CCCCCCCCCCCC,saldana11
3521,n-heptadecane,421.0,1,CCCCCCCCCCCCCCCCC,saldana11
3522,n-heptane,269.0,1,CCCCCCC,saldana11
3523,n-hexadecane,408.0,1,CCCCCCCCCCCCCCCC,saldana11
3524,n-hexane,252.0,1,CCCCCC,saldana11
3525,n-nonadecane,441.0,1,CCCCCCCCCCCCCCCCCCC,saldana11
3526,n-nonane,304.0,1,CCCCCCCCC,saldana11
3527,n-octadecane,438.0,1,CCCCCCCCCCCCCCCCCC,saldana11
3528,n-octane,286.0,1,CCCCCCCC,saldana11
3529,n-pentadecane,388.0,1,CCCCCCCCCCCCCCC,saldana11
3530,n-pentane,233.0,1,CCCCC,saldana11
3531,n-tetradecane,373.0,1,CCCCCCCCCCCCCC,saldana11
3532,n-tridecane,352.0,1,CCCCCCCCCCCCC,saldana11
3533,n-undecane,338.0,1,CCCCCCCCCCC,saldana11
3534,ALLYLTRICHLOROGERMANE,328.15,1,C=CC[Ge](Cl)(Cl)Cl,gelest_germanium
3535,ALLYLTRIETHYLGERMANE,321.15,1,C=CC[Ge](CC)(CC)CC,gelest_germanium
3536,ALLYLTRIMETHYLGERMANE,274.15,1,C=CC[Ge](C)(C)C,gelest_germanium
3537,BIS(CHLOROMETHYL)DIMETHYLGERMANE,324.15,1,C[Ge](C)(CCl)CCl,gelest_germanium
3538,t-BUTYLDIMETHYLCHLOROGERMANE,307.15,1,CC(C)(C)[Ge](C)(C)Cl,gelest_germanium
3539,n-BUTYLTRICHLOROGERMANE,355.15,1,CCCC[Ge](Cl)(Cl)Cl,gelest_germanium
3540,DI-n-BUTYLDICHLOROGERMANE,380.15,1,CCCC[Ge](Cl)(Cl)CCCC,gelest_germanium
3541,DICHLOROMETHYLTRIMETHYLGERMANE,306.15,1,C[Ge](C)(C)C(Cl)Cl,gelest_germanium
3542,DIETHYLDICHLOROGERMANE,325.15,1,CC[Ge](Cl)(Cl)CC,gelest_germanium
3543,DIMETHYLAMINOTRIMETHYLGERMANE,263.15,1,CN(C)[Ge](C)(C)C,gelest_germanium
3544,DIPHENYLDICHLOROGERMANE,433.15,1,Cl[Ge](Cl)(c1ccccc1)c1ccccc1,gelest_germanium
3545,DIPHENYLGERMANE,377.15,1,c1ccc([GeH2]c2ccccc2)cc1,gelest_germanium
3546,ETHYLTRICHLOROGERMANE,324.15,1,CC[Ge](Cl)(Cl)Cl,gelest_germanium
3547,HEXAMETHYLDIGERMANE,287.15,1,C[Ge](C)(C)[Ge](C)(C)C,gelest_germanium
3548,METHACRYLOXYMETHYLTRIMETHYLGERMANE,336.15,1,C=C(C)C(=O)OC[Ge](C)(C)C,gelest_germanium
3549,METHYLTRICHLOROGERMANE,283.15,1,C[Ge](Cl)(Cl)Cl,gelest_germanium
3550,METHYLTRIETHOXYGERMANE,313.15,1,CCO[Ge](C)(OCC)OCC,gelest_germanium
3551,TETRAALLYLGERMANE,343.15,1,C=CC[Ge](CC=C)(CC=C)CC=C,gelest_germanium
3552,TETRA-n-BUTOXYGERMANE,385.15,1,CCCCO[Ge](OCCCC)(OCCCC)OCCCC,gelest_germanium
3553,TETRA-n-BUTYLGERMANE,363.15,1,CCCC[Ge](CCCC)(CCCC)CCCC,gelest_germanium
3554,TETRAETHOXYGERMANE,335.15,1,CCO[Ge](OCC)(OCC)OCC,gelest_germanium
3555,TETRAETHYLGERMANE,315.15,1,CC[Ge](CC)(CC)CC,gelest_germanium
3556,TETRAKIS(DIMETHYLAMINO)GERMANE,307.15,1,CN(C)[Ge](N(C)C)(N(C)C)N(C)C,gelest_germanium