compound,flashpoint,pure substance,smiles,source
3-Pyridinecarboxamide,429.15,1.0,NC(=O)c1cccnc1,le15
"1,2,3,4-Butanetetrol, (2R,3S)-rel-",481.95,1.0,OC[C@H](O)[C@H](O)CO,le15
"4-Pyridinecarboxaldehyde, oxime",345.25,1.0,ON=Cc1ccncc1,le15
"2-Pyridinecarboxaldehyde, oxime",346.65,1.0,ON=Cc1ccccn1,le15
4-Pyridinecarboxamide,429.15,1.0,NC(=O)c1ccncc1,le15
"1,2-Oxathiolane, 2,2-dioxide",406.931,1.0,O=S1(=O)CCCO1,le15
Phenethyl alcohol,371.55,1.0,OCCc1ccccc1,le15
"Benzyl alcohol, o-methyl- (8CI)",377.55,1.0,Cc1ccccc1CO,le15
"Phenol, 2-ethyl-",351.45,1.0,CCc1ccccc1O,le15
"Phenol, 3,4-dimethyl-",367.15,1.0,Cc1ccc(O)cc1C,le15
1-methoxy-3-methylbenzene,327.15,1.0,COc1cccc(C)c1,le15
"Benzene, 1-methoxy-4-methyl-",326.45,1.0,COc1ccc(C)cc1,le15
"Ether, benzyl methyl (8CI)",326.15,1.0,COCc1ccccc1,le15
"Phenol, 2,6-dimethyl-",351.45,1.0,Cc1cccc(C)c1O,le15
1-methoxy-2-methylbenzene,324.15,1.0,COc1ccccc1C,le15
"Benzenemethanol, 3-methyl-",378.75,1.0,Cc1cccc(CO)c1,le15
4-Methyl-benzenemethanol (9CI),378.15,1.0,Cc1ccc(CO)cc1,le15
"Phenol, m-ethyl- (8CI)",367.15,1.0,CCc1cccc(O)c1,le15
1-phenylethanol,358.15,1.0,CC(O)c1ccccc1,le15
"Ether, 1,3,5-cycloheptatrien-1-yl methyl (7CI,8CI)",345.65,1.0,COC1=CC=CC=CC1,le15
"Benzene, ethoxy-",328.15,1.0,CCOc1ccccc1,le15
"Phenol, 3,5-dimethyl-",365.45,1.0,Cc1cc(C)cc(O)c1,le15
"1,4-Benzenediamine, 2-methyl-",413.75,1.0,Cc1cc(N)ccc1N,le15
"1,3-Benzenediamine, 4-methyl-",422.65,1.0,Cc1ccc(N)cc1N,le15
"1,2-Benzenediamine, 4-methyl-",405.25,1.0,Cc1ccc(N)c(N)c1,le15
"1,3-Benzenediamine, 2-methyl-",421.45,1.0,Cc1c(N)cccc1N,le15
"4-Pyridinamine, N,N-dimethyl-",344.85,1.0,CN(C)c1ccncc1,le15
"2,6-dimethylpyridin-4-amine",399.607,1.0,Cc1cc(N)cc(C)n1,le15
"2-Pyridinamine, N,N-dimethyl- (9CI)",347.15,1.0,CN(C)c1ccccn1,le15
"2,3,5-Trimethylpyrazine",327.5499999999999,1.0,Cc1cnc(C)c(C)n1,le15
1-methyl-1-phenylhydrazine,366.75,1.0,CN(N)c1ccccc1,le15
"1,2-Benzenediamine, 3-methyl-",404.25,1.0,Cc1cccc(N)c1N,le15
Ethyl sulfone (8CI),391.55,1.0,CCS(=O)(=O)CC,le15
"Silane, trimethoxy-",268.75,1.0,CO[SiH](OC)OC,le15
prop-2-ynylcyclohexane,310.65,1.0,C#CCC1CCCCC1,le15
methyl(phenyl)silicon,311.65,1.0,C[Si]c1ccccc1,le15
Ethyl disulfide (8CI),313.15,1.0,CCSSCC,le15
"1,2-bis(methylsulfanyl)ethane",333.0499999999999,1.0,CSCCSC,le15
DiethylDisulfide,313.0,1.0,CCSSCC,le15
methyl 2-chloro-2-oxoacetate,319.85,1.0,COC(=O)C(=O)Cl,le15
"Carbonochloridic acid, 1-methylethyl ester",298.15,1.0,CC(C)OC(=O)Cl,le15
propyl carbonochloridate,302.25,1.0,CCCOC(=O)Cl,le15
"Butyric acid, 4-chloro- (8CI)",374.25,1.0,O=C(O)CCCCl,le15
methyl 3-chloropropanoate,313.65,1.0,COC(=O)CCCl,le15
2-ethoxyacetyl chloride,480.55,1.0,CCOCC(=O)Cl,le15
methyl 2-chloropropanoate,310.75,1.0,COC(=O)C(C)Cl,le15
"Acetic acid, chloro-, ethyl ester",338.75,1.0,CCOC(=O)CCl,le15
Ethylchloroacetate,326.0,1.0,CCOC(=O)CCl,le15
Acetyl bromide,322.75,1.0,CC(=O)Br,le15
"Acetaldehyde, bromo-",346.75,1.0,O=CCBr,le15
"1,4-dichlorobut-2-yne",433.15,1.0,ClCC#CCCl,le15
"2,3-dichlorobuta-1,3-diene",310.35,1.0,C=C(Cl)C(=C)Cl,le15
"Propane, 2-bromo-",292.5499999999999,1.0,CC(C)Br,le15
3-Pyridinecarboxylic acid,403.85,1.0,O=C(O)c1cccnc1,le15
4-Pyridinecarboxylic acid,466.45,1.0,O=C(O)c1ccncc1,le15
2-Pyrazinecarboxamide,443.05,1.0,NC(=O)c1cnccn1,le15
"Benzenamine, 2-methoxy-",380.15,1.0,COc1ccccc1N,le15
2-(2-Pyridyl)ethanol,365.95,1.0,OCCc1ccccn1,le15
"Phenol, 4-(methylamino)- (9CI)",421.75,1.0,CNc1ccc(O)cc1,le15
"Benzenamine, 3-methoxy-",382.75,1.0,COc1cccc(N)c1,le15
"Benzenemethanol, 3-amino- (9CI)",402.75,1.0,Nc1cccc(CO)c1,le15
"Phenol, 5-amino-2-methyl-",389.45,1.0,Cc1ccc(N)cc1O,le15
"Phenol, 2-amino-3-methyl-",372.05,1.0,Cc1cccc(O)c1N,le15
"Phenol, 2-amino-5-methyl-",372.95,1.0,Cc1ccc(N)c(O)c1,le15
4-Pyridineethanol,374.65,1.0,OCCc1ccncc1,le15
"Benzenemethanol, 2-amino-",399.45,1.0,Nc1ccccc1CO,le15
"p-Cresol, 2-amino- (8CI)",371.75,1.0,Cc1ccc(O)c(N)c1,le15
"Benzenamine, 4-methoxy-",377.65,1.0,COc1ccc(N)cc1,le15
"Ethanone, 1-(1-methyl-1H-pyrrol-2-yl)-",349.35,1.0,CC(=O)c1cccn1C,le15
"3-ethyl-2,4-dimethyl-1H-pyrrole",344.15,1.0,CCc1c(C)c[nH]c1C,le15
1-butylpyrrole,330.0499999999999,1.0,CCCCn1cccc1,le15
"Propane, 2-chloro-2-nitro-",310.5499999999999,1.0,CC(C)(Cl)[N+](=O)[O-],le15
2-chloro-1-nitropropane,332.95,1.0,CC(Cl)C[N+](=O)[O-],le15
"Propane, 1-chloro-2-nitro-",332.95,1.0,CC(CCl)[N+](=O)[O-],le15
"Propionitrile, 2,3-dichloro- (6CI,7CI,8CI)",357.04999999999984,1.0,N#CC(Cl)CCl,le15
"Phosphorous acid, trimethyl ester",356.85,1.0,COP(OC)OC,le15
"Phosphonic acid, methyl-, dimethyl ester",342.0499999999999,1.0,COP(C)(=O)OC,le15
"Methanol, phosphinidynetri- (7CI,8CI)",415.45,1.0,OCP(CO)CO,le15
Trimethylphosphite,300.0,1.0,COP(OC)OC,le15
"Acetic acid, 2,2-difluoro-, ethyl ester",298.15,1.0,CCOC(=O)C(F)F,le15
benzoyl fluoride,327.45,1.0,O=C(F)c1ccccc1,le15
"Benzaldehyde, m-fluoro- (8CI)",329.85,1.0,O=Cc1cccc(F)c1,le15
"Benzaldehyde, p-fluoro- (8CI)",329.85,1.0,O=Cc1ccc(F)cc1,le15
"Benzaldehyde, o-fluoro- (8CI)",328.15,1.0,O=Cc1ccccc1F,le15
"1,3,2-Dioxathiolane, 2,2-dioxide",366.65,1.0,O=S1(=O)OCCO1,le15
"Phenol, 2-methoxy-",355.35,1.0,COc1ccccc1O,le15
"1,4-Benzenediol, 2-methyl-",413.35,1.0,Cc1cc(O)ccc1O,le15
"Phenol, 3-methoxy-",392.25,1.0,COc1cccc(O)c1,le15
"Phenol, 4-methoxy-",393.95,1.0,COc1ccc(O)cc1,le15
"1,2-Benzenediol, 4-methyl- (9CI)",394.25,1.0,Cc1ccc(O)c(O)c1,le15
"1,2-Benzenediol, 3-methyl-",389.85,1.0,Cc1cccc(O)c1O,le15
"4-methylbenzene-1,3-diol",403.25,1.0,Cc1ccc(O)cc1O,le15
"1,3-Benzenediol, 5-methyl-",432.15,1.0,Cc1cc(O)cc(O)c1,le15
"1,3-Benzenediol, 2-methyl-",416.05,1.0,Cc1c(O)cccc1O,le15
"Benzyl alcohol, m-hydroxy- (8CI)",420.485,1.0,OCc1cccc(O)c1,le15
"4,6-dimethylpyran-2-one",363.25,1.0,Cc1cc(C)oc(=O)c1,le15
"2,6-dimethylpyran-4-one",376.55,1.0,Cc1cc(=O)cc(C)o1,le15
"Benzyl alcohol, p-hydroxy- (8CI)",418.95,1.0,OCc1ccc(O)cc1,le15
ethyl methanesulfonate,373.15,1.0,CCOS(C)(=O)=O,le15
"Cyclohexanol, 1-ethynyl-",346.15,1.0,C#CC1(O)CCCCC1,le15
"3-Cyclohexene-1-carboxaldehyde, 6-methyl-",326.35,1.0,CC1CC=CCC1C=O,le15
"7-Oxabicyclo(4.1.0)heptane, 3-ethenyl-",321.25,1.0,C=CC1CCC2OC2C1,le15
1-(cyclohexen-1-yl)ethanone,346.35,1.0,CC(=O)C1=CCCCC1,le15
"3,5-dimethylcyclohex-2-en-1-one",352.15,1.0,CC1=CC(=O)CC(C)C1,le15
2tertbutylfuran,280.0,1.0,CC(C)(C)c1ccco1,le15
Benzenemethanethiol,343.15,1.0,SCc1ccccc1,le15
"Sulfide, methyl phenyl (6CI,8CI)",330.35,1.0,CSc1ccccc1,le15
3-methylbenzenethiol,345.95,1.0,Cc1cccc(S)c1,le15
2-methylbenzenethiol,337.0499999999999,1.0,Cc1ccccc1S,le15
4-methylbenzenethiol,342.65,1.0,Cc1ccc(S)cc1,le15
Benzenemethanethiol,343.0,1.0,SCc1ccccc1,le15
bicyclo[3.3.1]nonane,310.45,1.0,C1CC2CCCC(C1)C2,le15
"1H-Indene, octahydro-",310.45,1.0,C1CCC2CCCC2C1,le15
non-2-yne,312.15,1.0,CC#CCCCCCC,le15
non-3-yne,310.75,1.0,CCC#CCCCCC,le15
non-4-yne,311.45,1.0,CCCC#CCCCC,le15
"2-chloro-1,1-dimethoxyethane",302.039,1.0,COC(CCl)OC,le15
"Ethanol, 2-(2-chloroethoxy)-",363.75,1.0,OCCOCCCl,le15
"Formic acid, chlorothio-, S-ethyl ester (7CI,8CI)",303.75,1.0,CCSC(=O)Cl,le15
1-chloro-5-fluoropentane,310.0499999999999,1.0,FCCCCCCl,le15
"Sulfide, 2-chloroethyl ethyl (8CI)",325.15,1.0,CCSCCCl,le15
"2-Propenal, 3,3-dichloro- (9CI)",327.15,1.0,O=CC=C(Cl)Cl,le15
2-Bromo-1-ethanol,313.15,1.0,OCCBr,le15
bromo(methoxy)methane,299.85,1.0,COCBr,le15
"2-Butene, 1,4-dichloro-",327.5499999999999,1.0,ClCC=CCCl,le15
"1-Propene, 3-chloro-2-(chloromethyl)- (9CI)",309.85,1.0,C=C(CCl)CCl,le15
"(Z)-1,2-dichlorobut-2-ene",305.5499999999999,1.0,C/C=C(\Cl)CCl,le15
"1H-Pyrrole-2,5-dione, 1-ethyl-",346.15,1.0,CCN1C(=O)C=CC1=O,le15
"2-Propenoic acid, 2-cyano-, ethyl ester",352.35,1.0,C=C(C#N)C(=O)OCC,le15
"s-Triazine, 2,4-diamino-6-methyl- (8CI)",525.15,1.0,Cc1nc(N)nc(N)n1,le15
4-Fluoro-N-methylaniline,336.65,1.0,CNc1ccc(F)cc1,le15
1-Hydroxy-1-cyclohexanecarbonitrile,385.25,1.0,N#CC1(O)CCCCC1,le15
"Benzenethiol, 2-amino-",368.95,1.0,Nc1ccccc1S,le15
8-methyl-8-azabicyclo[3.2.1]octane,315.35,1.0,CN1C2CCCC1CC2,le15
"2,3,3a,4,5,6,7,7a-octahydro-1H-indole",332.5499999999999,1.0,C1CCC2NCCC2C1,le15
Octanenitrile,346.0,1.0,CCCCCCCC#N,le15
"Phosphoric acid, dimethyl ester",323.5499999999999,1.0,COP(=O)([O-])OC,le15
"Phosphoric acid, monoethyl ester",379.55,1.0,CCOP(=O)([O-])[O-],le15
Bis-(hydroxymethyl)-phosphinic acid,578.25,1.0,O=P(O)(CO)CO,le15
"2-Furancarboxaldehyde, 5-(hydroxymethyl)-",352.54999999999984,1.0,O=Cc1ccc(CO)o1,le15
"1,3,5-Benzenetriol",448.05,1.0,Oc1cc(O)cc(O)c1,le15
"4H-Pyran-4-one, 3-hydroxy-2-methyl-",400.47,1.0,Cc1occc(=O)c1O,le15
"1,2,4-Trihydroxybenzene",307.35,1.0,Oc1ccc(O)c(O)c1,le15
"2-Furancarboxylic acid, methyl ester",331.75,1.0,COC(=O)c1ccco1,le15
"2(1H)-Pyrimidinone, 4-hydroxy-6-methyl- (8CI)",481.15,1.0,Cc1cc(O)nc(=O)[nH]1,le15
1-fluoro-2-methoxybenzene,322.95,1.0,COc1ccccc1F,le15
1-fluoro-3-methoxybenzene,317.0499999999999,1.0,COc1cccc(F)c1,le15
"Benzenemethanol, 4-fluoro- (9CI)",363.15,1.0,OCc1ccc(F)cc1,le15
1-fluoro-4-methoxybenzene,316.15,1.0,COc1ccc(F)cc1,le15
"Sulfuric acid, dimethyl ester",356.48299999999995,1.0,COS(=O)(=O)OC,le15
"2-Propenoic acid, 2-methyl-, 2-propenyl ester",310.15,1.0,C=CCOC(=O)C(=C)C,le15
cyclohexene-1-carboxylic acid,384.15,1.0,O=C(O)C1=CCCCC1,le15
"methyl (2E,4E)-hexa-2,4-dienoate",343.15,1.0,C/C=C/C=C/C(=O)OC,le15
"methyl (2E,4E)-hexa-2,4-dienoate",336.25,1.0,C/C=C/C=C/C(=O)OC,le15
2-Acetylcyclopentan-1-one,345.95,1.0,CC(=O)C1CCCC1=O,le15
Cyclohex-3-ene-1-carboxylic acid,383.05,1.0,O=C(O)C1CC=CCC1,le15
2-(ethoxymethyl)furan,314.35,1.0,CCOCc1ccco1,le15
4-Morpholineacetonitrile,360.15,1.0,N#CCN1CCOCC1,le15
"Phenol, o-mercapto- (6CI,7CI,8CI)",362.25,1.0,Oc1ccccc1S,le15
1-thiophen-2-ylethanone,355.54999999999984,1.0,CC(=O)c1cccs1,le15
1-thiophen-3-ylethanone,342.15,1.0,CC(=O)c1ccsc1,le15
"1-Hexyn-3-ol, 3,5-dimethyl-",317.5499999999999,1.0,C#CC(C)(O)CC(C)C,le15
"5-Hepten-2-one, 6-methyl-",323.15,1.0,CC(=O)CCC=C(C)C,le15
9-Oxabicyclo(6.1.0)nonane (8CI)(9CI),329.25,1.0,C1CCCC2OC2CC1,le15
"2-Hexenal, 2-ethyl-",341.15,1.0,CCCC=C(C=O)CC,le15
1-cyclohexylethanone,334.5499999999999,1.0,CC(=O)C1CCCCC1,le15
"2,2-dimethylcyclohexan-1-one",323.25,1.0,CC1(C)CCCCC1=O,le15
"(Z)-3,4-dimethylhex-3-en-2-one",334.5499999999999,1.0,CC/C(C)=C(/C)C(C)=O,le15
"2,6-dimethylcyclohexan-1-one",326.95,1.0,CC1CCCC(C)C1=O,le15
"3,3-dimethylcyclohexan-1-one",323.25,1.0,CC1(C)CCCC(=O)C1,le15
Bicyclo(2.2.1)heptane-2-methanol,357.15,1.0,OCC1CC2CCC1C2,le15
4-ethylcyclohexan-1-one,331.65,1.0,CCC1CCC(=O)CC1,le15
"4-methylhepta-1,6-dien-4-ol",341.95,1.0,C=CCC(C)(O)CC=C,le15
"2,2,4-trimethylcyclopentan-1-one",318.5499999999999,1.0,CC1CC(=O)C(C)(C)C1,le15
cyclooctanone,345.92800000000005,1.0,O=C1CCCCCCC1,le15
"2,4,4-trimethylcyclopentan-1-one",318.5499999999999,1.0,CC1CC(C)(C)CC1=O,le15
2-propylthiophene,305.45,1.0,CCCc1cccs1,le15
"2,3,5-trimethylthiophene",309.35,1.0,Cc1cc(C)c(C)s1,le15
2-ethyl-3-methylthiophene,306.85,1.0,CCc1sccc1C,le15
"1,2,3-trimethylcyclohexane",301.0499999999999,1.0,CC1CCCC(C)C1C,le15
propylcyclohexane,308.15,1.0,CCCC1CCCCC1,le15
"1,3,5-trimethylcyclohexane",301.0499999999999,1.0,CC1CC(C)CC(C)C1,le15
"1,3,5-Trimethylcyclohexane",301.0499999999999,1.0,CC1CC(C)CC(C)C1,le15
butylcyclopentane,307.85,1.0,CCCCC1CCCC1,le15
"1,1,3-trimethylcyclohexane",298.35,1.0,CC1CCCC(C)(C)C1,le15
2-methylpropylcyclopentane,304.65,1.0,CC(C)CC1CCCC1,le15
1-ethyl-2-methylcyclohexane,305.0499999999999,1.0,CCC1CCCCC1C,le15
1-ethyl-1-methylcyclohexane,302.35,1.0,CCC1(C)CCCCC1,le15
"1,1,2-trimethylcyclohexane",298.35,1.0,CC1CCCCC1(C)C,le15
"(1R,3R)-1,2,3-trimethylcyclohexane",301.0499999999999,1.0,CC1[C@H](C)CCC[C@H]1C,le15
"1,2,4-trimethylcyclohexane",301.0499999999999,1.0,CC1CCC(C)C(C)C1,le15
"(1R,3S)-1-ethyl-3-methylcyclohexane",305.0499999999999,1.0,CC[C@@H]1CCC[C@H](C)C1,le15
"1,1,3,3-tetramethylcyclopentane",291.0499999999999,1.0,CC1(C)CCC(C)(C)C1,le15
1-Nonene,297.15,1.0,C=CCCCCCCC,le15
propan-2-ylcyclohexane,308.75,1.0,CC(C)C1CCCCC1,le15
(E)-non-2-ene,305.35,1.0,C/C=C/CCCCCC,le15
IsopropylCyclohexane,308.0,1.0,CC(C)C1CCCCC1,le15
propylcyclohexane,308.0,1.0,CCCC1CCCCC1,le15
"Benzene, (chloromethyl)-",347.039,1.0,ClCc1ccccc1,le15
4chlorotoluene,322.0,1.0,Cc1ccc(Cl)cc1,le15
oxalyl dichloride,277.65,1.0,O=C(Cl)C(=O)Cl,le15
"Ethane, 1-bromo-2-fluoro-",272.15,1.0,FCCBr,le15
"2-Propanone, 1,1-dichloro-",297.5499999999999,1.0,CC(=O)C(Cl)Cl,le15
3-chloropropanoyl chloride,334.85,1.0,O=C(Cl)CCCl,le15
"2-Propanone, 1,3-dichloro-",362.15,1.0,O=C(CCl)CCl,le15
"1,1-dichlorobutane",291.45,1.0,CCCC(Cl)Cl,le15
"1,1-dichloro-2-methylpropane",288.75,1.0,CC(C)C(Cl)Cl,le15
"1,1-dichloro-2-methylpropane",288.85,1.0,CC(C)C(Cl)Cl,le15
"1,3-dichlorobutane",303.75,1.0,CC(Cl)CCCl,le15
"(2R,3R)-2,3-dichlorobutane",291.45,1.0,C[C@@H](Cl)[C@@H](C)Cl,le15
"2,2-dichlorobutane",288.75,1.0,CCC(C)(Cl)Cl,le15
"Butane, 1,4-dichloro-",313.95,1.0,ClCCCCCl,le15
"4(1H)-Pyrimidinone, 2-amino-6-hydroxy-",553.55,1.0,Nc1nc(=O)cc(O)[nH]1,le15
1-Methyl-5-nitro-1H-imidazole,425.85,1.0,Cn1cncc1[N+](=O)[O-],le15
"1H-Imidazole, 1-methyl-2-nitro- (9CI)",413.75,1.0,Cn1ccnc1[N+](=O)[O-],le15
Adipimide,421.95,1.0,O=C1CCCCC(=O)N1,le15
"Valeric acid, 5-cyano-",419.55,1.0,N#CCCCCC(=O)O,le15
1-piperidin-1-ylethanone,370.15,1.0,CC(=O)N1CCCCC1,le15
N-cyclohexylformamide,422.15,1.0,O=CNC1CCCCC1,le15
"2H-Azepin-2-one, hexahydro-1-methyl- (8CI)(9CI)",376.45,1.0,CN1CCCCCC1=O,le15
"2-Propenamide, N,N-diethyl- (9CI)",364.625,1.0,C=CC(=O)N(CC)CC,le15
"2-Pyrrolidinone, 1-(1-methylethyl)-",366.15,1.0,CC(C)N1CCCC1=O,le15
"Propanenitrile, 3-butoxy-",361.35,1.0,CCCCOCCC#N,le15
"Piperidine, 5-ethyl-2-methyl-",317.35,1.0,CCC1CCC(C)NC1,le15
1-butylpyrrolidine,309.25,1.0,CCCCN1CCCC1,le15
cyclooctanamine,335.95,1.0,NC1CCCCCCC1,le15
"Cyclohexanamine, N-ethyl-",316.0499999999999,1.0,CCNC1CCCCC1,le15
1-propylpiperidine,312.95,1.0,CCCN1CCCCC1,le15
4-propylpiperidine,321.5499999999999,1.0,CCCC1CCNCC1,le15
"Cyclohexanemethylamine, N-methyl-",314.45,1.0,CNCC1CCCCC1,le15
2-propylpiperidine,321.5499999999999,1.0,CCCC1CCCCN1,le15
"Benzenamine, 2-chloro-",371.15,1.0,Nc1ccccc1Cl,le15
"Benzenamine, 3-chloro-",397.05,1.0,Nc1cccc(Cl)c1,le15
6-Chloro-2-methylpyridine,346.15,1.0,Cc1cccc(Cl)n1,le15
"Benzenamine, 4-chloro-",333.85,1.0,Nc1ccc(Cl)cc1,le15
2-chloro-4-methylpyridine,362.75,1.0,Cc1ccnc(Cl)c1,le15
difluoro(methyl)arsane,279.04999999999995,1.0,C[As](F)F,le15
"Acetamide, 2,2-dichloro-",377.45,1.0,NC(=O)C(Cl)Cl,le15
"methyl 2,2,2-trifluoroacetate",266.15,1.0,COC(=O)C(F)(F)F,le15
"2,4,6(1H,3H,5H)-Pyrimidinetrione",423.15,1.0,O=C1CC(=O)NC(=O)N1,le15
"1,1,1-Trifluoro-2-methylpropan-2-ol",320.5499999999999,1.0,CC(C)(O)C(F)(F)F,le15
"4,4,4-trifluorobutan-1-ol",306.95,1.0,OCCCC(F)(F)F,le15
"1,4-Benzenedicarbonitrile",415.95,1.0,N#Cc1ccc(C#N)cc1,le15
"6,8-Dioxabicyclo(3.2.1)octan-7-one",362.95,1.0,O=C1OC2CCCC1O2,le15
"1,2-Benzenedicarbonitrile",426.45,1.0,N#Cc1ccccc1C#N,le15
"2-Propenoic acid, oxiranylmethyl ester",349.25,1.0,C=CC(=O)OCC1CO1,le15
"1,3-Benzenedicarbonitrile",416.15,1.0,N#Cc1cccc(C#N)c1,le15
Cyclohexanecarboxylic acid,380.15,1.0,O=C(O)C1CCCCC1,le15
"2-Propenoic acid, 2-methylpropyl ester",305.95,1.0,C=CC(=O)OCC(C)C,le15
Acrylic acid butyl ester (8CI),312.5499999999999,1.0,C=CC(=O)OCCCC,le15
hept-6-enoic acid,386.45,1.0,C=CCCCCC(=O)O,le15
2-cyclopentylacetic acid,387.15,1.0,O=C(O)CC1CCCC1,le15
"2-Buten-1-ol, 3-methyl-, acetate",322.15,1.0,CC(=O)OCC=C(C)C,le15
"2-Oxepanone, methyl-",359.15,1.0,CC1CCCCOC1=O,le15
"2-Propenoic acid, 2-methyl-, propyl ester",307.85,1.0,C=C(C)C(=O)OCCC,le15
"3,3-dimethylpentane-2,4-dione",330.15,1.0,CC(=O)C(C)(C)C(C)=O,le15
ethenyl pentanoate,311.5499999999999,1.0,C=COC(=O)CCCC,le15
cyclohexyl formate,326.45,1.0,O=COC1CCCCC1,le15
"3-methylhexane-2,5-dione",344.15,1.0,CC(=O)CC(C)C(C)=O,le15
"2-Propenoic acid, 2-methyl-, 1-methylethyl ester",304.15,1.0,C=C(C)C(=O)OC(C)C,le15
"Crotonic acid, 2-methyl-, ethyl ester, (E)- (8CI)",317.15,1.0,C/C=C(\C)C(=O)OCC,le15
"3,5-Heptanedione",336.5499999999999,1.0,CCC(=O)CC(=O)CC,le15
"3,3-diethoxyprop-1-yne",305.35,1.0,C#CC(OCC)OCC,le15
"2,3-Hexanedione, 5-methyl-",306.15,1.0,CC(=O)C(=O)CC(C)C,le15
ethyl cyclobutanecarboxylate,316.35,1.0,CCOC(=O)C1CCC1,le15
"3,4-Dihydro-2H-pyran-2-yl ethyl ether",297.5499999999999,1.0,CCOC1CCC=CO1,le15
"2-Butenoic acid, 3-methyl-, ethyl ester",307.0499999999999,1.0,CCOC(=O)C=C(C)C,le15
"4H-Pyran-4-one, tetrahydro-2,6-dimethyl-",338.65,1.0,CC1CC(=O)CC(C)O1,le15
"3-ethylpentane-2,4-dione",333.35,1.0,CCC(C(C)=O)C(C)=O,le15
"Acrylic acid, tert-butyl ester (8CI)",304.75,1.0,C=CC(=O)OC(C)(C)C,le15
"Butanoic acid, 2-propenyl ester",314.85,1.0,C=CCOC(=O)CCC,le15
(E)-hept-2-enoic acid,406.55,1.0,CCCC/C=C/C(=O)O,le15
butyl2propenoat,310.0,1.0,C=CC(=O)OCCCC,le15
"1H-Azepine, hexahydro-1-nitroso-",376.35,1.0,O=NN1CCCCCC1,le15
"2(1H)-Pyrimidinone, tetrahydro-1,3-dimethyl-",358.45,1.0,CN1CCCN(C)C1=O,le15
octan-3-one,319.15,1.0,CCCCCC(=O)CC,le15
"2-(2,2-dimethylpropyl)-2-methyloxirane",301.15,1.0,CC(C)(C)CC1(C)CO1,le15
"Hexanal, 2-ethyl-",323.15,1.0,CCCCC(C=O)CC,le15
6-methylheptan-2-one,317.75,1.0,CC(=O)CCCC(C)C,le15
"Cyclohexanemethanol, alpha-methyl-",346.15,1.0,CC(O)C1CCCCC1,le15
6-methylhept-5-en-2-ol,340.95,1.0,CC(C)=CCCC(C)O,le15
3-methylheptan-2-one,317.75,1.0,CCCCC(C)C(C)=O,le15
"Oxirane, hexyl- (9CI)",310.35,1.0,CCCCCCC1CO1,le15
"2,2,4,4-tetramethyloxolane",297.45,1.0,CC1(C)COC(C)(C)C1,le15
Oct-1-ene-3-ol,334.25,1.0,C=CC(O)CCCCC,le15
1-methylcycloheptan-1-ol,344.75,1.0,CC1(O)CCCCCC1,le15
"Ethanol, 2-cyclohexyl-",359.85,1.0,OCCC1CCCCC1,le15
1-ethenoxyhexane,282.95,1.0,C=COCCCCCC,le15
"3,5-dimethylcyclohexan-1-ol",346.45,1.0,CC1CC(C)CC(O)C1,le15
"3,4-dimethylcyclohexan-1-ol",351.45,1.0,CC1CCC(O)CC1C,le15
2-methylheptan-3-one,317.35,1.0,CCCCC(=O)C(C)C,le15
"Furan, tetrahydro-2,2,5,5-tetramethyl-",277.04999999999995,1.0,CC1(C)CCC(C)(C)O1,le15
3-methylheptan-4-one,317.75,1.0,CCCC(=O)C(C)CC,le15
"3,4-dimethylhexan-2-one",307.35,1.0,CCC(C)C(C)C(C)=O,le15
"3,3-dimethylhexan-2-one",307.5499999999999,1.0,CCCC(C)(C)C(C)=O,le15
"2,5-dimethylhexan-3-one",307.35,1.0,CC(C)CC(=O)C(C)C,le15
1-ethylcyclohexan-1-ol,341.35,1.0,CCC1(O)CCCCC1,le15
"3,5-dimethylhex-1-en-3-ol",313.25,1.0,C=CC(C)(O)CC(C)C,le15
tert-Butyl propyl ketone,307.5499999999999,1.0,CCCC(=O)C(C)(C)C,le15
3octanone,326.0,1.0,CCCCCC(=O)CC,le15
5methyl3heptanone,316.0,1.0,CCC(=O)CC(C)CC,le15
"1,2,4-trimethylpiperazine",304.25,1.0,CC1CN(C)CCN1C,le15
"Piperazine, 1-(1-methylethyl)- (9CI)",329.5499999999999,1.0,CC(C)N1CCNCC1,le15
1-ethylpiperidin-3-amine,333.75,1.0,CCN1CCCC(N)C1,le15
"2,3,4-trimethylhexane",301.15,1.0,CCC(C)C(C)C(C)C,le15
"3,4-dimethylheptane",333.15,1.0,CCCC(C)C(C)CC,le15
"3,5-dimethylheptane",328.0499999999999,1.0,CCC(C)CC(C)CC,le15
"3,3-diethylpentane",305.95,1.0,CCC(CC)(CC)CC,le15
"2,2,4,4-tetramethylpentane",292.45,1.0,CC(C)(C)CC(C)(C)C,le15
"2,2-dimethylheptane",297.5499999999999,1.0,CCCCCC(C)(C)C,le15
"2,6-dimethylheptane",326.25,1.0,CC(C)CCCC(C)C,le15
"2,2,3,4-tetramethylpentane",298.65,1.0,CC(C)C(C)C(C)(C)C,le15
"2,5-dimethylheptane",327.35,1.0,CCC(C)CCC(C)C,le15
4-ethylheptane,297.15,1.0,CCCC(CC)CCC,le15
3-methyloctane,298.45,1.0,CCCCCC(C)CC,le15
"Heptane, 2,3-dimethyl-",333.25,1.0,CCCCC(C)C(C)C,le15
3-ethyl-3-methylhexane,302.35,1.0,CCCC(C)(CC)CC,le15
"3,3-dimethylheptane",300.35,1.0,CCCCC(C)(C)CC,le15
"2,2,3,3-tetramethylpentane",302.15,1.0,CCC(C)(C)C(C)(C)C,le15
3-ethylheptane,298.25,1.0,CCCCC(CC)CC,le15
"2,2,3-trimethylhexane",298.5499999999999,1.0,CCCC(C)C(C)(C)C,le15
"2,2,4-trimethylhexane",294.0499999999999,1.0,CCC(C)CC(C)(C)C,le15
"2,3,3-trimethylhexane",300.85,1.0,CCCC(C)(C)C(C)C,le15
"2,4,4-trimethylhexane",296.25,1.0,CCC(C)(C)CC(C)C,le15
"2,3,3,4-tetramethylpentane",302.65,1.0,CC(C)C(C)(C)C(C)C,le15
3-ethyl-2-methylhexane,330.45,1.0,CCCC(CC)C(C)C,le15
4-methyloctane,297.35,1.0,CCCCC(C)CCC,le15
4-ethyl-2-methylhexane,325.35,1.0,CCC(CC)CC(C)C,le15
2-methyloctane,298.35,1.0,CCCCCCC(C)C,le15
"3,3,4-trimethylhexane",301.75,1.0,CCC(C)C(C)(C)CC,le15
3methyl4ethylhexane,297.0,1.0,CCC(C)C(CC)CC,le15
"Phenol, 3-chloro-",350.04999999999984,1.0,Oc1cccc(Cl)c1,le15
"Phenol, 2-chloro-",337.0499999999999,1.0,Oc1ccccc1Cl,le15
4chlorophenol,388.0,1.0,Oc1ccc(Cl)cc1,le15