compound,flashpoint,pure substance,smiles,source
"Phosphorothioic acid, O-(3-chloro-4-nitrophenyl) O,O-diethyl ester",464.65,1.0,CCOP(=S)(OCC)Oc1ccc([N+](=O)[O-])c(Cl)c1,le15
"2H-1,2,4-Benzothiadiazine-7-sulfonamide, 6-chloro-3-ethyl-3,4-dihydro-",567.75,1.0,CCC1NSc2cc(S(N)(=O)=O)c(Cl)cc2N1,le15
"Anthraquinone, 1,4-bis((2-hydroxyethyl)amino)- (6CI,7CI,8CI)",623.55,1.0,O=C1c2ccccc2C(=O)c2c(NCCO)ccc(NCCO)c21,le15
"2-(4-Methoxyphenyl)-4,5-diphenyl-1H-imidazole",461.95,1.0,COc1ccc(-c2nc(-c3ccccc3)c(-c3ccccc3)[nH]2)cc1,le15
"1-Butanone, 1-(4-fluorophenyl)-4-(4-phenyl-1-piperazinyl)- (9CI)",517.95,1.0,O=C(CCCN1CCN(c2ccccc2)CC1)c1ccc(F)cc1,le15
"Methanone, (2-hydroxy-4-(octyloxy)phenyl)phenyl-",428.25,1.0,CCCCCCCCOc1ccc(C(=O)c2ccccc2)c(O)c1,le15
"10H-Phenothiazine, 10-(3-(4-morpholinyl)propyl)-",521.25,1.0,c1ccc2c(c1)Sc1ccccc1N2CCCN1CCOCC1,le15
"5H-Dibenzo(b,e)(1,4)diazepine, 8-chloro-11-(4-methyl-1-piperazinyl)-",522.785,1.0,CN1CCN(C2=Nc3cc(Cl)ccc3Nc3ccccc32)CC1,le15
"Benzamide, 5-chloro-N-(2-chloro-4-nitrophenyl)-2-hydroxy-",483.65,1.0,O=C(Nc1ccc([N+](=O)[O-])cc1Cl)c1cc(Cl)ccc1O,le15
"Morphinan-6-one, 17-allyl-4,5alpha-epoxy-3,14-dihydroxy- (8CI)",549.25,1.0,C=CCN1CC[C@]23c4c5ccc(O)c4O[C@H]2C(=O)CC[C@@]3(O)[C@H]1C5,le15
"1-Butanone, 1-(4-fluorophenyl)-4-(4-(2-pyridinyl)-1-piperazinyl)-",529.05,1.0,O=C(CCCN1CCN(c2ccccn2)CC1)c1ccc(F)cc1,le15
"1-Propanol, 2-chloro-, phosphate (3:1)",522.8499999999998,1.0,CC(Cl)CO.CC(Cl)CO.CC(Cl)CO.O=P(O)(O)O,le15
"2-Naphthalenol, 1-(2-(2-chloro-4-nitrophenyl)diazenyl)-",564.95,1.0,O=[N+]([O-])c1ccc(N=Nc2c(O)ccc3ccccc23)c(Cl)c1,le15
"Dibenz(b,f)(1,4)oxazepine, 2-chloro-11-(4-methyl-1-piperazinyl)-",504.25,1.0,CN1CCN(C2=Nc3ccccc3Oc3ccc(Cl)cc32)CC1,le15
1-bromo-4-(4-bromophenoxy)benzene,413.45,1.0,Brc1ccc(Oc2ccc(Br)cc2)cc1,le15
"1H,12H-Furo(3',2':4,5)furo(2,3-h)pyrano(3,4-c)(1)benzopyran-1,12-dione",547.3499999999998,1.0,O=c1occc2c1c(=O)oc1c2ccc2oc3occc3c21,le15
"10H-Phenothiazine-10-propanamine, 2-methoxy-N,N,beta-trimethyl-, (-)-",509.95,1.0,COc1ccc2c(c1)N(CC(C)CN(C)C)c1ccccc1S2,le15
"Carbamothioic acid, diphenyl-, S-(2-(diethylamino)ethyl) ester",494.15,1.0,CCN(CC)CCSC(=O)N(c1ccccc1)c1ccccc1,le15
"4,7,10,13,16,19-Docosahexaenoic acid",616.55,1.0,CCC=CCC=CCC=CCC=CCC=CCC=CCCC(=O)O,le15
"1,3,5-tribromo-2-methylbenzene",400.75,1.0,Cc1c(Br)cc(Br)cc1Br,le15
"1H-Isoindole-5-sulfonamide, 6-chloro-2-cyclohexyl-2,3-dihydro-3-oxo-",576.05,1.0,NS(=O)(=O)c1cc2c(cc1Cl)CN(C1CCCCC1)C2=O,le15
"9,10-Anthracenedione, 1-hydroxy-4-((4-methylphenyl)amino)-",541.8499999999998,1.0,Cc1ccc(Nc2ccc(O)c3c2C(=O)c2ccccc2C3=O)cc1,le15
"Morpholine, 4-(triphenylmethyl)-",399.65,1.0,c1ccc(C(c2ccccc2)(c2ccccc2)N2CCOCC2)cc1,le15
"Benzenepropanamine, N-(1-methyl-2-phenylethyl)-gamma-phenyl-",492.55,1.0,CC(Cc1ccccc1)NCCC(c1ccccc1)c1ccccc1,le15
"2,4,6-tribromoaniline",406.05,1.0,Nc1c(Br)cc(Br)cc1Br,le15
"1,3-diiodobenzene",418.35,1.0,Ic1cccc(I)c1,le15
"Piperidine, 1-(2-((4-chlorophenyl)phenylmethoxy)ethyl)- (9CI)",483.35,1.0,Clc1ccc(C(OCCN2CCCCC2)c2ccccc2)cc1,le15
"1,4-diiodobenzene",410.85,1.0,Ic1ccc(I)cc1,le15
"9,10-Anthracenedione, 1,8-dihydroxy-4,5-dinitro-",554.05,1.0,O=C1c2c(O)ccc([N+](=O)[O-])c2C(=O)c2c([N+](=O)[O-])ccc(O)c21,le15
"Benzoic acid, 3,4-dichloro-, 3-(2-methylpiperidino)propyl ester",486.15,1.0,CC1CCCCN1CCCOC(=O)c1ccc(Cl)c(Cl)c1,le15
"1H,12H-Furo(3',2':4,5)furo(2,3-h)pyrano(3,4-c)(1)benzopyran-1,12-dione",542.75,1.0,O=c1occc2c1c(=O)oc1c2ccc2oc3occc3c21,le15
"1,2,4-Benzenetricarboxylic acid, triallyl ester (7CI,8CI)",464.45,1.0,C=CCOC(=O)c1ccc(C(=O)OCC=C)c(C(=O)OCC=C)c1,le15
2-[2-[2-[2-(2-methylprop-2-enoyloxy)ethoxy]ethoxy]ethoxy]ethyl,449.55,1.0,[CH2]COCCOCCOCCOC(=O)C(=C)C,le15
"1,2-Benzenedicarboxylic acid, dicyclohexyl ester",479.75,1.0,O=C(OC1CCCCC1)c1ccccc1C(=O)OC1CCCCC1,le15
"Pregn-4-ene-3,20-dione, 17-hydroxy-",533.05,1.0,CC(=O)[C@@]1(O)CC[C@H]2[C@@H]3CCC4=CC(=O)CC[C@]4(C)[C@H]3CC[C@@]21C,le15
"Aniline, 4,4'-benzylidenebis(N,N-dimethyl- (8CI)",487.75,1.0,CN(C)c1ccc(C(c2ccccc2)c2ccc(N(C)C)cc2)cc1,le15
octadecylbenzene,459.25,1.0,CCCCCCCCCCCCCCCCCCc1ccccc1,le15
"Benzoic acid, 5-(aminosulfonyl)-4-chloro-2-((2-furanylmethyl)amino)-",579.05,1.0,NS(=O)(=O)c1cc(C(=O)O)c(NCc2ccco2)cc1Cl,le15
"Phenol, 2,4,6-tribromo-",382.85,1.0,Oc1c(Br)cc(Br)cc1Br,le15
"Phosphoric acid, 2-chloro-1-(2,4-dichlorophenyl)ethenyl dimethyl ester",535.95,1.0,COP(=O)(OC)OC(=CCl)c1ccc(Cl)cc1Cl,le15
"Phosphoric acid, 2-chloro-1-(2,5-dichlorophenyl)ethenyl dimethyl ester",534.45,1.0,COP(=O)(OC)OC(=CCl)c1cc(Cl)ccc1Cl,le15
tetrabromomethane,338.5630000000001,1.0,BrC(Br)(Br)Br,le15
"1,4-Benzenedicarboxylic acid, 2,3,5,6-tetrachloro-, dimethyl ester",447.85,1.0,COC(=O)c1c(Cl)c(Cl)c(C(=O)OC)c(Cl)c1Cl,le15
"Dibenzo(b,def)chrysene-7,14-dione",493.05,1.0,O=c1c2ccccc2c2ccc3c(=O)c4ccccc4c4ccc1c2c34,le15
"1,2,2-triphenylethenylbenzene",479.35,1.0,c1ccc(C(=C(c2ccccc2)c2ccccc2)c2ccccc2)cc1,le15
Di(benzothiazol-2-yl) disulphide,548.95,1.0,c1ccc2sc(SSc3nc4ccccc4s3)nc2c1,le15
"1,4-Benzenediamine, N,N'-bis(1-ethyl-3-methylpentyl)-",523.25,1.0,CCC(C)CC(CC)Nc1ccc(NC(CC)CC(C)CC)cc1,le15
"4-((2-Chloro-4-nitrophenyl)azo)-N,N-diethylbenzenamine",526.75,1.0,CCN(CC)c1ccc(N=Nc2ccc([N+](=O)[O-])cc2Cl)cc1,le15
"Methanesulfenamide, 1,1-dichloro-N-((dimethylamino)sulfonyl)-1-fluoro-",430.65,1.0,CN(C)S(=O)(=O)NSC(F)(Cl)Cl,le15
"Acetic acid, (2,4-dichlorophenoxy)-, 2-ethylhexyl ester",410.15,1.0,CCCCC(CC)COC(=O)COc1ccc(Cl)cc1Cl,le15
"octyl 2-(2,4-dichlorophenoxy)acetate",412.75,1.0,CCCCCCCCOC(=O)COc1ccc(Cl)cc1Cl,le15
"Phosphonothioic acid, ethyl-, O-ethyl O-(2,4,5-trichlorophenyl) ester",451.95,1.0,CCOP(=S)(CC)Oc1cc(Cl)c(Cl)cc1Cl,le15
"1,2,3,4,5-pentafluoro-6-(2,3,4,5,6-pentafluorophenyl)benzene",341.65,1.0,Fc1c(F)c(F)c(-c2c(F)c(F)c(F)c(F)c2F)c(F)c1F,le15
"Pyridine, 2,3,4,5-tetrachloro-6-(trichloromethyl)-",451.55,1.0,Clc1nc(C(Cl)(Cl)Cl)c(Cl)c(Cl)c1Cl,le15
"Biphenyl, 2,2',4,4'-tetranitro- (8CI)",516.55,1.0,O=[N+]([O-])c1ccc(-c2ccc([N+](=O)[O-])cc2[N+](=O)[O-])c([N+](=O)[O-])c1,le15
"Benzimidazole, 7-nitro-4,5,6-trichloro-2-(trifluoromethyl)-",493.45,1.0,O=[N+]([O-])c1c(Cl)c(Cl)c(Cl)c2[nH]c(C(F)(F)F)nc12,le15
"Benzimidazole, 4,5,7-trichloro-6-nitro-2-(trifluoromethyl)-",492.05,1.0,O=[N+]([O-])c1c(Cl)c(Cl)c2[nH]c(C(F)(F)F)nc2c1Cl,le15
"Phosphoric acid, diethyl 3,5,6-trichloro-2-pyridinyl ester (9CI)",443.35,1.0,CCOP(=O)(OCC)Oc1nc(Cl)c(Cl)cc1Cl,le15
"Acetic acid, 2,4-dichlorophenoxy-, 3-butoxypropyl ester",425.95,1.0,CCCCOCCCOC(=O)COc1ccc(Cl)cc1Cl,le15
"p-Toluidine, N-butyl-N-ethyl-alpha,alpha,alpha-trifluoro-2,6-dinitro-",450.15,1.0,CCCCN(CC)c1c([N+](=O)[O-])cc(C(F)(F)F)cc1[N+](=O)[O-],le15
"p-Toluidine, alpha,alpha,alpha-trifluoro-2,6-dinitro-N,N-dipropyl-",450.15,1.0,CCCN(CCC)c1c([N+](=O)[O-])cc(C(F)(F)F)cc1[N+](=O)[O-],le15
"Butyric acid, 2-ethyl-2-phenyl-, 2-(2-(diethylamino)ethoxy)ethyl ester",481.65,1.0,CCN(CC)CCOCCOC(=O)C(CC)(CC)c1ccccc1,le15
"Phenol, 4,4'-(2,2,2-trifluoro-1-(trifluoromethyl)ethylidene)bis-",435.05,1.0,Oc1ccc(C(c2ccc(O)cc2)(C(F)(F)F)C(F)(F)F)cc1,le15
"Phosphorothioic acid, O-(p-(methylsulfinyl)phenyl) O,O-dipropyl ester",486.85,1.0,CCCOP(=S)(OCCC)Oc1ccc(S(C)=O)cc1,le15
"Propanamide, N-phenyl-N-(1-(2-phenylethyl)-4-piperidinyl)- (9CI)",458.95,1.0,CCC(=O)N(c1ccccc1)C1CCN(CCc2ccccc2)CC1,le15
octadecylcyclohexane,468.35,1.0,CCCCCCCCCCCCCCCCCCC1CCCCC1,le15
"1,1,1,2,2,3,3,4,5,5,5-undecafluoro-4-(trifluoromethyl)pentane",275.25,1.0,FC(F)(F)C(F)(F)C(F)(F)C(F)(C(F)(F)F)C(F)(F)F,le15
"Hexane, tetradecafluoro-",274.35,1.0,FC(F)(F)C(F)(F)C(F)(F)C(F)(F)C(F)(F)C(F)(F)F,le15
"Maleic anhydride, dihydroxy-, dibenzoate",481.35,1.0,O=C(O)c1ccccc1.O=C(O)c1ccccc1.O=C1OC(=O)C(O)=C1O,le15
"2-Naphthalenol, 1-(2-(2,4-dinitrophenyl)diazenyl)-",588.55,1.0,O=[N+]([O-])c1ccc(N=Nc2c(O)ccc3ccccc23)c([N+](=O)[O-])c1,le15
"Benzoic acid, 3,4,5-trihydroxy-, dodecyl ester",453.45,1.0,CCCCCCCCCCCCOC(=O)c1cc(O)c(O)c(O)c1,le15
"Oxiraneoctanoic acid, 3-octyl-, 2-propenyl ester (9CI)",433.65,1.0,C=CCOC(=O)CCCCCCCC1OC1CCCCCCCC,le15
tetracosane,507.65,1.0,CCCCCCCCCCCCCCCCCCCCCCCC,le15
"Isoquinoline, 1-((3,4-dimethoxyphenyl)methyl)-6,7-dimethoxy-",445.35,1.0,COc1ccc(Cc2nccc3cc(OC)c(OC)cc23)cc1OC,le15
"Methanesulfonamide, N,N-bis(2-(methylsulfonyloxy)ethyl)-",580.65,1.0,CS(=O)(=O)OCCN(CCOS(C)(=O)=O)S(C)(=O)=O,le15
"Androsta-3,5-dien-17-one, 3-(1-pyrrolidinyl)-",458.55,1.0,C[C@]12CC[C@H]3[C@@H](CC=C4C=C(N5CCCC5)CC[C@@]43C)[C@@H]1CCC2=O,le15
"2H-1-Benzopyran-2-one, 6-(beta-D-glucopyranosyloxy)-7-hydroxy-",535.95,1.0,O=c1ccc2cc(O[C@@H]3O[C@H](CO)[C@@H](O)[C@H](O)[C@H]3O)c(O)cc2o1,le15
"Quino(2,3-b)acridine-7,14-dione, 5,12-dihydro-2,9-dimethyl-",494.55,1.0,Cc1ccc2[nH]c3cc4c(=O)c5cc(C)ccc5[nH]c4cc3c(=O)c2c1,le15
"Oxirane, 2,2'-((1-methylethylidene)bis(4,1-phenyleneoxymethylene))bis-",563.15,1.0,CC(C)(c1ccc(OCC2CO2)cc1)c1ccc(OCC2CO2)cc1,le15
"Ethanol, 2-(2-(4-(diphenylmethyl)-1-piperazinyl)ethoxy)-",512.65,1.0,OCCOCCN1CCN(C(c2ccccc2)c2ccccc2)CC1,le15
"p-Cresol, 2,2'-methylenebis(6-tert-butyl- (8CI)",454.35,1.0,Cc1cc(Cc2cc(C)cc(C(C)(C)C)c2O)c(O)c(C(C)(C)C)c1,le15
"Octadecanoic acid, butyl ester",466.65,1.0,CCCCCCCCCCCCCCCCCC(=O)OCCCC,le15
2-methylpropyl octadecanoate,460.85,1.0,CCCCCCCCCCCCCCCCCC(=O)OCC(C)C,le15
"8-Methoxy-3,4-methylenedioxy-10-nitrophenanthrene-1-carboxylic acid",599.15,1.0,COc1cccc2c1cc([N+](=O)[O-])c1c(C(=O)O)cc3c(c12)OCO3,le15
"Theophylline, 7-(2-((alpha-methylphenethyl)amino)ethyl)-",567.95,1.0,CC(Cc1ccccc1)NCCn1cnc2c1c(=O)n(C)c(=O)n2C,le15
"Benzoic acid, 2-(acetyloxy)-, anhydride (9CI)",499.55,1.0,CC(=O)Oc1ccccc1C(=O)OC(=O)c1ccccc1OC(C)=O,le15
"alpha-D-Glucopyranoside, beta-D-fructofuranosyl",648.55,1.0,OC[C@H]1O[C@H](O[C@]2(CO)O[C@H](CO)[C@@H](O)[C@@H]2O)[C@H](O)[C@@H](O)[C@@H]1O,le15
"D-Glucose, 4-O-beta-D-galactopyranosyl-",630.95,1.0,O=C[C@H](O)[C@@H](O)[C@H](O[C@@H]1O[C@H](CO)[C@H](O)[C@H](O)[C@H]1O)[C@H](O)CO,le15
"Dibenzo(b,f)(1,4)thiazepine, 2-chloro-11-(4-methyl-1-piperazinyl)-",519.55,1.0,CN1CCN(C2=Nc3ccccc3Sc3ccc(Cl)cc32)CC1,le15
"Benzimidazole, 4,7-dibromo-2-(trifluoromethyl)-",452.95,1.0,FC(F)(F)c1nc2c(Br)ccc(Br)c2[nH]1,le15
"Benzimidazole, 4,6-dibromo-2-(trifluoromethyl)-",452.75,1.0,FC(F)(F)c1nc2cc(Br)cc(Br)c2[nH]1,le15
1-bromo-4-(4-bromophenyl)sulfanylbenzene,475.65,1.0,Brc1ccc(Sc2ccc(Br)cc2)cc1,le15
"Phosphoric acid, bis(2-chloroethyl) 4-nitrophenyl ester (9CI)",482.95,1.0,O=[N+]([O-])c1ccc(OP(=O)(OCCCl)OCCCl)cc1,le15
"Benzamide, 4-amino-5-bromo-N-(2-(diethylamino)ethyl)-2-methoxy- (9CI)",490.45,1.0,CCN(CC)CCNC(=O)c1cc(Br)c(N)cc1OC,le15
"D-Glucitol, 4-O-beta-D-galactopyranosyl-",703.8499999999997,1.0,OC[C@H](O)[C@@H](O)[C@H](O[C@@H]1O[C@H](CO)[C@H](O)[C@H](O)[C@H]1O)[C@H](O)CO,le15
"Androst-4-en-3-one, 17-(1-oxopropoxy)-, (17beta)-",469.45,1.0,CCC(=O)O[C@H]1CC[C@H]2[C@@H]3CCC4=CC(=O)CC[C@]4(C)[C@H]3CC[C@]12C,le15
"Pregn-4-ene-3,20-dione, 17-hydroxy-6-methyl-, (6alpha)- (9CI)",536.15,1.0,CC(=O)[C@@]1(O)CC[C@H]2[C@@H]3C[C@H](C)C4=CC(=O)CC[C@]4(C)[C@H]3CC[C@@]21C,le15
"Benzene, nonadecyl-",464.85,1.0,CCCCCCCCCCCCCCCCCCCc1ccccc1,le15
"Cyclotetrasiloxane, 2,4,6,8-tetraethenyl-2,4,6,8-tetramethyl-",367.45,1.0,C=C[Si]1(C)O[Si](C)(C=C)O[Si](C)(C=C)O[Si](C)(C=C)O1,le15
"1,3,5-tribromo-2-methoxybenzene",394.65,1.0,COc1c(Br)cc(Br)cc1Br,le15
"Aniline, 4-(methylsulfonyl)-2,6-dinitro-N,N-dipropyl- (7CI,8CI)",533.65,1.0,CCCN(CCC)c1c([N+](=O)[O-])cc(S(C)(=O)=O)cc1[N+](=O)[O-],le15
"Ethane, 1,1,2,2-tetrabromo-",370.15,1.0,BrC(Br)C(Br)Br,le15
"Butane, 1,1,1,2,2,3,3,4,4-nonafluoro-4-iodo-",291.85,1.0,FC(F)(F)C(F)(F)C(F)(F)C(F)(F)I,le15
"Heptanoic acid, 2,2,3,3,4,4,5,5,6,6,7,7-dodecafluoro-",340.75,1.0,O=C(O)C(F)(F)C(F)(F)C(F)(F)C(F)(F)C(F)(F)C(F)F,le15
"3,3,4,4,5,5,6,6,7,7,8,8,8-tridecafluorooct-1-ene",293.15,1.0,C=CC(F)(F)C(F)(F)C(F)(F)C(F)(F)C(F)(F)C(F)(F)F,le15
"2-Benzothiazolesulfenamide, N,N-dicyclohexyl-",521.15,1.0,c1ccc2sc(SN(C3CCCCC3)C3CCCCC3)nc2c1,le15
3-Chloro-4-methyl-2-oxo-2H-1-benzopyran-7-yl diethyl phosphate,620.15,1.0,CCOP(=O)(OCC)Oc1ccc2c(C)c(Cl)c(=O)oc2c1,le15
"1,3-Benzenediol, 2,4,6-tribromo- (9CI)",381.15,1.0,Oc1c(Br)cc(Br)c(O)c1Br,le15
"Butanoic acid, 2,6-dibromo-4-cyanophenyl ester",452.45,1.0,CCCC(=O)Oc1c(Br)cc(C#N)cc1Br,le15
Inosine 5'-monophosphate,741.8499999999997,1.0,O=P(O)(O)OC[C@H]1O[C@@H](n2cnc3c(O)ncnc32)[C@H](O)[C@@H]1O,le15
"Pyrrole, 1-(o-(2-(diethylamino)ethoxy)phenyl)-2-methyl-5-phenyl-",528.05,1.0,CCN(CC)CCOc1ccccc1-n1c(C)ccc1-c1ccccc1,le15
"1-Naphthalenesulfonic acid, 3,6-bis(1,1-dimethylethyl)-, ethyl ester",507.45,1.0,CCOS(=O)(=O)c1cc(C(C)(C)C)cc2cc(C(C)(C)C)ccc12,le15
"1H-Benz(de)isoquinoline-1,3(2H)-dione, 2-((diethoxyphosphinyl)oxy)-",521.65,1.0,CCOP(=O)(OCC)ON1C(=O)c2cccc3cccc(c23)C1=O,le15
"1,1,2,2,3,3,4,4,5,5,6-undecafluoro-6-(trifluoromethyl)cyclohexane",277.35,1.0,FC(F)(F)C1(F)C(F)(F)C(F)(F)C(F)(F)C(F)(F)C1(F)F,le15
"1,1,2,3,3,4,4,5,5,6,6,7,7,7-tetradecafluorohept-1-ene",288.65,1.0,FC(F)=C(F)C(F)(F)C(F)(F)C(F)(F)C(F)(F)C(F)(F)F,le15
nonadecylcyclohexane,475.15,1.0,CCCCCCCCCCCCCCCCCCCC1CCCCC1,le15
"Benzamide, 3,5-dichloro-N-(3,4-dichlorophenyl)-2-hydroxy-",473.75,1.0,O=C(Nc1ccc(Cl)c(Cl)c1)c1cc(Cl)cc(Cl)c1O,le15
"10H-Phenothiazine-10-propanamine, N,N-dimethyl-2-(trifluoromethyl)-",485.55,1.0,CN(C)CCCN1c2ccccc2Sc2ccc(C(F)(F)F)cc21,le15
"1H-Imidazole-1-ethanol, 2-heptadecyl-4,5-dihydro-",522.65,1.0,CCCCCCCCCCCCCCCCCC1=NCCN1CCO,le15
"Cytidine, 2'-deoxy-5-iodo- (8CI)(9CI)",542.75,1.0,Nc1nc(=O)n([C@H]2C[C@H](O)[C@@H](CO)O2)cc1I,le15
"2H-1-Benzopyran-2-one, 4-hydroxy-3-(1-(4-nitrophenyl)-3-oxobutyl)-",557.75,1.0,CC(=O)CC(c1ccc([N+](=O)[O-])cc1)c1c(O)c2ccccc2oc1=O,le15
"1-Octanamine, N,N-dioctyl-",420.507,1.0,CCCCCCCCN(CCCCCCCC)CCCCCCCC,le15
"1-Heptanamine, 6-methyl-N,N-bis(6-methylheptyl)-",421.35,1.0,CC(C)CCCCCN(CCCCCC(C)C)CCCCCC(C)C,le15
"1,1,2,2-tetrafluoro-1,2-diiodoethane",309.15,1.0,FC(F)(I)C(F)(F)I,le15
"Benzene, 1,1'-(2,2,2-trichloroethylidene)bis(4-chloro-",477.05,1.0,Clc1ccc(C(c2ccc(Cl)cc2)C(Cl)(Cl)Cl)cc1,le15
"Cyclopentene, 1,2,3,3,5,5-hexachloro-4-(dichloromethylene)-",437.15,1.0,ClC(Cl)=C1C(Cl)(Cl)C(Cl)=C(Cl)C1(Cl)Cl,le15
"Benzene, 1,2,4-trichloro-5-((4-chlorophenyl)sulfonyl)-",519.65,1.0,O=S(=O)(c1ccc(Cl)cc1)c1cc(Cl)c(Cl)cc1Cl,le15
"Phenol, 2,2'-thiobis(4,6-dichloro-",495.95,1.0,Oc1c(Cl)cc(Cl)cc1Sc1cc(Cl)cc(Cl)c1O,le15
"Piperazine, 1,4-bis(3-bromo-1-oxopropyl)-",521.55,1.0,O=C(CCBr)N1CCN(C(=O)CCBr)CC1,le15
"2-(3,4-Dimethoxyphenyl)-4,5-diphenyl-1H-imidazole",468.65,1.0,COc1ccc(-c2nc(-c3ccccc3)c(-c3ccccc3)[nH]2)cc1OC,le15
"Thioxanthen-9-one, 1-((2-(diethylamino)ethyl)amino)-4-(hydroxymethyl)-",572.05,1.0,CCN(CC)CCNc1ccc(CO)c2sc3ccccc3c(=O)c12,le15
"Nonanedioic acid, dihexyl ester",446.55,1.0,CCCCCCOC(=O)CCCCCCCC(=O)OCCCCCC,le15
"2,3-dihydroxypropyl (Z)-octadec-9-enoate",428.55,1.0,CCCCCCCC/C=C\CCCCCCCC(=O)OCC(O)CO,le15
"Benzeneacetic acid, alpha-cyclohexyl-alpha-hydroxy-, 4-(diethylamino)-",525.95,1.0,CCN(CC)c1ccc(C(O)(C(=O)O)C2CCCCC2)cc1,le15
"1H-Indole-3-acetic acid, 1-(4-chlorobenzoyl)-5-methoxy-2-methyl-",528.9559999999999,1.0,COc1ccc2c(c1)c(CC(=O)O)c(C)n2C(=O)c1ccc(Cl)cc1,le15
"Anthraquinone, 1,4-dihydroxy-5,8-bis((2-hydroxyethyl)amino)- (8CI)",684.95,1.0,O=C1c2c(O)ccc(O)c2C(=O)c2c(NCCO)ccc(NCCO)c21,le15
"Pregna-1,4-diene-3,11,20-trione, 17,21-dihydroxy-",587.95,1.0,C[C@]12CC(=O)[C@H]3[C@@H](CCC4=CC(=O)C=C[C@@]43C)[C@@H]1CC[C@]2(O)C(=O)CO,le15
"Phenol, 4,4'-thiobis(2-(1,1-dimethylethyl)-5-methyl-",488.15,1.0,Cc1cc(O)c(C(C)(C)C)cc1Sc1cc(C(C)(C)C)c(O)cc1C,le15
icosylbenzene,470.05,1.0,CCCCCCCCCCCCCCCCCCCCc1ccccc1,le15
"Phosphoric acid, 2-chloro-1-(2,4-dichlorophenyl)ethenyl diethyl ester",572.05,1.0,CCOP(=O)(OCC)OC(=CCl)c1ccc(Cl)cc1Cl,le15
"Ethanamine, 2-(((4-(butylthio)phenyl)phenylmethyl)thio)-N,N-dimethyl-",508.85,1.0,CCCCSc1ccc(C(SCCN(C)C)c2ccccc2)cc1,le15
"1,4-Benzenediamine, N,N'-di-2-naphthalenyl-",672.15,1.0,c1ccc2cc(Nc3ccc(Nc4ccc5ccccc5c4)cc3)ccc2c1,le15
"Pregn-4-ene-3,11,20-trione, 17,21-dihydroxy-",584.3499999999998,1.0,C[C@]12CC(=O)[C@H]3[C@@H](CCC4=CC(=O)CC[C@@]43C)[C@@H]1CC[C@]2(O)C(=O)CO,le15
"Pregna-1,4-diene-3,20-dione, 11beta,17,21-trihydroxy- (8CI)",586.15,1.0,C[C@]12C[C@H](O)[C@H]3[C@@H](CCC4=CC(=O)C=C[C@@]43C)[C@@H]1CC[C@]2(O)C(=O)CO,le15
"Bicyclo(2.2.1)hept-5-ene-2,3-dimethanol, 1,4,5,6,7,7-hexachloro-",475.95,1.0,OCC1C(CO)C2(Cl)C(Cl)=C(Cl)C1(Cl)C2(Cl)Cl,le15
"Butyric acid, 4-(2,4-dichlorophenoxy)-, isooctyl ester",422.25,1.0,CC(C)CCCCCOC(=O)CCCOc1ccc(Cl)cc1Cl,le15
"Benzene, 1,2,4-trichloro-5-((3-iodo-2-propynyl)oxy)-",463.95,1.0,Clc1cc(Cl)c(OCC#CI)cc1Cl,le15
1-(2-Tetrahydrofurfuryloxyethyl)-4-phenylpiperidine-4-carboxylic acid,511.35,1.0,O=C(O)C1(c2ccccc2)CCN(CCOCC2CCCO2)CC1,le15
"Benzamide, N-(5-chloro-9,10-dihydro-9,10-dioxo-1-anthracenyl)-",533.15,1.0,O=C(Nc1cccc2c1C(=O)c1cccc(Cl)c1C2=O)c1ccccc1,le15
"Phosphoric acid, 2-ethylhexyl diphenyl ester",495.15,1.0,CCCCC(CC)COP(=O)(Oc1ccccc1)Oc1ccccc1,le15
"Pregn-4-ene-3,20-dione, 11,17,21-trihydroxy-, (11beta)-",583.55,1.0,C[C@]12C[C@H](O)[C@H]3[C@@H](CCC4=CC(=O)CC[C@@]43C)[C@@H]1CC[C@]2(O)C(=O)CO,le15
"1,2-Benzenedicarboxylic acid, 1,2-diheptyl ester",484.45,1.0,CCCCCCCOC(=O)c1ccccc1C(=O)OCCCCCCC,le15
"Pregna-4,6-diene-3,20-dione, 6-chloro-17-hydroxy-",533.3499999999998,1.0,CC(=O)[C@@]1(O)CC[C@H]2[C@@H]3C=C(Cl)C4=CC(=O)CC[C@]4(C)[C@H]3CC[C@@]21C,le15
"3,5,6-Trichloro-2,2,3,4,4,5,6,6-octafluorohexanoic acid",359.54999999999984,1.0,O=C(O)C(F)(F)C(F)(Cl)C(F)(F)C(F)(Cl)C(F)(F)Cl,le15
"1-Piperazineethanol, 4-(3-(5H-dibenz(b,f)azepin-5-yl)propyl)-",563.65,1.0,OCCN1CCN(CCCN2c3ccccc3C=Cc3ccccc32)CC1,le15
"4,4',4''-Trichlorotrityl alcohol",523.25,1.0,OC(c1ccc(Cl)cc1)(c1ccc(Cl)cc1)c1ccc(Cl)cc1,le15
"2,2,3,3,4,4,5,5,6,6,7,7,7-tridecafluoroheptanoic acid",324.45,1.0,O=C(O)C(F)(F)C(F)(F)C(F)(F)C(F)(F)C(F)(F)C(F)(F)F,le15
"2-Butenoic acid, 2-(1-methylheptyl)-4,6-dinitrophenyl ester",447.05,1.0,CC=CC(=O)Oc1c(C(C)CCCCCC)cc([N+](=O)[O-])cc1[N+](=O)[O-],le15
"Phenol, 4-((4-(acetyloxy)phenyl)cyclohexylidenemethyl)-, acetate (9CI)",527.95,1.0,CC(=O)Oc1ccc(C(=C2CCCCC2)c2ccc(OC(C)=O)cc2)cc1,le15
henicosylcyclopentane,478.95,1.0,CCCCCCCCCCCCCCCCCCCCCC1CCCC1,le15
"Phenothiazine-2-carbonitrile, 10-(3-(4-hydroxypiperidino)propyl)-",585.8499999999998,1.0,N#Cc1ccc2c(c1)N(CCCN1CCC(O)CC1)c1ccccc1S2,le15
"Phenol, 4,4'-(1-methylethylidene)bis(2,6-dichloro-",469.95,1.0,CC(C)(c1cc(Cl)c(O)c(Cl)c1)c1cc(Cl)c(O)c(Cl)c1,le15
"Propionic acid, 2,2-dichloro-, 2-(2,4,5-trichlorophenoxy)ethyl ester",430.25,1.0,CC(Cl)(Cl)C(=O)OCCOc1cc(Cl)c(Cl)cc1Cl,le15
"1,2-Benzenedicarboxylic acid, bis(2-butoxyethyl) ester",444.35,1.0,CCCCOCCOC(=O)c1ccccc1C(=O)OCCOCCCC,le15
"Hexanedioic acid, bis(7-oxabicyclo(4.1.0)hept-3-ylmethyl) ester",479.25,1.0,O=C(CCCCC(=O)OCC1CCC2OC2C1)OCC1CCC2OC2C1,le15
1-(2-Benzyloxyethyl)-4-phenylpiperidine-4-carboxylic acid ethyl ester,509.85,1.0,CCOC(=O)C1(c2ccccc2)CCN(CCOCc2ccccc2)CC1,le15
"Acetic acid, (2,4,5-trichlorophenoxy)-, 2-ethylhexyl ester",418.05,1.0,CCCCC(CC)COC(=O)COc1cc(Cl)c(Cl)cc1Cl,le15
"Phosphoric acid, tris(3-methylphenyl) ester",507.45,1.0,Cc1cccc(OP(=O)(Oc2cccc(C)c2)Oc2cccc(C)c2)c1,le15
"Phosphoric acid, tris(2-methylphenyl) ester",498.15,1.0,Cc1ccccc1OP(=O)(Oc1ccccc1C)Oc1ccccc1C,le15
"4-Pyridinemethanol, 3,3'-(dithiobis(methylene))bis(5-hydroxy-6-methyl-",676.15,1.0,Cc1ncc(CSSCc2cnc(C)c(O)c2CO)c(CO)c1O,le15
"Phenol, 2,2'-methylenebis(6-(1,1-dimethylethyl)-4-ethyl-",460.65,1.0,CCc1cc(Cc2cc(CC)cc(C(C)(C)C)c2O)c(O)c(C(C)(C)C)c1,le15
"Ethanol, 2-((4-((2,6-dichloro-4-nitrophenyl)azo)phenyl)methylamino)-",568.95,1.0,O=[N+]([O-])c1cc(Cl)c(N=Nc2ccc(CNCCO)cc2)c(Cl)c1,le15
"Sulfanilanilide, 3-nitro-N4-phenyl- (8CI)",558.45,1.0,O=[N+]([O-])c1cc(S(=O)(=O)Nc2ccccc2)ccc1Nc1ccccc1,le15
"9-Octadecenamide, N,N-bis(2-hydroxyethyl)-, (9Z)-",544.8499999999998,1.0,CCCCCCCC/C=C\CCCCCCCC(=O)N(CCO)CCO,le15
"Acetic acid, 2,4,5-trichlorophenoxy-, 2-butoxypropyl ester",431.95,1.0,CCCCOC(C)COC(=O)COc1cc(Cl)c(Cl)cc1Cl,le15
"1,1,1,2,2,3,3,4,4,5,5,6,6,7,7-pentadecafluoroheptane",296.45,1.0,FC(F)C(F)(F)C(F)(F)C(F)(F)C(F)(F)C(F)(F)C(F)(F)F,le15
"Hexanedioic acid, bis(2-ethylhexyl) ester",442.05,1.0,CCCCC(CC)COC(=O)CCCCC(=O)OCC(CC)CCCC,le15
dioctyl hexanedioate,451.75,1.0,CCCCCCCCOC(=O)CCCCC(=O)OCCCCCCCC,le15