,compound,flashpoint,pure substance,smiles,source
5575,1-Heptanamine,317.15,1,CCCCCCCN,le15
5576,"Formamide, 1,1'-azobis-",399.15,1,NC(=O)N=NC(N)=O,le15
5577,"Butanoic acid, 3-oxo-, methyl ester",334.75,1,COC(=O)CC(C)=O,le15
5578,"Pentanoic acid, 4-oxo-",388.15,1,CC(=O)CCC(=O)O,le15
5579,2-oxopropyl acetate,325.05,1,CC(=O)COC(C)=O,le15
5580,"Pyruvic acid, ethyl ester (8CI)",318.15,1,CCOC(=O)C(C)=O,le15
5581,"2-Propenoic acid, 2-hydroxyethyl ester",371.45,1,C=CC(=O)OCCO,le15
5582,2-oxopentanoic acid,349.75,1,CCCC(=O)C(=O)O,le15
5583,"1,3-Dioxolan-2-one, 4-ethyl-",401.55,1,CCC1COC(=O)O1,le15
5584,3-methyl-2-oxobutanoic acid,344.15,1,CC(C)C(=O)C(=O)O,le15
5585,"Morpholine, N-nitroso-",363.65,1,O=NN1CCOCC1,le15
5586,"Hydrazine, 1,2-diacetyl- (8CI)",456.45,1,CC(=O)NNC(C)=O,le15
5587,prop-1-ynylbenzene,335.37199999999996,1,CC#Cc1ccccc1,le15
5588,1-ethynyl-4-methylbenzene,322.039,1,C#Cc1ccc(C)cc1,le15
5589,1H-Indene,331.15,1,C1=Cc2ccccc2C1,le15
5590,"Butanoic acid, 2-ethyl-",360.15,1,CCC(CC)C(=O)O,le15
5591,"Pentanoic acid, 2-methyl-",364.15,1,CCCC(C)C(=O)O,le15
5592,"Propanoic acid, 2-methyl-, ethyl ester",286.15,1,CCOC(=O)C(C)C,le15
5593,"2H-Pyran-2-methanol, tetrahydro-",366.45,1,OCC1CCCCO1,le15
5594,"Pentanoic acid, 3-methyl-",361.55,1,CCC(C)CC(=O)O,le15
5595,"Acetic acid, 1-methylpropyl ester",289.25,1,CCC(C)OC(C)=O,le15
5596,"Butanoic acid, ethyl ester",292.594,1,CCCC(=O)OCC,le15
5597,"Propanoic acid, propyl ester",297.55,1,CCCOC(=O)CC,le15
5598,"Acetic acid, 2-methylpropyl ester",294.85,1,CC(=O)OCC(C)C,le15
5599,"1-Butanol, 3-methyl-, formate",295.45,1,CC(C)CCOC=O,le15
5600,"2-Pentanone, 4-hydroxy-4-methyl-",331.15,1,CC(=O)CC(C)(C)O,le15
5601,"1,3-Dioxolane, 2-ethyl-2-methyl-",286.15,1,CCC1(C)OCCO1,le15
5602,"Acetic acid, 1,1-dimethylethyl ester",284.15,1,CC(=O)OC(C)(C)C,le15
5603,methyl 3-methylbutanoate,292.55,1,COC(=O)CC(C)C,le15
5604,"2,2-dimethylbutanoic acid",352.55,1,CCC(C)(C)C(=O)O,le15
5605,"Pentanoic acid, methyl ester",295.35,1,CCCCC(=O)OC,le15
5606,propan-2-yl propanoate,292.55,1,CCC(=O)OC(C)C,le15
5607,"3,3-dimethylbutanoic acid",353.75,1,CC(C)(C)CC(=O)O,le15
5608,"Oxirane, ((1-methylethoxy)methyl)-",306.45,1,CC(C)OCC1CO1,le15
5609,"2,3-dimethylbutanoic acid",356.55,1,CC(C)C(C)C(=O)O,le15
5610,2-(methoxymethyl)oxolane,306.45,1,COCC1CCCO1,le15
5611,6-hydroxyhexan-2-one,365.35,1,CC(=O)CCCCO,le15
5612,"methyl 2,2-dimethylpropanoate",279.85,1,COC(=O)C(C)(C)C,le15
5613,"Butanoic acid, 2-methyl-, methyl ester",292.55,1,CCC(C)C(=O)OC,le15
5614,2ethylbutyricacid,360.0,1,CCC(CC)C(=O)O,le15
5615,IsopropylGlycidylEther,306.0,1,CC(C)OCC1CO1,le15
5616,Methylvalerate,295.0,1,CCCCC(=O)OC,le15
5617,secButylacetate,289.0,1,CCC(C)OC(C)=O,le15
5618,tertButylacetate,288.0,1,CC(=O)OC(C)(C)C,le15
5619,"Urea, butyl-",335.45,1,CCCCNC(N)=O,le15
5620,"1,3-diethylurea",394.25,1,CCNC(=O)NCC,le15
5621,"Urea, 1,1,3,3-tetramethyl-",327.05,1,CN(C)C(=O)N(C)C,le15
5622,"2-Tetrazene, 1,1,4,4-tetramethyl-",535.55,1,CN(C)N=NN(C)C,le15
5623,4-Heptanol,334.95,1,CCCC(O)CCC,le15
5624,3-Heptanol,327.55,1,CCCCC(O)CC,le15
5625,"2,3,3-trimethylbutan-2-ol",306.75,1,CC(C)(C)C(C)(C)O,le15
5626,"2,3-dimethylpentan-3-ol",313.75,1,CCC(C)(O)C(C)C,le15
5627,3-ethylpentan-3-ol,313.15,1,CCC(O)(CC)CC,le15
5628,3-methylhexan-3-ol,322.55,1,CCCC(C)(O)CC,le15
5629,2-methylhexan-3-ol,313.70599999999996,1,CCCC(O)C(C)C,le15
5630,2-ethoxy-2-methylbutane,278.15,1,CCOC(C)(C)CC,le15
5631,1-propan-2-yloxybutane,280.45,1,CCCCOC(C)C,le15
5632,1-propoxybutane,288.75,1,CCCCOCCC,le15
5633,"2,2-dimethylpentan-3-ol",311.45,1,CCC(O)C(C)(C)C,le15
5634,1-methoxyhexane,294.15,1,CCCCCCOC,le15
5635,2-methyl-1-propoxypropane,282.15,1,CCCOCC(C)C,le15
5636,1-ethoxypentane,289.55,1,CCCCCOCC,le15
5637,"3-Pentanol, 2,4-dimethyl-",310.15,1,CC(C)C(O)C(C)C,le15
5638,2-methylhexan-1-ol,334.95,1,CCCCC(C)CO,le15
5639,2heptanol,344.0,1,CCCCCC(C)O,le15
5640,"1,2-Ethanediamine, N,N-diethyl-",303.75,1,CCN(CC)CCN,le15
5641,"N-ethyl-N',N'-dimethylethane-1,2-diamine",297.05,1,CCNCCN(C)C,le15
5642,Hexamethylenediamine,367.15,1,NCCCCCCN,le15
5643,"Hydrazine, 1,1-bis(1-methylethyl)- (9CI)",303.45,1,CC(C)N(N)C(C)C,le15
5644,thiepane,324.85,1,C1CCCSCC1,le15
5645,Cyclohexanethiol,316.0,1,SC1CCCCC1,le15
5646,"1-chloro-1,2,2-trifluoroethene",245.15,1,FC(F)=C(F)Cl,le15
5647,"Benzonitrile, 4-methyl-",358.786,1,Cc1ccc(C#N)cc1,le15
5648,"Acetonitrile, phenyl-",374.15,1,N#CCc1ccccc1,le15
5649,1H-Indole,380.98900000000003,1,c1ccc2[nH]ccc2c1,le15
5650,"Benzonitrile, 2-methyl-",358.15,1,Cc1ccccc1C#N,le15
5651,"Benzonitrile, 3-methyl-",359.85,1,Cc1cccc(C#N)c1,le15
5652,Benzylcyanide,374.0,1,N#CCc1ccccc1,le15
5653,"Nitrous acid, 3-methylbutyl ester",283.15,1,CC(C)CCON=O,le15
5654,"Nitrous acid, pentyl ester",282.05,1,CCCCCON=O,le15
5655,Valine,356.158,1,CC(C)[C@H](N)C(=O)O,le15
5656,"Pentane, 3-nitro-",319.25,1,CCC(CC)[N+](=O)[O-],le15
5657,"Carbamic acid, butyl ester",381.15,1,CCCCOC(N)=O,le15
5658,ethyl N-ethylcarbamate,348.75,1,CCNC(=O)OCC,le15
5659,"Butanoic acid, 4-(methylamino)-",370.45,1,CNCCCC(=O)O,le15
5660,"Ethanol, 2-(diethylamino)-",322.05,1,CCN(CC)CCO,le15
5661,"Ethanol, 2-(butylamino)-",352.45,1,CCCCNCCO,le15
5662,"1-Hexanol, 6-amino- (8CI)(9CI)",346.65,1,NCCCCCCO,le15
5663,"Ethanol, 2-((1,1-dimethylethyl)amino)-",342.05,1,CC(C)(C)NCCO,le15
5664,"1-Hexanol, 2-amino-",373.15,1,CCCCC(N)CO,le15
5665,"1-Pentanol, 2-amino-4-methyl-, (S)-",363.75,1,CC(C)C[C@H](N)CO,le15
5666,2-(2-methylpropylamino)ethanol,345.25,1,CC(C)CNCCO,le15
5667,N-methyl-N-trimethylsilylmethanamine,254.15,1,CN(C)[Si](C)(C)C,le15
5668,"Pentanenitrile, 5-chloro-",371.45,1,N#CCCCCCl,le15
5669,"Propanedioic acid, oxo- (9CI)",486.15,1,O=C(O)C(=O)C(=O)O,le15
5670,Butanedioic acid,384.05,1,O=C(O)CCC(=O)O,le15
5671,dimethyl oxalate,348.15,1,COC(=O)C(=O)OC,le15
5672,"Ethylene glycol, diformate",359.35,1,O=COCCOC=O,le15
5673,"Glycine, N-carbamoyl- (7CI,8CI)",424.65,1,NC(=O)NCC(=O)O,le15
5674,"Propane, 2-nitro-2-nitroso-",309.25,1,CC(C)(N=O)[N+](=O)[O-],le15
5675,"Guanidine, N-methyl-N'-nitro- (9CI)",378.55,1,CNC(=N)N[N+](=O)[O-],le15
5676,Benzofuran,329.0,1,c1ccc2occc2c1,le15
5677,1H-Benzimidazole,481.589,1,c1ccc2[nH]cnc2c1,le15
5678,"Propanoic acid, 2-hydroxy-, ethyl ester",327.75,1,CCOC(=O)C(C)O,le15
5679,"Carbonic acid, diethyl ester",304.25,1,CCOC(=O)OCC,le15
5680,"Propanoic acid, 2-hydroxy-, ethyl ester, (2S)-",319.15,1,CCOC(=O)[C@H](C)O,le15
5681,2-aminobenzonitrile,395.35,1,N#Cc1ccccc1N,le15
5682,methyl 2-hydroxy-2-methylpropanoate,309.95,1,COC(=O)C(C)(C)O,le15
5683,"Benzonitrile, 3-amino- (9CI)",385.15,1,N#Cc1cccc(N)c1,le15
5684,methyl 3-methoxypropanoate,320.15,1,COCCC(=O)OC,le15
5685,ethyl 2-methoxyacetate,319.25,1,CCOC(=O)COC,le15
5686,"Ethanol, 2-methoxy-, acetate",317.05,1,COCCOC(C)=O,le15
5687,1H-indazole,401.65,1,c1ccc2[nH]ncc2c1,le15
5688,"Benzonitrile, p-amino- (8CI)",400.25,1,N#Cc1ccc(N)cc1,le15
5689,DiethylCarbonate,298.0,1,CCOC(=O)OCC,le15
5690,"Ethene, 1,1'-sulfonylbis-",375.15,1,C=CS(=O)(=O)C=C,le15
5691,"Thiophene, 2,5-dihydro-, 1,1-dioxide",385.15,1,O=S1(=O)CC=CC1,le15
5692,triethylphosphane,255.95,1,CCP(CC)CC,le15
5693,"Acetamide, N-(aminothioxomethyl)-",353.15,1,CC(=O)NC(N)=S,le15
5694,"Benzene, (1-methylethenyl)-",318.70599999999996,1,C=C(C)c1ccccc1,le15
5695,1-ethenyl-3-methylbenzene,320.55,1,C=Cc1cccc(C)c1,le15
5696,"Benzene, 2-propenyl-",306.45,1,CC=Cc1ccccc1,le15
5697,"1H-Indene, 2,3-dihydro-",323.15,1,c1ccc2c(c1)CCC2,le15
5698,"Benzene, 1-ethenyl-4-methyl-",321.85,1,C=Cc1ccc(C)cc1,le15
5699,cyclopropylbenzene,317.05,1,c1ccc(C2CC2)cc1,le15
5700,"Benzene, 1-propenyl-, (Z)-",322.55,1,C/C=C\c1ccccc1,le15
5701,3methylstyrene,324.0,1,C=Cc1cccc(C)c1,le15
5702,4methylstyrene,318.0,1,C=Cc1ccc(C)cc1,le15
5703,"2,3-dimethylbutane-2,3-diol",350.35,1,CC(C)(O)C(C)(C)O,le15
5704,"2-ethyl-2-methylpropane-1,3-diol",369.25,1,CCC(C)(CO)CO,le15
5705,"2,4-Pentanediol, 2-methyl-",367.05,1,CC(O)CC(C)(C)O,le15
5706,"1-Propanol, 3-(1-methylethoxy)- (9CI)",328.35,1,CC(C)OCCCO,le15
5707,"1-Butanol, 4-ethoxy-",330.05,1,CCOCCCCO,le15
5708,"Ethanol, 2-butoxy-",333.15,1,CCCCOCCO,le15
5709,"1,3-Pentanediol, 2-methyl-",381.65,1,CCC(O)C(C)CO,le15
5710,"Ethane, 1,2-diethoxy-",293.75,1,CCOCCOCC,le15
5711,"2-Propanol, 1-propoxy-",321.15,1,CCCOCC(C)O,le15
5712,"Ethanol, 2-(2-methylpropoxy)-",323.55,1,CC(C)COCCO,le15
5713,"3-methylpentane-2,4-diol",364.45,1,CC(O)C(C)C(C)O,le15
5714,"1,2-Hexanediol",395.15,1,CCCCC(O)CO,le15
5715,"1,3-Butanediol, 2,2-dimethyl-",360.75,1,CC(O)C(C)(C)CO,le15
5716,"2,4-Hexanediol",374.15,1,CCC(O)CC(C)O,le15
5717,1-propan-2-yloxypropan-2-ol,321.35,1,CC(O)COC(C)C,le15
5718,"Ethanol, 2-sec-butoxy-",323.35,1,CCC(C)OCCO,le15
5719,"Sulfide, methylvinyloxyethyl-",319.05,1,CC=COCCSCCOC=CC,le15
5720,1fluoroheptane,286.0,1,CCCCCCCF,le15
5721,1-Hexanethiol,303.15,1,CCCCCCS,le15
5722,Propyl sulfide (8CI),301.45,1,CCCSCCC,le15
5723,2-propan-2-ylsulfanylpropane,280.15,1,CC(C)SC(C)C,le15
5724,1-propan-2-ylsulfanylpropane,296.15,1,CCCSC(C)C,le15
5725,1-methylsulfanylpentane,312.85,1,CCCCCSC,le15
5726,ethoxy(trimethyl)silane,255.15,1,CCO[Si](C)(C)C,le15
5727,3-methylbut-2-enoyl chloride,324.15,1,CC(C)=CC(=O)Cl,le15
5728,2-chlorothiophene,295.15,1,Clc1cccs1,le15
5729,"Cyclohexane, chloro-",301.15,1,ClC1CCCCC1,le15
5730,"1-Propyne, 3-bromo-",290.25,1,C#CCBr,le15
5731,"Propanoic acid, 3-nitro- (9CI)",421.55,1,O=C(O)CC[N+](=O)[O-],le15
5732,"Acetic acid, nitro-, methyl ester",378.15,1,COC(=O)C[N+](=O)[O-],le15
5733,"2,1-benzoxazole",367.05,1,c1ccc2nocc2c1,le15
5734,"1,3-benzoxazole",338.45,1,c1ccc2ocnc2c1,le15
5735,"Benzonitrile, 4-hydroxy-",397.05,1,N#Cc1ccc(O)cc1,le15
5736,"Benzonitrile, 3-hydroxy-",380.75,1,N#Cc1cccc(O)c1,le15
5737,(E)-3-(furan-2-yl)prop-2-enenitrile,360.35,1,N#C/C=C/c1ccco1,le15
5738,1H-Benzotriazole,407.05,1,c1ccc2[nH]nnc2c1,le15
5739,2-methylpropyl nitrate,314.05,1,CC(C)CO[N+](=O)[O-],le15
5740,butan-2-yl nitrate,314.05,1,CCC(C)O[N+](=O)[O-],le15
5741,"Ethanol, 2-methoxy-, carbamate",404.15,1,COCCOC(N)=O,le15
5742,"Hydrazinecarbothioamide, 1-formyl- (9CI)",364.65,1,NC(=S)N(N)C=O,le15
5743,"Pyridine, 5-ethenyl-2-methyl-",329.75,1,C=Cc1ccc(C)nc1,le15
5744,"2,3-dihydro-1H-indole",365.95,1,c1ccc2c(c1)CCN2,le15
5745,N-methyl-1-phenylmethanimine,386.15,1,CN=Cc1ccccc1,le15
5746,"Benzenamine, 4-ethenyl-",381.75,1,C=Cc1ccc(N)cc1,le15
5747,"Ethanol, 2,2'-(methylimino)bis-",399.85,1,CN(CCO)CCO,le15
5748,"2,2-dimethoxy-N-methylethanamine",302.55,1,CNCC(OC)OC,le15
5749,MethylDiethanolAmine,411.0,1,CN(CCO)CCO,le15
5750,2-Thiazolidinethione,341.25,1,S=C1NCCS1,le15
5751,"Acetonitrile, bromo-",297.45,1,N#CCBr,le15
5752,trimethylarsane,373.15,1,C[As](C)C,le15
5753,"1,1-dinitroethane",352.15,1,CC([N+](=O)[O-])[N+](=O)[O-],le15
5754,"Urea, 1,3-bis(hydroxymethyl)- (8CI)",505.45,1,O=C(NCO)NCO,le15
5755,"Benzene, (epoxyethyl)-",352.55,1,c1ccc(C2CO2)cc1,le15
5756,"Acetaldehyde, phenyl- (8CI)",362.35,1,O=CCc1ccccc1,le15
5757,"Isobenzofuran, 1,3-dihydro-",336.15,1,c1ccc2c(c1)COC2,le15
5758,"Benzofuran, 2,3-dihydro-",339.15,1,c1ccc2c(c1)CCO2,le15
5759,o-Tolualdehyde (8CI),352.65,1,Cc1ccccc1C=O,le15
5760,"Benzaldehyde, 3-methyl-",351.15,1,Cc1cccc(C=O)c1,le15
5761,4-ethenylphenol,365.45,1,C=Cc1ccc(O)cc1,le15
5762,"Ethanone, 1-phenyl-",354.05,1,CC(=O)c1ccccc1,le15
5763,"2-(hydroxymethyl)-2-methylpropane-1,3-diol",418.65,1,CC(CO)(CO)CO,le15
5764,"Ethanol, 2-(2-methoxyethoxy)-",357.05,1,COCCOCCO,le15
5765,"1,3-dimethoxypropan-2-ol",331.35,1,COCC(O)COC,le15
5766,"1,1,1-trimethoxyethane",289.15,1,COC(C)(OC)OC,le15
5767,"3-ethoxypropane-1,2-diol",372.65,1,CCOCC(O)CO,le15
5768,"Thiophene, tetrahydro-, 1,1-dioxide",443.82800000000003,1,O=S1(=O)CCCC1,le15
5769,"Acetic acid, mercapto-, ethyl ester",320.95,1,CCOC(=O)CS,le15
5770,(Ethylsulphonyl)ethylene,382.15,1,C=CS(=O)(=O)CC,le15
5771,methyl 3-sulfanylpropanoate,333.15,1,COC(=O)CCS,le15
5772,"Benzene, (1-methylethyl)-",304.15,1,CC(C)c1ccccc1,le15
5773,1-ethyl-2-methylbenzene,312.55,1,CCc1ccccc1C,le15
5774,"Bicyclo(2.2.1)hept-2-ene, 5-ethenyl-",299.35,1,C=CC1CC2C=CC1C2,le15
5775,"Bicyclo(2.2.1)hept-2-ene, 5-ethylidene-",311.45,1,CC=C1CC2C=CC1C2,le15
5776,"1H-Indene, 3a,4,7,7a-tetrahydro-",306.95,1,C1=CCC2CC=CC2C1,le15
5777,5ethylidene2norbornene,311.0,1,CC=C1CC2C=CC1C2,le15
5778,mEthyltoluene,311.0,1,CCc1ccccc1,le15
5779,Ethanedithioamide,379.35,1,NC(=S)C(N)=S,le15
5780,"1,3-Dithiane",363.15,1,C1CSCSC1,le15
5781,"1,4-Dithiane",355.25,1,C1CSCCS1,le15
5782,"Carbonochloridic acid, 2-propenyl ester",361.15,1,C=CCOC(=O)Cl,le15
5783,prop-1-en-2-yl carbonochloridate,289.25,1,C=C(C)OC(=O)Cl,le15
5784,Pentanoyl chloride,305.95,1,CCCCC(=O)Cl,le15
5785,"Oxetane, 3-(chloromethyl)-3-methyl-",316.05,1,CC1(CCl)COC1,le15
5786,2-methylbutanoyl chloride,298.65,1,CCC(C)C(=O)Cl,le15
5787,3-methylbutanoyl chloride,298.65,1,CC(C)CC(=O)Cl,le15
5788,"2,2-dimethylpropanoyl chloride",282.05,1,CC(C)(C)C(=O)Cl,le15
5789,1-chlorohexane,299.15,1,CCCCCCCl,le15
5790,3-chloro-3-methylpentane,282.55,1,CCC(C)(Cl)CC,le15
5791,3-chlorohexane,298.15,1,CCCC(Cl)CC,le15
5792,"1-chloro-3,3-dimethylbutane",292.15,1,CC(C)(C)CCCl,le15
5793,3-(chloromethyl)pentane,298.15,1,CCC(CC)CCl,le15
5794,[(E)-2-chloroethenyl]-dimethylsilicon,269.15,1,C[Si](C)/C=C/Cl,le15
5795,"Methane, dichlorodifluoro-",284.15,1,FC(F)(Cl)Cl,le15
5796,2-bromoprop-1-ene,327.15,1,C=C(C)Br,le15
5797,"1-Propene, 3-bromo-",272.15,1,C=CCBr,le15
5798,"Peroxide, acetyl nitro",357.85,1,CC(=O)OO[N+](=O)[O-],le15
5799,4-fluorobenzonitrile,338.75,1,N#Cc1ccc(F)cc1,le15
5800,3-fluorobenzonitrile,340.15,1,N#Cc1cccc(F)c1,le15
5801,"Ethanone, 1-(3-pyridinyl)-",377.15,1,CC(=O)c1cccnc1,le15
5802,"Benzaldehyde, p-amino- (8CI)",395.14099999999996,1,Nc1ccc(C=O)cc1,le15
5803,"Benzene, 1-methyl-2-nitroso- (9CI)",347.85,1,Cc1ccccc1N=O,le15
5804,"Benzaldehyde, oxime, (Z)-",382.05,1,O/N=C\c1ccccc1,le15
5805,"Ethanone, 1-(4-pyridinyl)-",360.15,1,CC(=O)c1ccncc1,le15
5806,"Ethanone, 1-(2-pyridinyl)-",346.45,1,CC(=O)c1ccccn1,le15
5807,"Formamide, N-phenyl-",423.35,1,O=CNc1ccccc1,le15
5808,L-Cysteine,404.65,1,N[C@@H](CS)C(=O)O,le15
5809,2-phenylethanamine,363.75,1,NCCc1ccccc1,le15
5810,"Benzenamine, 2,3-dimethyl-",369.15,1,Cc1cccc(N)c1C,le15
5811,"Benzenamine, 2,6-dimethyl-",364.15,1,Cc1cccc(C)c1N,le15
5812,"Benzenemethanamine, 2-methyl-",357.05,1,Cc1ccccc1CN,le15
5813,"Benzenamine, 2,4-dimethyl-",363.75,1,Cc1ccc(N)c(C)c1,le15
5814,"Benzenamine, 2,5-dimethyl-",367.05,1,Cc1ccc(C)c(N)c1,le15
5815,(3-methylphenyl)methanamine,353.75,1,Cc1cccc(CN)c1,le15
5816,"Benzenamine, N-ethyl-",358.15,1,CCNc1ccccc1,le15
5817,"Benzylamine, p-methyl- (8CI)",348.15,1,Cc1ccc(CN)cc1,le15
5818,"Benzenamine, 3,5-dimethyl-",366.45,1,Cc1cc(C)cc(N)c1,le15
5819,3-ethyl-4-methylpyridine,343.251,1,CCc1cnccc1C,le15
5820,4-ethyl-2-methylpyridine,330.15,1,CCc1ccnc(C)c1,le15
5821,"Aniline, o-ethyl- (8CI)",358.15,1,CCc1ccccc1N,le15
5822,"o-Toluidine, N-methyl- (8CI)",349.55,1,CNc1ccccc1C,le15
5823,"Benzenemethanamine, alpha-methyl-",348.95300000000003,1,CC(N)c1ccccc1,le15
5824,"m-Toluidine, N-methyl- (8CI)",350.45,1,CNc1cccc(C)c1,le15
5825,"2,4,5-trimethylpyridine",331.05,1,Cc1cc(C)c(C)cn1,le15
5826,2-ethyl-6-methylpyridine,316.55,1,CCc1cccc(C)n1,le15
5827,4-propylpyridine,337.66,1,CCCc1ccncc1,le15
5828,"2,3,6-trimethylpyridine",320.75,1,Cc1ccc(C)c(C)n1,le15
5829,"2,3,4-trimethylpyridine",335.05,1,Cc1ccnc(C)c1C,le15
5830,"Benzenamine, 3,4-dimethyl-",371.45,1,Cc1ccc(N)cc1C,le15
5831,N-methyl-1-phenylmethanamine,350.95,1,CNCc1ccccc1,le15
5832,"Pyridine, 5-ethyl-2-methyl-",339.25,1,CCc1ccc(C)nc1,le15
5833,"Benzenamine, 3-ethyl- (9CI)",358.15,1,CCc1cccc(N)c1,le15
5834,"Aniline, p-ethyl- (8CI)",358.15,1,CCc1ccc(N)cc1,le15
5835,"N,4-dimethylaniline",345.25,1,CNc1ccc(C)cc1,le15
5836,2-propan-2-ylpyridine,296.35,1,CC(C)c1ccccn1,le15
5837,"2,3,5-trimethylpyridine",315.95,1,Cc1cnc(C)c(C)c1,le15
5838,"Benzaldehyde, 2-hydroxy-",349.85,1,O=Cc1ccccc1O,le15
5839,"Benzaldehyde, 4-hydroxy-",374.45,1,O=Cc1ccc(O)cc1,le15
5840,"Benzene, 1,2-methylenedioxy-",328.15,1,c1ccc2c(c1)OCO2,le15
5841,"2,5-Cyclohexadiene-1,4-dione, 2-methyl-",338.05,1,CC1=CC(=O)C=CC1=O,le15
5842,"Benzaldehyde, 3-hydroxy-",371.75,1,O=Cc1cccc(O)c1,le15
5843,"2-Propenal, 3-(2-furanyl)-",361.95,1,O=CC=Cc1ccco1,le15
5844,3-Pyridinecarboxamide,429.15,1,NC(=O)c1cccnc1,le15
5845,"1,2,3,4-Butanetetrol, (2R,3S)-rel-",481.95,1,OC[C@H](O)[C@H](O)CO,le15
5846,"4-Pyridinecarboxaldehyde, oxime",345.25,1,ON=Cc1ccncc1,le15
5847,"2-Pyridinecarboxaldehyde, oxime",346.65,1,ON=Cc1ccccn1,le15
5848,4-Pyridinecarboxamide,429.15,1,NC(=O)c1ccncc1,le15
5849,"1,2-Oxathiolane, 2,2-dioxide",406.931,1,O=S1(=O)CCCO1,le15
5850,Phenethyl alcohol,371.55,1,OCCc1ccccc1,le15
5851,"Benzyl alcohol, o-methyl- (8CI)",377.55,1,Cc1ccccc1CO,le15
5852,"Phenol, 2-ethyl-",351.45,1,CCc1ccccc1O,le15
5853,"Phenol, 3,4-dimethyl-",367.15,1,Cc1ccc(O)cc1C,le15
5854,1-methoxy-3-methylbenzene,327.15,1,COc1cccc(C)c1,le15
5855,"Benzene, 1-methoxy-4-methyl-",326.45,1,COc1ccc(C)cc1,le15
5856,"Ether, benzyl methyl (8CI)",326.15,1,COCc1ccccc1,le15
5857,"Phenol, 2,6-dimethyl-",351.45,1,Cc1cccc(C)c1O,le15
5858,1-methoxy-2-methylbenzene,324.15,1,COc1ccccc1C,le15
5859,"Benzenemethanol, 3-methyl-",378.75,1,Cc1cccc(CO)c1,le15
5860,4-Methyl-benzenemethanol (9CI),378.15,1,Cc1ccc(CO)cc1,le15
5861,"Phenol, m-ethyl- (8CI)",367.15,1,CCc1cccc(O)c1,le15
5862,1-phenylethanol,358.15,1,CC(O)c1ccccc1,le15
5863,"Ether, 1,3,5-cycloheptatrien-1-yl methyl (7CI,8CI)",345.65,1,COC1=CC=CC=CC1,le15
5864,"Benzene, ethoxy-",328.15,1,CCOc1ccccc1,le15
5865,"Phenol, 3,5-dimethyl-",365.45,1,Cc1cc(C)cc(O)c1,le15
5866,"1,4-Benzenediamine, 2-methyl-",413.75,1,Cc1cc(N)ccc1N,le15
5867,"1,3-Benzenediamine, 4-methyl-",422.65,1,Cc1ccc(N)cc1N,le15
5868,"1,2-Benzenediamine, 4-methyl-",405.25,1,Cc1ccc(N)c(N)c1,le15
5869,"1,3-Benzenediamine, 2-methyl-",421.45,1,Cc1c(N)cccc1N,le15
5870,"4-Pyridinamine, N,N-dimethyl-",344.85,1,CN(C)c1ccncc1,le15
5871,"2,6-dimethylpyridin-4-amine",399.60699999999997,1,Cc1cc(N)cc(C)n1,le15
5872,"2-Pyridinamine, N,N-dimethyl- (9CI)",347.15,1,CN(C)c1ccccn1,le15
5873,"2,3,5-Trimethylpyrazine",327.55,1,Cc1cnc(C)c(C)n1,le15
5874,1-methyl-1-phenylhydrazine,366.75,1,CN(N)c1ccccc1,le15
5875,"1,2-Benzenediamine, 3-methyl-",404.25,1,Cc1cccc(N)c1N,le15
5876,Ethyl sulfone (8CI),391.55,1,CCS(=O)(=O)CC,le15
5877,"Silane, trimethoxy-",268.75,1,CO[SiH](OC)OC,le15
5878,prop-2-ynylcyclohexane,310.65,1,C#CCC1CCCCC1,le15
5879,methyl(phenyl)silicon,311.65,1,C[Si]c1ccccc1,le15
5880,Ethyl disulfide (8CI),313.15,1,CCSSCC,le15
5881,"1,2-bis(methylsulfanyl)ethane",333.05,1,CSCCSC,le15
5882,DiethylDisulfide,313.0,1,CCSSCC,le15
5883,methyl 2-chloro-2-oxoacetate,319.85,1,COC(=O)C(=O)Cl,le15
5884,"Carbonochloridic acid, 1-methylethyl ester",298.15,1,CC(C)OC(=O)Cl,le15
5885,propyl carbonochloridate,302.25,1,CCCOC(=O)Cl,le15
5886,"Butyric acid, 4-chloro- (8CI)",374.25,1,O=C(O)CCCCl,le15
5887,methyl 3-chloropropanoate,313.65,1,COC(=O)CCCl,le15
5888,2-ethoxyacetyl chloride,480.55,1,CCOCC(=O)Cl,le15
5889,methyl 2-chloropropanoate,310.75,1,COC(=O)C(C)Cl,le15
5890,"Acetic acid, chloro-, ethyl ester",338.75,1,CCOC(=O)CCl,le15
5891,Ethylchloroacetate,326.0,1,CCOC(=O)CCl,le15
5892,Acetyl bromide,322.75,1,CC(=O)Br,le15
5893,"Acetaldehyde, bromo-",346.75,1,O=CCBr,le15
5894,"1,4-dichlorobut-2-yne",433.15,1,ClCC#CCCl,le15
5895,"2,3-dichlorobuta-1,3-diene",310.35,1,C=C(Cl)C(=C)Cl,le15
5896,"Propane, 2-bromo-",292.55,1,CC(C)Br,le15
5897,3-Pyridinecarboxylic acid,403.85,1,O=C(O)c1cccnc1,le15
5898,4-Pyridinecarboxylic acid,466.45,1,O=C(O)c1ccncc1,le15
5899,2-Pyrazinecarboxamide,443.05,1,NC(=O)c1cnccn1,le15
5900,"Benzenamine, 2-methoxy-",380.15,1,COc1ccccc1N,le15
5901,2-(2-Pyridyl)ethanol,365.95,1,OCCc1ccccn1,le15
5902,"Phenol, 4-(methylamino)- (9CI)",421.75,1,CNc1ccc(O)cc1,le15
5903,"Benzenamine, 3-methoxy-",382.75,1,COc1cccc(N)c1,le15
5904,"Benzenemethanol, 3-amino- (9CI)",402.75,1,Nc1cccc(CO)c1,le15
5905,"Phenol, 5-amino-2-methyl-",389.45,1,Cc1ccc(N)cc1O,le15
5906,"Phenol, 2-amino-3-methyl-",372.05,1,Cc1cccc(O)c1N,le15
5907,"Phenol, 2-amino-5-methyl-",372.95,1,Cc1ccc(N)c(O)c1,le15
5908,4-Pyridineethanol,374.65,1,OCCc1ccncc1,le15
5909,"Benzenemethanol, 2-amino-",399.45,1,Nc1ccccc1CO,le15