smiles,compound,flashpoint,source,pure substance
C=C(C)C(=O)OCC,"2-Propenoic acid, 2-methyl-, ethyl ester",288.75,le15,1
C=CCOCC1CO1,"Propane, 1-(allyloxy)-2,3-epoxy- (8CI)",330.35,le15,1
C=COC(=O)CCC,"Butanoic acid, ethenyl ester (9CI)",299.5499999999999,le15,1
C/C=C/C(=O)OCC,"2-Butenoic acid, ethyl ester, (E)- (9CI)",275.15,le15,1
CCC1CCC(=O)O1,"2(3H)-Furanone, 5-ethyldihydro-",371.45,le15,1
COC(=O)C=C(C)C,methyl 3-methylbut-2-enoate,305.25,le15,1
C=CC(=O)OCCC,propyl prop-2-enoate,299.25,le15,1
CCC/C=C/C(=O)O,(E)-hex-2-enoic acid,388.55,le15,1
C=CCOC(=O)CC,"Propionic acid, allyl ester (8CI)",306.65,le15,1
C=CC1OCC(C)O1,"1,3-Dioxolane, 4-methyl-2-vinyl-",278.45,le15,1
CCC(=O)CC(C)=O,"hexane-2,4-dione",326.75,le15,1
O=C(O)C1CCCC1,cyclopentanecarboxylic acid,366.15,le15,1
CCCC(=O)C(C)=O,"2,3-Hexanedione",301.15,le15,1
CC/C=C/CC(=O)O,(E)-hex-3-enoic acid,379.55,le15,1
CCC(=O)C(=O)CC,"3,4-Hexanedione",305.95,le15,1
COC1CCC=CO1,"2H-Pyran, 3,4-dihydro-2-methoxy-",289.85,le15,1
CC(=O)C1OC1(C)C,"Ethanone, 1-(3,3-dimethyloxiranyl)- (9CI)",308.45,le15,1
CCOC(=O)C1CC1,ethyl cyclopropanecarboxylate,302.85,le15,1
C=CC(C)(C)C(=O)O,"2,2-dimethylbut-3-enoic acid",357.45,le15,1
CC=CC(=O)OCC,"2-Butenoic acid, ethyl ester",301.45,le15,1
CCC/C=C/C(=O)O,"2-Hexenoic acid, (2E)-",388.55,le15,1
CC/C=C(\C)C(=O)O,(E)-2-methylpent-2-enoic acid,380.15,le15,1
C/C=C/C(C)C(=O)O,(E)-2-methylpent-3-enoic acid,370.55,le15,1
C=CCCCC(=O)O,hex-5-enoic acid,373.25,le15,1
C=CCC(=O)OCC,ethyl but-3-enoate,303.85,le15,1
C/C=C(\C)C(=O)OC,methyl (E)-2-methylbut-2-enoate,308.15,le15,1
CC(C)/C=C/C(=O)O,(E)-4-methylpent-2-enoic acid,379.15,le15,1
CN1CCN(C)C1=O,"2-Imidazolidinone, 1,3-dimethyl-",349.65,le15,1
O=NN1CCCCC1,"Piperidine, 1-nitroso-",365.95,le15,1
SCc1ccco1,furan-2-ylmethanethiol,318.15,le15,1
OCc1cccs1,thiophen-2-ylmethanol,349.85,le15,1
Cn1cc[nH]c1=S,"2H-Imidazole-2-thione, 1,3-dihydro-1-methyl-",320.5499999999999,le15,1
Cc1nnc(C)s1,"2,5-dimethyl-1,3,4-thiadiazole",354.35,le15,1
OCC1CCCCC1,cyclohexylmethanol,344.25,le15,1
CCC(C)CC(C)=O,4-methylhexan-2-one,304.15,le15,1
CC(=O)CCC(C)C,"2-Hexanone, 5-methyl-",314.25,le15,1
CCC(=O)C(C)(C)C,"2,2-dimethylpentan-3-one",295.5499999999999,le15,1
CC(=O)CC(C)(C)C,"4,4-dimethylpentan-2-one",292.0499999999999,le15,1
OCCC1CCCC1,2-cyclopentylethanol,343.5499999999999,le15,1
CCCCC(C)C=O,2-methylhexanal,305.75,le15,1
COC1CCCCC1,methoxycyclohexane,293.85,le15,1
CCCC(C)C(C)=O,3-methylhexan-2-one,304.15,le15,1
C[C@H]1CCC[C@@H](O)C1,"(1R,3S)-3-methylcyclohexan-1-ol",335.95,le15,1
CCCC(=O)C(C)C,"3-Hexanone, 2-methyl-",297.0499999999999,le15,1
CC1CCC[C@@H](O)C1,(1R)-3-methylcyclohexan-1-ol,335.95,le15,1
C[C@H]1CCCC[C@H]1O,"(1R,2S)-2-methylcyclohexan-1-ol",332.0499999999999,le15,1
CCC(=O)C(C)CC,4-methylhexan-3-one,304.15,le15,1
CCCC(C)CC=O,3-methylhexanal,305.75,le15,1
CCCC/C=C/CO,"2-Hepten-1-ol, (E)- (8CI)(9CI)",341.65,le15,1
CC1(O)CCCCC1,1-methylcyclohexan-1-ol,340.92800000000005,le15,1
CCC(=O)CC(C)C,5-methylhexan-3-one,304.15,le15,1
C=CCC(O)CCC,hept-1-en-4-ol,329.5499999999999,le15,1
CC1CCCCC1O,2methylcyclohexanol,331.0,le15,1
CC1CCCC(O)C1,3methylcyclohexanol,335.0,le15,1
OC1CCCCCC1,Cycloheptanol,344.0,le15,1
CCCCCCC=O,Heptanal,314.0,le15,1
CC1CNC(C)CN1,"Piperazine, 2,5-dimethyl-",331.45,le15,1
NCC1CCNCC1,piperidin-4-ylmethanamine,351.15,le15,1
C=CCSCC=C,"1-Propene, 3,3'-thiobis-",319.25,le15,1
CCCC(C)(C)CC,"3,3-dimethylhexane",282.45,le15,1
CCC(C)C(C)(C)C,"2,2,3-trimethylpentane",281.85,le15,1
CCC(C)C(C)CC,"3,4-dimethylhexane",304.75,le15,1
CCCC(C)CCC,4-methylheptane,279.85,le15,1
CC(C)CCC(C)C,"2,5-dimethylhexane",299.85,le15,1
CC(C)(C)C(C)(C)C,"2,2,3,3-tetramethylbutane",277.54999999999995,le15,1
CCCCCCCC,Octane,286.15,le15,1
CCC(C)(C)C(C)C,"2,3,3-trimethylpentane",284.5499999999999,le15,1
CC(C)C(C)C(C)C,"2,3,4-trimethylpentane",278.15,le15,1
CCC(C)(CC)CC,3-ethyl-3-methylpentane,286.25,le15,1
CCCCCC(C)C,2methylheptane,277.0,le15,1
CCCC(CC)CC,3ethylhexane,279.0,le15,1
CCCCC(C)CC,3methylheptane,280.0,le15,1
CC(C)CC(C)(C)C,Isooctane,261.0,le15,1
C=CC[Si](C)(C)C,trimethyl(prop-2-enyl)silane,280.35,le15,1
Clc1cnccn1,2-chloropyrazine,330.15,le15,1
CS(=O)(=O)Cl,Methanesulphonyl chloride,315.35,le15,1
ClCOCCl,"Ether, bis(chloromethyl)",348.0499999999999,le15,1
OCC(Cl)Cl,"Ethanol, 2,2-dichloro-",351.45,le15,1
S=C(Cl)Cl,Carbonothioic dichloride,335.15,le15,1
[SiH3]C(Cl)Cl,"Silane, dichloromethyl-",240.95,le15,1
Fc1cccc(F)n1,"Pyridine, 2,6-difluoro-",307.0499999999999,le15,1
O=C1CCC(=O)N1O,"Succinimide, N-hydroxy- (8CI)",385.65,le15,1
C=C(C)C(=O)NCO,"Acrylamide, N-(hydroxymethyl)-2-methyl- (6CI,8CI)",412.15,le15,1
CC(=O)N(C)C(C)=O,N-acetyl-N-methylacetamide,339.65,le15,1
O=NN1CCNCC1,"Piperazine, 1-nitroso-",386.95,le15,1
Cn1sccc1=O,"3(2H)-Isothiazolone, 2-methyl-",337.45,le15,1
CN1CCC(O)CC1,1-methylpiperidin-4-ol,360.95,le15,1
CC1CNCC(C)O1,"Morpholine, 2,6-dimethyl-",317.5499999999999,le15,1
CCCCCC(N)=O,Hexanamide,375.374,le15,1
CCN(CC)C(C)=O,"Acetamide, N,N-diethyl-",342.45,le15,1
CCCCNC(C)=O,N-butylacetamide,387.65,le15,1
C=COCCN(C)C,"Ethylamine, N,N-dimethyl-2-(vinyloxy)- (6CI,7CI,8CI)",301.5499999999999,le15,1
CCN1CCOCC1,"Morpholine, 4-ethyl-",300.95,le15,1
CC(=O)CC(C)(C)N,4-amino-4-methylpentan-2-one,329.35,le15,1
CN(C)C(=N)N(C)C,"Guanidine, 1,1,3,3-tetramethyl- (8CI)",333.15,le15,1
CC(C)(C)N=C=S,2-isothiocyanato-2-methylpropane,311.45,le15,1
CCCCN=C=S,"Isothiocyanic acid, butyl ester",339.25,le15,1
CC(C)CN=C=S,1-isothiocyanato-2-methylpropane,317.35,le15,1
CCCCSC#N,butyl thiocyanate,338.0499999999999,le15,1
C[Si](C)(C)N=[N+]=[N-],"Silane, azidotrimethyl-",279.15,le15,1
CCCCCC(C)N,heptan-2-amine,327.15,le15,1
CC(C)CCN(C)C,"1-Butanamine, N,N,3-trimethyl-",283.15,le15,1
CCNC(C)C(C)C,"Propylamine, N-ethyl-1,2-dimethyl- (7CI)",278.75,le15,1
CCCC(N)CCC,heptan-4-amine,314.45,le15,1
CCC(C)CC(C)N,4-methylhexan-2-amine,302.0499999999999,le15,1
CCCCCCCN,1-Heptanamine,317.15,le15,1
NC(=O)N=NC(N)=O,"Formamide, 1,1'-azobis-",399.15,le15,1
COC(=O)CC(C)=O,"Butanoic acid, 3-oxo-, methyl ester",334.75,le15,1
CC(=O)CCC(=O)O,"Pentanoic acid, 4-oxo-",388.15,le15,1
CC(=O)COC(C)=O,2-oxopropyl acetate,325.0499999999999,le15,1
CCOC(=O)C(C)=O,"Pyruvic acid, ethyl ester (8CI)",318.15,le15,1
C=CC(=O)OCCO,"2-Propenoic acid, 2-hydroxyethyl ester",371.45,le15,1
CCCC(=O)C(=O)O,2-oxopentanoic acid,349.75,le15,1
CCC1COC(=O)O1,"1,3-Dioxolan-2-one, 4-ethyl-",401.55,le15,1
CC(C)C(=O)C(=O)O,3-methyl-2-oxobutanoic acid,344.15,le15,1
O=NN1CCOCC1,"Morpholine, N-nitroso-",363.65,le15,1
CC(=O)NNC(C)=O,"Hydrazine, 1,2-diacetyl- (8CI)",456.45,le15,1
CC#Cc1ccccc1,prop-1-ynylbenzene,335.372,le15,1
C#Cc1ccc(C)cc1,1-ethynyl-4-methylbenzene,322.039,le15,1
C1=Cc2ccccc2C1,1H-Indene,331.15,le15,1
CCC(CC)C(=O)O,"Butanoic acid, 2-ethyl-",360.15,le15,1
CCCC(C)C(=O)O,"Pentanoic acid, 2-methyl-",364.15,le15,1
CCOC(=O)C(C)C,"Propanoic acid, 2-methyl-, ethyl ester",286.15,le15,1
OCC1CCCCO1,"2H-Pyran-2-methanol, tetrahydro-",366.45,le15,1
CCC(C)CC(=O)O,"Pentanoic acid, 3-methyl-",361.55,le15,1
CCC(C)OC(C)=O,"Acetic acid, 1-methylpropyl ester",289.25,le15,1
CCCC(=O)OCC,"Butanoic acid, ethyl ester",292.594,le15,1
CCCOC(=O)CC,"Propanoic acid, propyl ester",297.5499999999999,le15,1
CC(=O)OCC(C)C,"Acetic acid, 2-methylpropyl ester",294.85,le15,1
CC(C)CCOC=O,"1-Butanol, 3-methyl-, formate",295.45,le15,1
CC(=O)CC(C)(C)O,"2-Pentanone, 4-hydroxy-4-methyl-",331.15,le15,1
CCC1(C)OCCO1,"1,3-Dioxolane, 2-ethyl-2-methyl-",286.15,le15,1
CC(=O)OC(C)(C)C,"Acetic acid, 1,1-dimethylethyl ester",284.15,le15,1
COC(=O)CC(C)C,methyl 3-methylbutanoate,292.5499999999999,le15,1
CCC(C)(C)C(=O)O,"2,2-dimethylbutanoic acid",352.5499999999999,le15,1
CCCCC(=O)OC,"Pentanoic acid, methyl ester",295.35,le15,1
CCC(=O)OC(C)C,propan-2-yl propanoate,292.5499999999999,le15,1
CC(C)(C)CC(=O)O,"3,3-dimethylbutanoic acid",353.75,le15,1
CC(C)OCC1CO1,"Oxirane, ((1-methylethoxy)methyl)-",306.45,le15,1
CC(C)C(C)C(=O)O,"2,3-dimethylbutanoic acid",356.5499999999999,le15,1
COCC1CCCO1,2-(methoxymethyl)oxolane,306.45,le15,1
CC(=O)CCCCO,6-hydroxyhexan-2-one,365.35,le15,1
COC(=O)C(C)(C)C,"methyl 2,2-dimethylpropanoate",279.85,le15,1
CCC(C)C(=O)OC,"Butanoic acid, 2-methyl-, methyl ester",292.5499999999999,le15,1
CCC(CC)C(=O)O,2ethylbutyricacid,360.0,le15,1
CC(C)OCC1CO1,IsopropylGlycidylEther,306.0,le15,1
CCCCC(=O)OC,Methylvalerate,295.0,le15,1
CCC(C)OC(C)=O,secButylacetate,289.0,le15,1
CC(=O)OC(C)(C)C,tertButylacetate,288.0,le15,1
CCCCNC(N)=O,"Urea, butyl-",335.45,le15,1
CCNC(=O)NCC,"1,3-diethylurea",394.25,le15,1
CN(C)C(=O)N(C)C,"Urea, 1,1,3,3-tetramethyl-",327.0499999999999,le15,1
CN(C)N=NN(C)C,"2-Tetrazene, 1,1,4,4-tetramethyl-",535.55,le15,1
CCCC(O)CCC,4-Heptanol,334.95,le15,1
CCCCC(O)CC,3-Heptanol,327.5499999999999,le15,1
CC(C)(C)C(C)(C)O,"2,3,3-trimethylbutan-2-ol",306.75,le15,1
CCC(C)(O)C(C)C,"2,3-dimethylpentan-3-ol",313.75,le15,1
CCC(O)(CC)CC,3-ethylpentan-3-ol,313.15,le15,1
CCCC(C)(O)CC,3-methylhexan-3-ol,322.5499999999999,le15,1
CCCC(O)C(C)C,2-methylhexan-3-ol,313.706,le15,1
CCOC(C)(C)CC,2-ethoxy-2-methylbutane,278.15,le15,1
CCCCOC(C)C,1-propan-2-yloxybutane,280.45,le15,1
CCCCOCCC,1-propoxybutane,288.75,le15,1
CCC(O)C(C)(C)C,"2,2-dimethylpentan-3-ol",311.45,le15,1
CCCCCCOC,1-methoxyhexane,294.15,le15,1
CCCOCC(C)C,2-methyl-1-propoxypropane,282.15,le15,1
CCCCCOCC,1-ethoxypentane,289.5499999999999,le15,1
CC(C)C(O)C(C)C,"3-Pentanol, 2,4-dimethyl-",310.15,le15,1
CCCCC(C)CO,2-methylhexan-1-ol,334.95,le15,1
CCCCCC(C)O,2heptanol,344.0,le15,1
CCN(CC)CCN,"1,2-Ethanediamine, N,N-diethyl-",303.75,le15,1
CCNCCN(C)C,"N-ethyl-N',N'-dimethylethane-1,2-diamine",297.0499999999999,le15,1
NCCCCCCN,Hexamethylenediamine,367.15,le15,1
CC(C)N(N)C(C)C,"Hydrazine, 1,1-bis(1-methylethyl)- (9CI)",303.45,le15,1
C1CCCSCC1,thiepane,324.85,le15,1
SC1CCCCC1,Cyclohexanethiol,316.0,le15,1
FC(F)=C(F)Cl,"1-chloro-1,2,2-trifluoroethene",245.15,le15,1
Cc1ccc(C#N)cc1,"Benzonitrile, 4-methyl-",358.786,le15,1
N#CCc1ccccc1,"Acetonitrile, phenyl-",374.15,le15,1
c1ccc2[nH]ccc2c1,1H-Indole,380.98900000000003,le15,1
Cc1ccccc1C#N,"Benzonitrile, 2-methyl-",358.15,le15,1
Cc1cccc(C#N)c1,"Benzonitrile, 3-methyl-",359.85,le15,1
N#CCc1ccccc1,Benzylcyanide,374.0,le15,1
CC(C)CCON=O,"Nitrous acid, 3-methylbutyl ester",283.15,le15,1
CCCCCON=O,"Nitrous acid, pentyl ester",282.0499999999999,le15,1
CC(C)[C@H](N)C(=O)O,Valine,356.158,le15,1
CCC(CC)[N+](=O)[O-],"Pentane, 3-nitro-",319.25,le15,1
CCCCOC(N)=O,"Carbamic acid, butyl ester",381.15,le15,1
CCNC(=O)OCC,ethyl N-ethylcarbamate,348.75,le15,1
CNCCCC(=O)O,"Butanoic acid, 4-(methylamino)-",370.45,le15,1
CCN(CC)CCO,"Ethanol, 2-(diethylamino)-",322.0499999999999,le15,1
CCCCNCCO,"Ethanol, 2-(butylamino)-",352.45,le15,1
NCCCCCCO,"1-Hexanol, 6-amino- (8CI)(9CI)",346.65,le15,1
CC(C)(C)NCCO,"Ethanol, 2-((1,1-dimethylethyl)amino)-",342.0499999999999,le15,1
CCCCC(N)CO,"1-Hexanol, 2-amino-",373.15,le15,1
CC(C)C[C@H](N)CO,"1-Pentanol, 2-amino-4-methyl-, (S)-",363.75,le15,1
CC(C)CNCCO,2-(2-methylpropylamino)ethanol,345.25,le15,1
CN(C)[Si](C)(C)C,N-methyl-N-trimethylsilylmethanamine,254.15,le15,1
N#CCCCCCl,"Pentanenitrile, 5-chloro-",371.45,le15,1
O=C(O)C(=O)C(=O)O,"Propanedioic acid, oxo- (9CI)",486.15,le15,1
O=C(O)CCC(=O)O,Butanedioic acid,384.05,le15,1
COC(=O)C(=O)OC,dimethyl oxalate,348.15,le15,1
O=COCCOC=O,"Ethylene glycol, diformate",359.35,le15,1
NC(=O)NCC(=O)O,"Glycine, N-carbamoyl- (7CI,8CI)",424.65,le15,1
CC(C)(N=O)[N+](=O)[O-],"Propane, 2-nitro-2-nitroso-",309.25,le15,1
CNC(=N)N[N+](=O)[O-],"Guanidine, N-methyl-N'-nitro- (9CI)",378.55,le15,1
c1ccc2occc2c1,Benzofuran,329.0,le15,1
c1ccc2[nH]cnc2c1,1H-Benzimidazole,481.589,le15,1
CCOC(=O)C(C)O,"Propanoic acid, 2-hydroxy-, ethyl ester",327.75,le15,1
CCOC(=O)OCC,"Carbonic acid, diethyl ester",304.25,le15,1
CCOC(=O)[C@H](C)O,"Propanoic acid, 2-hydroxy-, ethyl ester, (2S)-",319.15,le15,1
N#Cc1ccccc1N,2-aminobenzonitrile,395.35,le15,1
COC(=O)C(C)(C)O,methyl 2-hydroxy-2-methylpropanoate,309.95,le15,1
N#Cc1cccc(N)c1,"Benzonitrile, 3-amino- (9CI)",385.15,le15,1
COCCC(=O)OC,methyl 3-methoxypropanoate,320.15,le15,1
CCOC(=O)COC,ethyl 2-methoxyacetate,319.25,le15,1
COCCOC(C)=O,"Ethanol, 2-methoxy-, acetate",317.0499999999999,le15,1
c1ccc2[nH]ncc2c1,1H-indazole,401.65,le15,1
N#Cc1ccc(N)cc1,"Benzonitrile, p-amino- (8CI)",400.25,le15,1
CCOC(=O)OCC,DiethylCarbonate,298.0,le15,1
C=CS(=O)(=O)C=C,"Ethene, 1,1'-sulfonylbis-",375.15,le15,1
O=S1(=O)CC=CC1,"Thiophene, 2,5-dihydro-, 1,1-dioxide",385.15,le15,1
CCP(CC)CC,triethylphosphane,255.95,le15,1
CC(=O)NC(N)=S,"Acetamide, N-(aminothioxomethyl)-",353.15,le15,1
C=C(C)c1ccccc1,"Benzene, (1-methylethenyl)-",318.706,le15,1
C=Cc1cccc(C)c1,1-ethenyl-3-methylbenzene,320.5499999999999,le15,1
CC=Cc1ccccc1,"Benzene, 2-propenyl-",306.45,le15,1
c1ccc2c(c1)CCC2,"1H-Indene, 2,3-dihydro-",323.15,le15,1
C=Cc1ccc(C)cc1,"Benzene, 1-ethenyl-4-methyl-",321.85,le15,1
c1ccc(C2CC2)cc1,cyclopropylbenzene,317.0499999999999,le15,1
C/C=C\c1ccccc1,"Benzene, 1-propenyl-, (Z)-",322.5499999999999,le15,1
C=Cc1cccc(C)c1,3methylstyrene,324.0,le15,1
C=Cc1ccc(C)cc1,4methylstyrene,318.0,le15,1
CC(C)(O)C(C)(C)O,"2,3-dimethylbutane-2,3-diol",350.35,le15,1
CCC(C)(CO)CO,"2-ethyl-2-methylpropane-1,3-diol",369.25,le15,1
CC(O)CC(C)(C)O,"2,4-Pentanediol, 2-methyl-",367.05,le15,1
CC(C)OCCCO,"1-Propanol, 3-(1-methylethoxy)- (9CI)",328.35,le15,1
CCOCCCCO,"1-Butanol, 4-ethoxy-",330.0499999999999,le15,1
CCCCOCCO,"Ethanol, 2-butoxy-",333.15,le15,1
CCC(O)C(C)CO,"1,3-Pentanediol, 2-methyl-",381.65,le15,1
CCOCCOCC,"Ethane, 1,2-diethoxy-",293.75,le15,1
CCCOCC(C)O,"2-Propanol, 1-propoxy-",321.15,le15,1
CC(C)COCCO,"Ethanol, 2-(2-methylpropoxy)-",323.5499999999999,le15,1
CC(O)C(C)C(C)O,"3-methylpentane-2,4-diol",364.45,le15,1
CCCCC(O)CO,"1,2-Hexanediol",395.15,le15,1
CC(O)C(C)(C)CO,"1,3-Butanediol, 2,2-dimethyl-",360.75,le15,1
CCC(O)CC(C)O,"2,4-Hexanediol",374.15,le15,1
CC(O)COC(C)C,1-propan-2-yloxypropan-2-ol,321.35,le15,1
CCC(C)OCCO,"Ethanol, 2-sec-butoxy-",323.35,le15,1
CC=COCCSCCOC=CC,"Sulfide, methylvinyloxyethyl-",319.0499999999999,le15,1
CCCCCCCF,1fluoroheptane,286.0,le15,1
CCCCCCS,1-Hexanethiol,303.15,le15,1
CCCSCCC,Propyl sulfide (8CI),301.45,le15,1
CC(C)SC(C)C,2-propan-2-ylsulfanylpropane,280.15,le15,1
CCCSC(C)C,1-propan-2-ylsulfanylpropane,296.15,le15,1
CCCCCSC,1-methylsulfanylpentane,312.85,le15,1
CCO[Si](C)(C)C,ethoxy(trimethyl)silane,255.15,le15,1
CC(C)=CC(=O)Cl,3-methylbut-2-enoyl chloride,324.15,le15,1
Clc1cccs1,2-chlorothiophene,295.15,le15,1
ClC1CCCCC1,"Cyclohexane, chloro-",301.15,le15,1
C#CCBr,"1-Propyne, 3-bromo-",290.25,le15,1
O=C(O)CC[N+](=O)[O-],"Propanoic acid, 3-nitro- (9CI)",421.55,le15,1
COC(=O)C[N+](=O)[O-],"Acetic acid, nitro-, methyl ester",378.15,le15,1
c1ccc2nocc2c1,"2,1-benzoxazole",367.05,le15,1
c1ccc2ocnc2c1,"1,3-benzoxazole",338.45,le15,1
N#Cc1ccc(O)cc1,"Benzonitrile, 4-hydroxy-",397.05,le15,1
N#Cc1cccc(O)c1,"Benzonitrile, 3-hydroxy-",380.75,le15,1
N#C/C=C/c1ccco1,(E)-3-(furan-2-yl)prop-2-enenitrile,360.35,le15,1
c1ccc2[nH]nnc2c1,1H-Benzotriazole,407.05,le15,1
CC(C)CO[N+](=O)[O-],2-methylpropyl nitrate,314.0499999999999,le15,1
CCC(C)O[N+](=O)[O-],butan-2-yl nitrate,314.0499999999999,le15,1
COCCOC(N)=O,"Ethanol, 2-methoxy-, carbamate",404.15,le15,1
NC(=S)N(N)C=O,"Hydrazinecarbothioamide, 1-formyl- (9CI)",364.65,le15,1
C=Cc1ccc(C)nc1,"Pyridine, 5-ethenyl-2-methyl-",329.75,le15,1
c1ccc2c(c1)CCN2,"2,3-dihydro-1H-indole",365.95,le15,1
CN=Cc1ccccc1,N-methyl-1-phenylmethanimine,386.15,le15,1
C=Cc1ccc(N)cc1,"Benzenamine, 4-ethenyl-",381.75,le15,1
CN(CCO)CCO,"Ethanol, 2,2'-(methylimino)bis-",399.85,le15,1
CNCC(OC)OC,"2,2-dimethoxy-N-methylethanamine",302.5499999999999,le15,1
CN(CCO)CCO,MethylDiethanolAmine,411.0,le15,1
S=C1NCCS1,2-Thiazolidinethione,341.25,le15,1
N#CCBr,"Acetonitrile, bromo-",297.45,le15,1
C[As](C)C,trimethylarsane,373.15,le15,1
CC([N+](=O)[O-])[N+](=O)[O-],"1,1-dinitroethane",352.15,le15,1
O=C(NCO)NCO,"Urea, 1,3-bis(hydroxymethyl)- (8CI)",505.45,le15,1
c1ccc(C2CO2)cc1,"Benzene, (epoxyethyl)-",352.5499999999999,le15,1
O=CCc1ccccc1,"Acetaldehyde, phenyl- (8CI)",362.35,le15,1
c1ccc2c(c1)COC2,"Isobenzofuran, 1,3-dihydro-",336.15,le15,1
c1ccc2c(c1)CCO2,"Benzofuran, 2,3-dihydro-",339.15,le15,1
Cc1ccccc1C=O,o-Tolualdehyde (8CI),352.65,le15,1
Cc1cccc(C=O)c1,"Benzaldehyde, 3-methyl-",351.15,le15,1
C=Cc1ccc(O)cc1,4-ethenylphenol,365.45,le15,1
CC(=O)c1ccccc1,"Ethanone, 1-phenyl-",354.0499999999999,le15,1
CC(CO)(CO)CO,"2-(hydroxymethyl)-2-methylpropane-1,3-diol",418.65,le15,1
COCCOCCO,"Ethanol, 2-(2-methoxyethoxy)-",357.0499999999999,le15,1
COCC(O)COC,"1,3-dimethoxypropan-2-ol",331.35,le15,1
COC(C)(OC)OC,"1,1,1-trimethoxyethane",289.15,le15,1
CCOCC(O)CO,"3-ethoxypropane-1,2-diol",372.65,le15,1
O=S1(=O)CCCC1,"Thiophene, tetrahydro-, 1,1-dioxide",443.82800000000003,le15,1
CCOC(=O)CS,"Acetic acid, mercapto-, ethyl ester",320.95,le15,1
C=CS(=O)(=O)CC,(Ethylsulphonyl)ethylene,382.15,le15,1
COC(=O)CCS,methyl 3-sulfanylpropanoate,333.15,le15,1
CC(C)c1ccccc1,"Benzene, (1-methylethyl)-",304.15,le15,1
CCc1ccccc1C,1-ethyl-2-methylbenzene,312.5499999999999,le15,1
C=CC1CC2C=CC1C2,"Bicyclo(2.2.1)hept-2-ene, 5-ethenyl-",299.35,le15,1
CC=C1CC2C=CC1C2,"Bicyclo(2.2.1)hept-2-ene, 5-ethylidene-",311.45,le15,1
C1=CCC2CC=CC2C1,"1H-Indene, 3a,4,7,7a-tetrahydro-",306.95,le15,1
CC=C1CC2C=CC1C2,5ethylidene2norbornene,311.0,le15,1
CCc1ccccc1,mEthyltoluene,311.0,le15,1
NC(=S)C(N)=S,Ethanedithioamide,379.35,le15,1
C1CSCSC1,"1,3-Dithiane",363.15,le15,1
C1CSCCS1,"1,4-Dithiane",355.25,le15,1
C=CCOC(=O)Cl,"Carbonochloridic acid, 2-propenyl ester",361.15,le15,1
C=C(C)OC(=O)Cl,prop-1-en-2-yl carbonochloridate,289.25,le15,1
CCCCC(=O)Cl,Pentanoyl chloride,305.95,le15,1
CC1(CCl)COC1,"Oxetane, 3-(chloromethyl)-3-methyl-",316.0499999999999,le15,1
CCC(C)C(=O)Cl,2-methylbutanoyl chloride,298.65,le15,1
CC(C)CC(=O)Cl,3-methylbutanoyl chloride,298.65,le15,1
CC(C)(C)C(=O)Cl,"2,2-dimethylpropanoyl chloride",282.0499999999999,le15,1
CCCCCCCl,1-chlorohexane,299.15,le15,1
CCC(C)(Cl)CC,3-chloro-3-methylpentane,282.5499999999999,le15,1
CCCC(Cl)CC,3-chlorohexane,298.15,le15,1
CC(C)(C)CCCl,"1-chloro-3,3-dimethylbutane",292.15,le15,1
CCC(CC)CCl,3-(chloromethyl)pentane,298.15,le15,1
C[Si](C)/C=C/Cl,[(E)-2-chloroethenyl]-dimethylsilicon,269.15,le15,1
FC(F)(Cl)Cl,"Methane, dichlorodifluoro-",284.15,le15,1
C=C(C)Br,2-bromoprop-1-ene,327.15,le15,1
C=CCBr,"1-Propene, 3-bromo-",272.15,le15,1
CC(=O)OO[N+](=O)[O-],"Peroxide, acetyl nitro",357.85,le15,1
N#Cc1ccc(F)cc1,4-fluorobenzonitrile,338.75,le15,1
N#Cc1cccc(F)c1,3-fluorobenzonitrile,340.15,le15,1
CC(=O)c1cccnc1,"Ethanone, 1-(3-pyridinyl)-",377.15,le15,1
Nc1ccc(C=O)cc1,"Benzaldehyde, p-amino- (8CI)",395.141,le15,1
Cc1ccccc1N=O,"Benzene, 1-methyl-2-nitroso- (9CI)",347.85,le15,1
O/N=C\c1ccccc1,"Benzaldehyde, oxime, (Z)-",382.05,le15,1
CC(=O)c1ccncc1,"Ethanone, 1-(4-pyridinyl)-",360.15,le15,1
CC(=O)c1ccccn1,"Ethanone, 1-(2-pyridinyl)-",346.45,le15,1
O=CNc1ccccc1,"Formamide, N-phenyl-",423.35,le15,1
N[C@@H](CS)C(=O)O,L-Cysteine,404.65,le15,1
NCCc1ccccc1,2-phenylethanamine,363.75,le15,1
Cc1cccc(N)c1C,"Benzenamine, 2,3-dimethyl-",369.15,le15,1
Cc1cccc(C)c1N,"Benzenamine, 2,6-dimethyl-",364.15,le15,1
Cc1ccccc1CN,"Benzenemethanamine, 2-methyl-",357.0499999999999,le15,1
Cc1ccc(N)c(C)c1,"Benzenamine, 2,4-dimethyl-",363.75,le15,1
Cc1ccc(C)c(N)c1,"Benzenamine, 2,5-dimethyl-",367.05,le15,1
Cc1cccc(CN)c1,(3-methylphenyl)methanamine,353.75,le15,1
CCNc1ccccc1,"Benzenamine, N-ethyl-",358.15,le15,1
Cc1ccc(CN)cc1,"Benzylamine, p-methyl- (8CI)",348.15,le15,1
Cc1cc(C)cc(N)c1,"Benzenamine, 3,5-dimethyl-",366.45,le15,1
CCc1cnccc1C,3-ethyl-4-methylpyridine,343.251,le15,1
CCc1ccnc(C)c1,4-ethyl-2-methylpyridine,330.15,le15,1
CCc1ccccc1N,"Aniline, o-ethyl- (8CI)",358.15,le15,1
CNc1ccccc1C,"o-Toluidine, N-methyl- (8CI)",349.5499999999999,le15,1
CC(N)c1ccccc1,"Benzenemethanamine, alpha-methyl-",348.95300000000003,le15,1
CNc1cccc(C)c1,"m-Toluidine, N-methyl- (8CI)",350.45,le15,1
Cc1cc(C)c(C)cn1,"2,4,5-trimethylpyridine",331.0499999999999,le15,1
CCc1cccc(C)n1,2-ethyl-6-methylpyridine,316.5499999999999,le15,1
CCCc1ccncc1,4-propylpyridine,337.66,le15,1
Cc1ccc(C)c(C)n1,"2,3,6-trimethylpyridine",320.75,le15,1