compound,flashpoint,pure substance,smiles,source
3-methylphenol,368.0,1.0,Cc1cccc(O)c1,Saldana11
3-phenylpropan-1-ol,373.0,1.0,OCCCc1ccccc1,Saldana11
4-(2-methylbutan-2-yl)phenol,384.0,1.0,CCC(C)(C)c1ccc(O)cc1,Saldana11
4-[2-(4-hydroxyphenyl)propan-2-yl]phenol,480.0,1.0,Oc1ccc(cc1)C(C)(C)c1ccc(O)cc1,Saldana11
4-ethylphenol,373.0,1.0,CCc1ccc(O)cc1,Saldana11
4-methylphenol,368.0,1.0,Cc1ccc(O)cc1,Saldana11
"4-tert-butylbenzene-1,2-diol",403.0,1.0,Oc1ccc(cc1O)C(C)(C)C,Saldana11
4-tert-butylphenol,386.0,1.0,Oc1ccc(cc1)C(C)(C)C,Saldana11
"benzene-1,2-diol",400.0,1.0,Oc1ccccc1O,Saldana11
"benzene-1,3-diol",400.0,1.0,Oc1cccc(O)c1,Saldana11
"benzene-1,4-diol",438.0,1.0,Oc1ccc(O)cc1,Saldana11
benzyl benzoate,418.0,1.0,O=C(OCc1ccccc1)c1ccccc1,Saldana11
benzyl ethanoate,363.0,1.0,CC(=O)OCc1ccccc1,Saldana11
benzyl methanoate,355.0,1.0,O=COCc1ccccc1,Saldana11
butyl benzoate,379.0,1.0,CCCCOC(=O)c1ccccc1,Saldana11
di-n-butyl phthalate,430.0,1.0,CCCCOC(=O)c1ccccc1C(=O)OCCCC,Saldana11
di-n-decyl phthalate,505.0,1.0,CCCCCCCCCCOC(=O)c1ccccc1C(=O)OCCCCCCCCCC,Saldana11
di-n-hexyl phthalate,466.0,1.0,CCCCCCOC(=O)c1ccccc1C(=O)OCCCCCC,Saldana11
di-n-nonyl phthalate,489.0,1.0,CCCCCCCCCOC(=O)c1ccccc1C(=O)OCCCCCCCCC,Saldana11
diethyl phthalate,390.0,1.0,CCOC(=O)c1ccccc1C(=O)OCC,Saldana11
diisobutyl phthalate,434.0,1.0,CC(C)COC(=O)c1ccccc1C(=O)OCC(C)C,Saldana11
diisodecyl phthalate,505.0,1.0,CC(C)CCCCCCCOC(=O)c1ccccc1C(=O)OCCCCCCCC(C)C,Saldana11
dimethyl isophthalate,411.0,1.0,COC(=O)c1cccc(c1)C(=O)OC,Saldana11
dimethyl phthalate,419.0,1.0,COC(=O)c1ccccc1C(=O)OC,Saldana11
dioctyl phthalate,489.0,1.0,CCCCC(CC)COC(=O)c1ccccc1C(=O)OCC(CC)CCCC,Saldana11
ethyl benzoate,357.0,1.0,CCOC(=O)c1ccccc1,Saldana11
methyl benzoate,355.0,1.0,COC(=O)c1ccccc1,Saldana11
n-propyl benzoate,371.0,1.0,CCCOC(=O)c1ccccc1,Saldana11
nonylphenol,411.0,1.0,CCCCCCCCCc1ccccc1O,Saldana11
phenol,353.0,1.0,Oc1ccccc1,Saldana11
phenylmethanol,374.0,1.0,OCc1ccccc1,Saldana11
"xylen-2,4-ol",368.0,1.0,Cc1ccc(O)c(C)c1,Saldana11
"xylen-2,6-ol",346.0,1.0,Oc1c(C)cccc1C,Saldana11
"(1R,2S,5R)-5-methyl-2-propan-2-ylcyclohexan-1-ol",366.0,1.0,C[C@H]1CC[C@H](C(C)C)[C@@H](O)C1,Saldana11
1-methylcyclohexan-1-ol,338.0,1.0,CC1(O)CCCCC1,Saldana11
"1,2,3,6-tetrahydrobenzyl alcohol",346.0,1.0,OCC1CCC=CC1,Saldana11
"1,4-cyclohexanedimethanol",434.0,1.0,OCC1CCC(CO)CC1,Saldana11
2-(4-methylcyclohex-3-en-1-yl)propan-2-ol,367.0,1.0,CC1=CCC(CC1)C(C)(C)O,Saldana11
4-methyl-cyclohexane-methanol,354.0,1.0,OCC1CCC(C)CC1,Saldana11
5-methyloxolan-2-one,354.0,1.0,CC1CCC(=O)O1,Saldana11
cis-2-methylcyclohexanol,331.0,1.0,C[C@H]1CCCC[C@H]1O,Saldana11
cis-3-methylcyclohexanol,335.0,1.0,C[C@H]1CCC[C@@H](O)C1,Saldana11
cis-4-methylcyclohexanol,343.0,1.0,C[C@@H]1CC[C@H](O)CC1,Saldana11
cyclohexanol,341.0,1.0,OC1CCCCC1,Saldana11
cyclohexyl ethanoate,330.0,1.0,CC(=O)OC1CCCCC1,Saldana11
cyclohexyl methanoate,324.0,1.0,O=COC1CCCCC1,Saldana11
"dimethyl-1,4-cyclohexanedicarboxylate",383.0,1.0,COC(=O)C1CCC(CC1)C(=O)OC,Saldana11
oxepan-2-one,382.0,1.0,O=C1CCCCCO1,Saldana11
oxetan-2-one,343.0,1.0,C1COC1=O,Saldana11
oxolan-2-one,371.0,1.0,O=C1CCCO1,Saldana11
trans-2-methylcyclohexanol,331.0,1.0,C[C@@H]1CCCC[C@H]1O,Saldana11
trans-3-methylcyclohexanol,335.0,1.0,C[C@@H]1CCC[C@@H](O)C1,Saldana11
1-ethylpropyl ethanoate,318.0,1.0,CCC(CC)OC(=O)C,Saldana11
1-methylethenyl ethanoate,283.0,1.0,CC(=C)OC(=O)C,Saldana11
"1,2-dimethylpropyl ethanoate",316.0,1.0,CC(=O)OC(C)C(C)C,Saldana11
2-ethylhexyl ethanoate,344.0,1.0,CCCCC(CC)COC(=O)C,Saldana11
2-ethylhexyl prop-2-enoate,355.0,1.0,CCCCC(CC)COC(=O)C=C,Saldana11
"2,2-dimethylpropyl methanoate",311.0,1.0,O=COCC(C)(C)C,Saldana11
"2,2-dimethylpropyl propanoate",334.0,1.0,CCC(=O)OCC(C)(C)C,Saldana11
allyl 2-methylpropenoate,306.0,1.0,C=CCOC(=O)C(=C)C,Saldana11
allyl ethanoate,295.0,1.0,CC(=O)OCC=C,Saldana11
allylidene diethanoate,355.0,1.0,C=CC(OC(=O)C)OC(=O)C,Saldana11
butyl 2-methylprop-2-enoate,322.0,1.0,CCCCOC(=O)C(=C)C,Saldana11
butyl butanoate,326.0,1.0,CCCCOC(=O)CCC,Saldana11
butyl ethanoate,295.0,1.0,CCCCOC(=O)C,Saldana11
butyl methanoate,291.0,1.0,CCCCOC=O,Saldana11
butyl prop-2-enoate,312.0,1.0,CCCCOC(=O)C=C,Saldana11
butyl propanoate,305.0,1.0,CCCCOC(=O)CC,Saldana11
decyl ethanoate,378.0,1.0,CCCCCCCCCCOC(=O)C,Saldana11
decyl methanoate,373.0,1.0,CCCCCCCCCCOC=O,Saldana11
di(2-ethylhexyl)hexanedioate,466.0,1.0,CCCCC(CC)COC(=O)CCCCC(=O)OCC(CC)CCCC,Saldana11
diallyl (2Z)-but-2-enedioate,393.0,1.0,C=CCOC(=O)/C=C\C(=O)OCC=C,Saldana11
dibutyl (2Z)-but-2-enedioate,413.0,1.0,CCCCOC(=O)/C=C\C(=O)OCCCC,Saldana11
dibutyl decanedioate,451.0,1.0,CCCCOC(=O)CCCCCCCCC(=O)OCCCC,Saldana11
diethyl (2Z)-but-2-enedioate,366.0,1.0,CCOC(=O)/C=C\C(=O)OCC,Saldana11
diethyl butanedioate,363.0,1.0,CCOC(=O)CCC(=O)OCC,Saldana11
diethyl carbonate,298.0,1.0,CCOC(=O)OCC,Saldana11
diethyl oxalate,395.0,1.0,CCOC(=O)C(=O)OCC,Saldana11
diethyl propanedioate,366.0,1.0,CCOC(=O)CC(=O)OCC,Saldana11
dihexyl hexanedioate,464.0,1.0,CCCCCCOC(=O)CCCCC(=O)OCCCCCC,Saldana11
dimethyl (2Z)-but-2-enedioate,368.0,1.0,COC(=O)/C=C\C(=O)OC,Saldana11
dimethyl propanedioate,363.0,1.0,COC(=O)CC(=O)OC,Saldana11
dioctyl hexanedioate,452.0,1.0,CCCCCCCCOC(=O)CCCCC(=O)OCCCCCCCC,Saldana11
dodecyl butanoate,433.0,1.0,CCCCCCCCCCCCOC(=O)CCC,Saldana11
dodecyl ethanoate,389.0,1.0,CCCCCCCCCCCCOC(=O)C,Saldana11
dodecyl propanoate,421.0,1.0,CCCCCCCCCCCCOC(=O)CC,Saldana11
"ethenyl 2,2-dimethylpropanoate",282.0,1.0,C=COC(=O)C(C)(C)C,Saldana11
ethenyl ethanoate,265.0,1.0,CC(=O)OC=C,Saldana11
ethenyl methanoate,256.0,1.0,C=COC=O,Saldana11
ethenyl propanoate,274.0,1.0,CCC(=O)OC=C,Saldana11
"ethyl (2E,4E)-hexa-2,4-dienoate",342.0,1.0,CCOC(=O)/C=C/C=C/C,Saldana11
"ethyl (2E,4Z)-deca-2,4-dienoate",386.0,1.0,CCCCC/C=C\C=C\C(=O)OCC,Saldana11
ethyl (2E)-but-2-enoate,275.0,1.0,CCOC(=O)/C=C/C,Saldana11
ethyl (2E)-dec-2-enoate,364.0,1.0,CCCCCCC/C=C/C(=O)OCC,Saldana11
ethyl (2E)-hex-3-enoate,332.0,1.0,CC/C=C/CC(=O)OCC,Saldana11
ethyl (2E)-oct-2-enoate,371.0,1.0,CCCCC/C=C/C(=O)OCC,Saldana11
ethyl (2E)-oct-4-enoate,352.0,1.0,CCC/C=C/CCC(=O)OCC,Saldana11
ethyl (9Z)-octadec-9-enoate,365.0,1.0,CCCCCCCC/C=C\CCCCCCCC(=O)OCC,Saldana11
ethyl 2-hydroxypropanoate,319.0,1.0,CCOC(=O)C(C)O,Saldana11
ethyl 2-methylprop-2-enoate,293.0,1.0,CCOC(=O)C(=C)C,Saldana11
"ethyl buta-2,3-dienoate",320.0,1.0,CCOC(=O)C=C=C,Saldana11
ethyl butanoate,297.0,1.0,CCCC(=O)OCC,Saldana11
ethyl decanoate,375.0,1.0,CCCCCCCCCC(=O)OCC,Saldana11
ethyl dodecanoate,386.0,1.0,CCCCCCCCCCCC(=O)OCC,Saldana11
ethyl eicosanoate,444.0,1.0,CCCCCCCCCCCCCCCCCCCC(=O)OCC,Saldana11
ethyl ethanoate,269.0,1.0,CCOC(=O)C,Saldana11
ethyl hept-6-enoate,352.0,1.0,C=CCCCCC(=O)OCC,Saldana11
ethyl heptadecanoate,428.0,1.0,CCCCCCCCCCCCCCCCC(=O)OCC,Saldana11
ethyl heptanoate,347.0,1.0,CCCCCCC(=O)OCC,Saldana11
ethyl hexadecanoate,386.0,1.0,CCCCCCCCCCCCCCCC(=O)OCC,Saldana11
ethyl hexanoate,326.0,1.0,CCCCCC(=O)OCC,Saldana11
ethyl isobutanoate,287.0,1.0,CCOC(=O)C(C)C,Saldana11
ethyl isopentanoate,298.0,1.0,CCOC(=O)CC(C)C,Saldana11
ethyl methanoate,253.0,1.0,CCOC=O,Saldana11
ethyl nonanoate,367.0,1.0,CCCCCCCCC(=O)OCC,Saldana11
ethyl octadecanoate,441.0,1.0,CCCCCCCCCCCCCCCCCC(=O)OCC,Saldana11
ethyl octanoate,354.0,1.0,CCCCCCCC(=O)OCC,Saldana11
ethyl pentanoate,307.0,1.0,CCCCC(=O)OCC,Saldana11
ethyl prop-2-enoate,282.0,1.0,CCOC(=O)C=C,Saldana11
ethyl propanoate,285.0,1.0,CCOC(=O)CC,Saldana11
ethyl tetradecanoate,386.0,1.0,CCCCCCCCCCCCCC(=O)OCC,Saldana11
ethyl undec-10-enoate,386.0,1.0,C=CCCCCCCCCC(=O)OCC,Saldana11
ethyl undecanoate,386.0,1.0,CCCCCCCCCCC(=O)OCC,Saldana11
ethylene glycol diethanoate,361.0,1.0,CC(=O)OCCOC(=O)C,Saldana11
ethylene glycol diprop-2-enoate,373.0,1.0,C=CC(=O)OCCOC(=O)C=C,Saldana11
heptyl ethanoate,349.0,1.0,CCCCCCCOC(=O)C,Saldana11
hexyl ethanoate,310.0,1.0,CCCCCCOC(=O)C,Saldana11
hexyl methanoate,330.0,1.0,CCCCCCOC=O,Saldana11
isobutyl 2-methylpropanoate,311.0,1.0,CC(C)COC(=O)C(C)C,Saldana11
isobutyl 2-methylpropenoate,314.0,1.0,CC(C)COC(=O)C(=C)C,Saldana11
isobutyl butanoate,330.0,1.0,CCCC(=O)OCC(C)C,Saldana11
isobutyl ethanoate,291.0,1.0,CC(C)COC(=O)C,Saldana11
isobutyl methanoate,302.0,1.0,O=COCC(C)C,Saldana11
isobutyl prop-2-enoate,304.0,1.0,C=CC(=O)OCC(C)C,Saldana11
isobutyl propanoate,320.0,1.0,CCC(=O)OCC(C)C,Saldana11
isopentyl butanoate,331.0,1.0,CCCC(=O)OCCC(C)C,Saldana11
isopentyl dodecanoate,386.0,1.0,CCCCCCCCCCCC(=O)OCCC(C)C,Saldana11
isopentyl ethanoate,298.0,1.0,CC(C)CCOC(=O)C,Saldana11
isopentyl hexanoate,358.0,1.0,CCCCCC(=O)OCCC(C)C,Saldana11
isopentyl isopentanoate,345.0,1.0,CC(C)CCOC(=O)CC(C)C,Saldana11
isopentyl methanoate,314.0,1.0,O=COCCC(C)C,Saldana11
isopentyl propanoate,321.0,1.0,CCC(=O)OCCC(C)C,Saldana11
isopropyl ethanoate,275.0,1.0,CC(C)OC(=O)C,Saldana11
methyl (11E)-octadec-11-enoate,335.0,1.0,CCCCCC/C=C/CCCCCCCCCC(=O)OC,Saldana11
methyl (11Z)-eicos-11-enoate,386.0,1.0,CCCCCCCC/C=C\CCCCCCCCCC(=O)OC,Saldana11
methyl (11Z)-octadec-11-enoate,335.0,1.0,CCCCCC/C=C\CCCCCCCCCC(=O)OC,Saldana11
methyl (13Z)-docos-13-enoate,306.0,1.0,CCCCCCCC/C=C\CCCCCCCCCCCC(=O)OC,Saldana11
methyl (2E)-non-2-enoate,364.0,1.0,CCCCCC/C=C/C(=O)OC,Saldana11
methyl (2E)-oct-2-enoate,356.0,1.0,CCCCC/C=C/C(=O)OC,Saldana11
"methyl (2E)-penta-2,4-dienoate",310.0,1.0,COC(=O)/C=C/C=C,Saldana11
"methyl (2Z)-penta-2,4-dienoate",310.0,1.0,COC(=O)/C=C\C=C,Saldana11
methyl (3E)-hex-3-enoate,319.0,1.0,CC/C=C/CC(=O)OC,Saldana11
methyl (3E)-non-3-enoate,361.0,1.0,CCCCC/C=C/CC(=O)OC,Saldana11
methyl (3E)-pent-3-enoate,297.0,1.0,C/C=C/CC(=O)OC,Saldana11
methyl (3Z)-non-3-enoate,361.0,1.0,CCCCC/C=C\CC(=O)OC,Saldana11
"methyl (4Z,7Z,10Z,13Z,16Z,19Z)-docosa-4,7,10,13,16,19-hexaenoate",366.0,1.0,C/C=C\C/C=C\C/C=C\C/C=C\C/C=C\C/C=C\CCCC(=O)OC,Saldana11
"methyl (5Z,8Z,11Z,14Z,17Z)-eicosa-5,8,11,14,17-pentaenoate",377.0,1.0,CC/C=C\C/C=C\C/C=C\C/C=C\C/C=C\CCCC(=O)OC,Saldana11
"methyl (6E,9E,12E)-octadeca-6,9,12-trienoate",335.0,1.0,CCCCC/C=C/C/C=C/C/C=C/CCCCC(=O)OC,Saldana11
"methyl (6E,9E,12Z)-octadeca-6,9,12-trienoate",335.0,1.0,CCCCC/C=C\C/C=C/C/C=C/CCCCC(=O)OC,Saldana11
"methyl (6E,9Z,12E)-octadeca-6,9,12-trienoate",335.0,1.0,CCCCC/C=C/C/C=C\C/C=C/CCCCC(=O)OC,Saldana11
"methyl (6E,9Z,12Z)-octadeca-6,9,12-trienoate",335.0,1.0,CCCCC/C=C\C/C=C\C/C=C/CCCCC(=O)OC,Saldana11
"methyl (6Z,9E,12E)-octadeca-6,9,12-trienoate",335.0,1.0,CCCCC/C=C/C/C=C/C/C=C\CCCCC(=O)OC,Saldana11
"methyl (6Z,9E,12Z)-octadeca-6,9,12-trienoate",335.0,1.0,CCCCC/C=C\C/C=C/C/C=C\CCCCC(=O)OC,Saldana11
"methyl (6Z,9Z,12E)-octadeca-6,9,12-trienoate",335.0,1.0,CCCCC/C=C/C/C=C\C/C=C\CCCCC(=O)OC,Saldana11
"methyl (6Z,9Z,12Z)-octadeca-6,9,12-trienoate",335.0,1.0,CCCCC/C=C\C/C=C\C/C=C\CCCCC(=O)OC,Saldana11
"methyl (9Z,12Z,15Z)-octadeca-9,12,15-trienoate",386.0,1.0,CC/C=C\C/C=C\C/C=C\CCCCCCCC(=O)OC,Saldana11
"methyl (9Z,12Z)-octadeca-9,12-dienoate",386.0,1.0,CCCCC/C=C\C/C=C\CCCCCCCC(=O)OC,Saldana11
methyl (9Z)-hexadec-9-enoate,386.0,1.0,CCCCCC/C=C\CCCCCCCC(=O)OC,Saldana11
methyl (9Z)-octadec-9-enoate,386.0,1.0,CCCCCCCC/C=C\CCCCCCCC(=O)OC,Saldana11
methyl 10-undecenoate,373.0,1.0,C=CCCCCCCCCC(=O)OC,Saldana11
methyl 2-methylprop-2-enoate,284.0,1.0,COC(=O)C(=C)C,Saldana11
methyl 2-methylpropanoate,276.0,1.0,COC(=O)C(C)C,Saldana11
methyl but-3-enoate,293.0,1.0,COC(=O)CC=C,Saldana11
methyl butanoate,287.0,1.0,CCCC(=O)OC,Saldana11
methyl decanoate,367.0,1.0,CCCCCCCCCC(=O)OC,Saldana11
methyl dodecanoate,386.0,1.0,CCCCCCCCCCCC(=O)OC,Saldana11
methyl eicosanoate,386.0,1.0,CCCCCCCCCCCCCCCCCCCC(=O)OC,Saldana11
methyl ethanoate,263.0,1.0,COC(=O)C,Saldana11
methyl heneicosanoate,386.0,1.0,CCCCCCCCCCCCCCCCCCCCC(=O)OC,Saldana11
methyl heptadecanoate,383.0,1.0,CCCCCCCCCCCCCCCCC(=O)OC,Saldana11
methyl heptanoate,325.0,1.0,CCCCCCC(=O)OC,Saldana11
methyl hex-5-enoate,319.0,1.0,C=CCCCC(=O)OC,Saldana11
methyl hexadecanoate,425.0,1.0,CCCCCCCCCCCCCCCC(=O)OC,Saldana11
methyl hexanoate,316.0,1.0,CCCCCC(=O)OC,Saldana11
methyl methanoate,254.0,1.0,COC=O,Saldana11
methyl nonadecanoate,386.0,1.0,CCCCCCCCCCCCCCCCCCC(=O)OC,Saldana11
methyl nonanoate,360.0,1.0,CCCCCCCCC(=O)OC,Saldana11
methyl octadecanoate,388.0,1.0,CCCCCCCCCCCCCCCCCC(=O)OC,Saldana11
methyl octanoate,342.0,1.0,CCCCCCCC(=O)OC,Saldana11
methyl pent-4-enoate,302.0,1.0,COC(=O)CCC=C,Saldana11
methyl pentadecanoate,386.0,1.0,CCCCCCCCCCCCCCC(=O)OC,Saldana11
methyl prop-2-enoate,270.0,1.0,COC(=O)C=C,Saldana11
methyl propanoate,271.0,1.0,CCC(=O)OC,Saldana11
methyl tridecanoate,386.0,1.0,CCCCCCCCCCCCC(=O)OC,Saldana11
n-butyl octadecanoate,433.0,1.0,CCCCCCCCCCCCCCCCCC(=O)OCCCC,Saldana11
n-propyl ethanoate,288.0,1.0,CCCOC(=O)C,Saldana11
n-propyl methanoate,270.0,1.0,CCCOC=O,Saldana11
n-propyl propanoate,292.0,1.0,CCCOC(=O)CC,Saldana11
neopentyl ethanoate,316.0,1.0,CC(=O)OCC(C)(C)C,Saldana11
nonyl ethanoate,372.0,1.0,CCCCCCCCCOC(=O)C,Saldana11
nonyl methanoate,360.0,1.0,CCCCCCCCCOC=O,Saldana11
octyl butanoate,378.0,1.0,CCCCCCCCOC(=O)CCC,Saldana11
octyl ethanoate,359.0,1.0,CCCCCCCCOC(=O)C,Saldana11
octyl methanoate,353.0,1.0,CCCCCCCCOC=O,Saldana11
pentyl butanoate,345.0,1.0,CCCCCOC(=O)CCC,Saldana11
pentyl ethanoate,312.0,1.0,CCCCCOC(=O)C,Saldana11
pentyl methanoate,319.0,1.0,CCCCCOC=O,Saldana11
pentyl propanoate,336.0,1.0,CCCCCOC(=O)CC,Saldana11
propyl 2-methylprop-2-enoate,322.0,1.0,CCCOC(=O)C(=C)C,Saldana11
propyl prop-2-enoate,311.0,1.0,CCCOC(=O)C=C,Saldana11
sec-butyl ethanoate,255.0,1.0,CCC(C)OC(=O)C,Saldana11
sec-butyl methanoate,299.0,1.0,CC(CC)OC=O,Saldana11
tert-butyl 2-methylprop-2-enoate,300.0,1.0,CC(=C)C(=O)OC(C)(C)C,Saldana11
tert-butyl butanoate,320.0,1.0,CCCC(=O)OC(C)(C)C,Saldana11
tert-butyl ethanoate,287.0,1.0,CC(=O)OC(C)(C)C,Saldana11
tert-butyl methanoate,264.0,1.0,O=COC(C)(C)C,Saldana11
tetradecyl methanoate,433.0,1.0,CCCCCCCCCCCCCCOC=O,Saldana11
undecyl butanoate,421.0,1.0,CCCCCCCCCCCOC(=O)CCC,Saldana11
undecyl ethanoate,398.0,1.0,CCCCCCCCCCCOC(=O)C,Saldana11
undecyl methanoate,385.0,1.0,CCCCCCCCCCCOC=O,Saldana11
undecyl propanoate,410.0,1.0,CCCCCCCCCCCOC(=O)CC,Saldana11
1-methyl-4-(prop-1-en-2-yl)cyclohex-1-ene,318.0,1.0,CC1=CCC(CC1)C(=C)C,Saldana11
"1-methyl-4-(propan-2-yl)cyclohexa-1,3-diene",319.0,1.0,CC1=CC=C(CC1)C(C)C,Saldana11
"1-methyl-4-(propan-2-yl)cyclohexa-1,4-diene",324.0,1.0,CC1=CCC(=CC1)C(C)C,Saldana11
"1-trans-3,5-trimethylcyclohexane",292.0,1.0,C[C@H]1C[C@H](C)C[C@H](C)C1,Saldana11
"1,1-diethylcyclohexane",322.0,1.0,CCC1(CC)CCCCC1,Saldana11
"1,1-dimethylcyclohexane",280.0,1.0,CC1(C)CCCCC1,Saldana11
"1,1-dimethylcyclopentane",257.0,1.0,CC1(C)CCCC1,Saldana11
"1,3-dimethyladamantane",325.0,1.0,CC12CC3CC(C1)CC(C)(C3)C2,Saldana11
"2-methyl-5-propan-2-ylcyclohexa-1,3-diene",322.0,1.0,CC1=CCC(C=C1)C(C)C,Saldana11
2-norbornene,258.0,1.0,C1CC2C=CC1C2,Saldana11
3-methylidene-6-(propan-2-yl)cyclohex-1-ene,322.0,1.0,C=C1CCC(C=C1)C(C)C,Saldana11
"3,3-dimethyl-2-methylidenebicyclo[2.2.1]heptane",309.0,1.0,C=C1C2CCC(C2)C1(C)C,Saldana11
"4,6,6-trimethylbicyclo[3.1.1]hept-3-ene",303.0,1.0,CC1=CCC2CC1C2(C)C,Saldana11
5-ethylidene-2-norbornene,311.0,1.0,CC=C1CC2CC1C=C2,Saldana11
"6,6-dimethyl-4-methylidenebicyclo[3.1.1]heptane",304.0,1.0,C=C1CCC2CC1C2(C)C,Saldana11
bicyclohexyl,347.0,1.0,C1CCC(CC1)C1CCCCC1,Saldana11
butylcyclohexane,321.0,1.0,CCCCC1CCCCC1,Saldana11
butylcyclopentane,308.0,1.0,CCCCC1CCCC1,Saldana11
"cis-1,2-dimethylcyclohexane",284.0,1.0,C[C@@H]1CCCC[C@@H]1C,Saldana11
"cis-1,2-dimethylcyclopentane",269.0,1.0,C[C@@H]1CCC[C@@H]1C,Saldana11
"cis-1,3-dimethylcyclohexane",279.0,1.0,C[C@@H]1CCC[C@H](C)C1,Saldana11
"cis-1,4-dimethylcyclohexane",279.0,1.0,C[C@H]1CC[C@@H](C)CC1,Saldana11
cis-decalin,323.0,1.0,C1CC[C@@H]2CCCC[C@@H]2C1,Saldana11
cyclodecane,338.0,1.0,C1CCCCCCCCC1,Saldana11
"cyclododeca-1,5,9-triene",360.0,1.0,C1C=CCCC=CCCC=CC1,Saldana11
cycloheptane,267.0,1.0,C1CCCCCC1,Saldana11
"cyclohexa-1,3-diene",257.0,1.0,C1CC=CC=C1,Saldana11
"cyclohexa-1,4-diene",262.0,1.0,C1C=CCC=C1,Saldana11
cyclohexane,253.0,1.0,C1CCCCC1,Saldana11
cyclononane,316.0,1.0,C1CCCCCCCC1,Saldana11
"cycloocta-1,3,5,7-tetraene",295.0,1.0,C1=CC=CC=CC=C1,Saldana11
"cycloocta-1,5-diene",308.0,1.0,C1C=CCCC=CC1,Saldana11
cyclooctane,303.0,1.0,C1CCCCCCC1,Saldana11
"cyclopenta-1,3-diene",273.0,1.0,C1C=CC=C1,Saldana11
cyclopentane,236.0,1.0,C1CCCC1,Saldana11
dicyclopentadiene,305.0,1.0,C1=CC2C3C=CC(C3)C2C1,Saldana11
ethenylnorbornene,300.0,1.0,C=CC1CC2C=CC1C2,Saldana11
ethylcyclohexane,295.0,1.0,CCC1CCCCC1,Saldana11
ethylcyclopentane,269.0,1.0,CCC1CCCC1,Saldana11
isopropylcyclohexane,308.0,1.0,CC(C)C1CCCCC1,Saldana11
isopropylcyclopentane,287.0,1.0,CC(C)C1CCCC1,Saldana11
methylcyclohexane,267.0,1.0,CC1CCCCC1,Saldana11
methylcyclopentadiene,322.0,1.0,CC1=CC=CC1,Saldana11
methylcyclopentane,246.0,1.0,CC1CCCC1,Saldana11
methylenecyclopentane,254.0,1.0,C=C1CCCC1,Saldana11
pentylcyclohexane,339.0,1.0,CCCCCC1CCCCC1,Saldana11
prop-2-enylcyclohexane,302.0,1.0,C=CCC1CCCCC1,Saldana11
prop-2-enylcyclopentane,285.0,1.0,C=CCC1CCCC1,Saldana11
propylcyclohexane,304.0,1.0,CCCC1CCCCC1,Saldana11
propylcyclopentane,289.0,1.0,CCCC1CCCC1,Saldana11
terpinolene,311.0,1.0,CC1=CCC(=C(C)C)CC1,Saldana11
tert-butylcyclohexane,315.0,1.0,CC(C)(C)C1CCCCC1,Saldana11
"trans-1,2-dimethylcyclohexane",280.0,1.0,C[C@@H]1CCCC[C@H]1C,Saldana11
"trans-1,3-dimethylcyclohexane",281.0,1.0,C[C@@H]1CCC[C@@H](C)C1,Saldana11
"trans-1,4-dimethylcyclohexane",284.0,1.0,C[C@@H]1CC[C@@H](C)CC1,Saldana11
trans-decalin,325.0,1.0,C1CC[C@@H]2CCCC[C@H]2C1,Saldana11
"(2E,4E)-hexa-2,4-diene",266.0,1.0,C/C=C/C=C/C,Saldana11
(2E)-2-hexene,246.0,1.0,CCC/C=C/C,Saldana11
(2E)-2-pentene,228.0,1.0,CC/C=C/C,Saldana11
(2E)-3-heptene,267.0,1.0,CCC/C=C/CC,Saldana11
(2E)-3-methylpent-2-ene,246.0,1.0,CC/C(=C/C)/C,Saldana11
(2E)-4-methylpent-2-ene,239.0,1.0,C/C=C/C(C)C,Saldana11
(2E)-hept-2-ene,272.0,1.0,CCCC/C=C/C,Saldana11
(2E)-oct-2-ene,294.0,1.0,CCCCC/C=C/C,Saldana11
"(2Z,4E)-hexa-2,4-diene",266.0,1.0,C/C=C/C=C\C,Saldana11
(2Z)-3-methylpent-2-ene,245.0,1.0,CC/C(=C\C)/C,Saldana11
(2Z)-4-methylpent-2-ene,237.0,1.0,C/C=C\C(C)C,Saldana11
(2Z)-but-2-ene,200.0,1.0,C/C=C\C,Saldana11
(2Z)-hept-2-ene,265.0,1.0,CCCC/C=C\C,Saldana11
(2Z)-hex-2-ene,247.0,1.0,CCC/C=C\C,Saldana11
(2Z)-oct-2-ene,294.0,1.0,CCCCC/C=C\C,Saldana11
(2Z)-pent-2-ene,226.0,1.0,CC/C=C\C,Saldana11
"(3E)-1,3-hexadiene",254.0,1.0,CC/C=C/C=C,Saldana11
(3E)-3-hexene,261.0,1.0,CC/C=C/CC,Saldana11
(3E)-3-octene,282.0,1.0,CCCC/C=C/CC,Saldana11
(3Z)-hept-3-ene,264.0,1.0,CCC/C=C\CC,Saldana11
(3Z)-hex-3-ene,245.0,1.0,CC/C=C\CC,Saldana11
(3Z)-oct-3-ene,290.0,1.0,CCCC/C=C\CC,Saldana11
"(4E)-hexa-1,4-diene",248.0,1.0,C=CC/C=C/C,Saldana11
(4E)-oct-4-ene,281.0,1.0,CCC/C=C/CCC,Saldana11
"(4Z)-hexa-1,4-diene",248.0,1.0,C=CC/C=C\C,Saldana11
(4Z)-oct-4-ene,290.0,1.0,CCC/C=C\CCC,Saldana11
1-methylcyclohex-1-ene,272.0,1.0,CC1=CCCCC1,Saldana11
1-methylcyclopent-1-ene,256.0,1.0,CC1=CCCC1,Saldana11
"1,3-dimethylcyclohex-1-ene",285.0,1.0,CC1CCCC(=C1)C,Saldana11
2-ethylbut-1-ene,247.0,1.0,CCC(=C)CC,Saldana11
2-ethylpent-1-ene,263.0,1.0,CCCC(=C)CC,Saldana11
2-methylbut-1-ene,226.0,1.0,CCC(=C)C,Saldana11
2-methylbut-2-ene,228.0,1.0,CC=C(C)C,Saldana11
2-methylhept-1-ene,283.0,1.0,CCCCCC(=C)C,Saldana11
2-methylhept-2-ene,281.0,1.0,CCCCC=C(C)C,Saldana11
2-methylhex-1-ene,267.0,1.0,CCCCC(=C)C,Saldana11
2-methylpent-1-ene,247.0,1.0,CCCC(=C)C,Saldana11
2-methylpent-2-ene,250.0,1.0,CCC=C(C)C,Saldana11
2-methylprop-1-ene,197.0,1.0,CC(=C)C,Saldana11
"2,3-dimethylbut-1-ene",255.0,1.0,CC(=C)C(C)C,Saldana11
"2,3-dimethylbut-2-ene",257.0,1.0,CC(=C(C)C)C,Saldana11
"2,3-dimethylbuta-1,3-diene",251.0,1.0,CC(=C)C(=C)C,Saldana11
"2,3-dimethylhex-1-ene",281.0,1.0,CCCC(C)C(=C)C,Saldana11
"2,3-dimethylpent-1-ene",256.0,1.0,CCC(C)C(=C)C,Saldana11
"2,3,3-trimethylbut-1-ene",256.0,1.0,CC(=C)C(C)(C)C,Saldana11
"2,3,4-trimethylpent-2-ene",275.0,1.0,CC(C)C(=C(C)C)C,Saldana11
"2,4,4-trimethylpent-1-ene",268.0,1.0,CC(=C)CC(C)(C)C,Saldana11
"2,4,4-trimethylpent-2-ene",272.0,1.0,CC(=CC(C)(C)C)C,Saldana11
"2,5-dimethylhexa-1,5-diene",280.0,1.0,CC(=C)CCC(=C)C,Saldana11
"2,5-dimethylhexa-2,4-diene",297.0,1.0,CC(=CC=C(C)C)C,Saldana11
3-ethylhex-1-ene,274.0,1.0,CCCC(CC)C=C,Saldana11
3-ethylpent-1-ene,256.0,1.0,CCC(CC)C=C,Saldana11
3-ethylpent-2-ene,267.0,1.0,CCC(=CC)CC,Saldana11
3-methylbut-1-ene,217.0,1.0,C=CC(C)C,Saldana11