smiles,compound,flashpoint,source,pure substance,canonical smiles
CC=1C=C(C=CC1)OC,3-methylanisole,325.0,carroll11,1,C=C(C)CCC(=C)C
ClC(CO)C,2-chloro-1-propanol,324.0,carroll11,1,CC(C)=CC=C(C)C
CC1=CC=C(C=C1)OC,4-methylanisole,326.0,carroll11,1,C=C(C)CCCC(C)C
C(C1=CC=CC=C1)OC,benzylmethylether,326.0,carroll11,1,C=CC(CC)CCC
ClCCO,2-chloroethanol,328.0,carroll11,1,C=CC(CC)CC
CC1=NC(=CC(=C1)C)C,"2,4,6-trimethylpyridine",327.0,carroll11,1,CC=C(CC)CC
C(CCSC)=O,4-thiapentanal,334.0,carroll11,1,C=CC(C)C
C(C1=CC=CC=C1)OCC,benzylethylether,332.0,carroll11,1,C=C=C(C)C
C(C1=CC=CC=C1)Cl,benzylchloride,333.0,carroll11,1,CC1C=CCCC1
C(C1=CC=CC=C1)=O,benzaldehyde,335.0,carroll11,1,C=CC(C)CCC
BrC1=CC(=CC=C1)CC,1-bromo-3-ethylbenzene,344.0,carroll11,1,C=CC(C)CC
ClCCCCCCl,"1,5-dichloropentane",336.0,carroll11,1,C=CC(C)=CC
ClC1=CC=C(C=C1)CC,1-chloro-4-ethylbenzene,335.0,carroll11,1,CCC(=CCCCCCCC=C(CC)CC)CC
C(C1=CC=CC=C1)N,benzylamine,338.0,carroll11,1,C=CC(C)(C)C
SCCO,2-mercaptoethanol,341.0,carroll11,1,C=CC1CC=CCC1
NC1=CC=CC=C1,aniline,343.0,carroll11,1,CC1CC=CCC1
C(C)C1=C(N)C(=CC=C1)C,2-ethyl-6-methylaniline,375.0,carroll11,1,C=CCC(C)CCC
C(C1=CC=CC=C1)#N,benzonitrile,343.0,carroll11,1,C=CCC(C)CC
C(C1=CC=CC=C1)S,benzylmercaptan,343.0,carroll11,1,C=CCC(C)C
C(C)OC(CC(=O)C)=O,ethylacetoacetate,343.0,carroll11,1,C=CC=C(C)C
C(CCC)OCCOC(C)=O,2-butoxyethylacetate,344.0,carroll11,1,C=CCC(C)(C)C
C(C1=CC=CC=C1)SC,benzylmethylsulfide,346.0,carroll11,1,C=CCCC(C)C
ClCCCO,3-chloro-1-propanol,346.0,carroll11,1,CCCCCCCC=C(CCCCCC)CCCCCC
C(C)(C)(C)OC(CC(=O)C)=O,tert-butylacetoacetate,349.0,carroll11,1,C=CCCCCC(C)C
IC1=CC=CC=C1,iodobenzene,347.0,carroll11,1,C=CCCCC[C@H](CCCC)CCCCCC
BrC=1C=C(C)C=CC1,3-bromotoluene,348.0,carroll11,1,C=CCCCC[C@@H](CCCC)CCCCCC
CN(C1=CC=CC=C1)C,"N,N-dimethylaniline",348.0,carroll11,1,C=CCC
BrC1=C(C=CC=C1)CC,1-bromo-2-ethylbenzene,352.0,carroll11,1,C=CC=C
C(C)(=O)C1=CC=CC=C1,acetophenone,350.0,carroll11,1,C1=CCCCCC1
BrC1=C(C)C=CC=C1,2-bromotoluene,351.0,carroll11,1,C1=CCCCC1
CNC1=CC=CC=C1,N-methylaniline,352.0,carroll11,1,C1=CCCCCCC1
C(C1=CC=CC=C1)Br,benzylbromide,352.0,carroll11,1,C1=CCCC1
CC(CCC(C)=O)=O,"2,5-hexanedione",351.0,carroll11,1,C=CCCCCCCCC
COC(C1=CC=CC=C1)=O,methylbenzoate,353.0,carroll11,1,C=CCCCCCCC=C
C(C)OC(C1=CC=CC=C1)=O,ethylbenzoate,357.0,carroll11,1,C=CCCCCCCCCCC
C(CC)OC(C1=CC=CC=C1)=O,propylbenzoate,371.0,carroll11,1,C=CC1CCCCC1
C(CCC)OC(C1=CC=CC=C1)=O,butylbenzoate,380.0,carroll11,1,C=CCCCCC
C(CCCC)OC(C1=CC=CC=C1)=O,pentylbenzoate,393.0,carroll11,1,C#CCCCCC
IC1=CC(=CC=C1)C,1-iodo-3-methylbenzene,356.0,carroll11,1,C=CCCCC=C
NC=1C(=CC=CC1)C,o-toluidine,358.0,carroll11,1,C=CCCCCCCCCCCCCCCC
C(C)C1=C(C=CC=C1)O,2-ethylphenol,358.0,carroll11,1,C=CCCCC
CC=1C=C(C=CC1)CC(=O)[O-],3-methylphenylacetate,358.0,carroll11,1,C=CCCC=C
C1=C(C=CC=C1O)C,m-cresol,359.0,carroll11,1,C=CCCCCCCCCCCCCCC
CC=1C=C(N)C=CC1,3-methylaniline,359.0,carroll11,1,C=CC(=C)C
C(C)C1=CC=C(N)C=C1,4-ethylaniline,370.0,carroll11,1,C=CCCCCCCC
C(C)C=1C=C(N)C=CC1,3-ethylaniline,358.0,carroll11,1,C=CCCCCCC=C
C(C)C1=C(N)C=CC=C1,2-ethylaniline,358.0,carroll11,1,C=CCCCCCC
[N+](=O)([O-])C1=CC=CC=C1,nitrobenzene,361.0,carroll11,1,C=CCCCCC=C
C(C)N(C1=CC=CC=C1)CC,"N,N-diethylaniline",361.0,carroll11,1,C=CCCCCCCCCCCCCCCCC
C(C)(C)C1=C(C=CC=C1)O,2-isopropylphenol,362.0,carroll11,1,C=CCCC
IC1=C(C)C=CC=C1,2-iodotoluene,363.0,carroll11,1,C=CCCCCCCCCCCCCC
IC1=CC=C(C)C=C1,4-iodotoluene,363.0,carroll11,1,C=CC
C(CC)C1=CC=C(C=C1)OC,4-propylanisole,355.0,carroll11,1,C=CCCCCCCCCCCCC
C1(=CC=CC=C1)CC(CC)=O,1-phenyl-2-butanone,364.0,carroll11,1,C=CCCCCCCCCCCC
C1(=CC=CC=C1)C(C)OC(C)=O,1-phenylethylacetate,364.0,carroll11,1,C=CCCCCCCCCC
C(C1=CC=CC=C1)O,benzylalcohol,366.0,carroll11,1,CCCCCCCCC[C@@H](C)CC[C@H](C)CCCCCCCCC
C(CC)C1=C(C=CC=C1)O,2-propylphenol,366.0,carroll11,1,CCCCCCCCC[C@H](C)CC[C@H](C)CCCCCCCCC
CC1=C(C=CC(=C1)C)O,"2,4-dimethylphenol",367.0,carroll11,1,CCCCCCCCC[C@H](C)CC[C@@H](C)CCCCCCCCC
C(C)C=1C=C(C=CC1)O,3-ethylphenol,367.0,carroll11,1,CCCCCCCCCCC[C@@H](C)CCCC[C@H](C)CC
C1(=CC=CC=C1)C(C)OC(CC)=O,1-phenylethylpropionate,379.0,carroll11,1,CCCCCCCCCCC[C@H](C)CCCC[C@H](C)CC
C(C1=CC=CC=C1)CC(=O)[O-],benzylacetate,363.0,carroll11,1,CCCCCCCCCC[C@@H](C)[C@H](C)CC
C(CCCCS)S,"1,5-pentanedithiol",368.0,carroll11,1,CCCCCCCCCC[C@H](C)[C@H](C)CC
CC1=C(N)C=CC=C1C,"2,3-dimethylaniline",369.0,carroll11,1,CCC(CC)CCCCC[C@@H](C)C[C@H](C)CC
C(C1=CC=CC=C1)OC(CC)=O,benzylpropanoate,369.0,carroll11,1,CCCCCCCC(CC)[C@H](C)C[C@H](C)CC
C1(=CC=CC=C1)C(CCC)=O,1-phenyl-1-butanone,361.0,carroll11,1,CCC[C@@H](CC)[C@H](C)C[C@H](C)CC
C(C1=CC=CC=C1)I,benzyliodide,370.0,carroll11,1,CCC(CC)CCC[C@@H](C)C[C@H](C)CC
C(C1=CC=CC=C1)C#N,benzylcyanide,374.0,carroll11,1,CCCC[C@@H](C)C[C@H](C)CC
C(C)(C)(C)C1=CC=C(N)C=C1,4-tert-butylaniline,375.0,carroll11,1,CC[C@@H](C)C[C@@H](C)[C@H](C)CC
C(C)(C)(C)C=1C=C(N)C=CC1,3-tert-butylaniline,374.0,carroll11,1,CCC(CC)CCCCC[C@H](C)C[C@H](C)CC
C(CCC)C1=CC=C(N)C=C1,4-butylaniline,375.0,carroll11,1,CCCCCCCC(CC)[C@@H](C)C[C@H](C)CC
C(CC)C1=CC=C(N)C=C1,4-propylaniline,376.0,carroll11,1,CCCCC[C@@H](CC)[C@H](C)C[C@H](C)CC
C(CC)C1=C(N)C=CC=C1,2-propylaniline,370.0,carroll11,1,CCC(CC)CCC[C@H](C)C[C@H](C)CC
C(C)(C)C1=C(N)C=CC=C1,2-isopropylaniline,368.0,carroll11,1,CCCC[C@H](C)C[C@H](C)CC
C(C)(C)C=1C=C(C=CC1)O,3-isopropylphenol,377.0,carroll11,1,CCCCC[C@@H](C)CC[C@H](C)CC
N1=CC=CC2=CC=CC=C12,quinoline,374.0,carroll11,1,CCCCC[C@H](C)CC[C@H](C)CC
C1(=CC=CC=C1)CCOC(C)=O,2-phenylethylacetate,375.0,carroll11,1,CCCCCC[C@@H](C)CCC[C@H](C)CC
C(CC)C1=CC=C(C=C1)O,4-propylphenol,379.0,carroll11,1,CCCCCC[C@H](C)CCC[C@H](C)CC
C1(=CC=CC=C1)CCOC(CC)=O,2-phenylethylpropionate,386.0,carroll11,1,CCCCCCC[C@@H](C)CCCC[C@H](C)CC
C(C1=CC=CC=C1)OC(CCC)=O,benzylbutanoate,380.0,carroll11,1,CCCCCCC[C@H](C)CCCC[C@H](C)CC
C(C)(CC)C1=C(C=CC=C1)O,2-sec-butylphenol,380.0,carroll11,1,CCCCCCCCC[C@@H](C)CCCC[C@H](C)CC
C(CCC)NC1=CC=CC=C1,N-butylaniline,380.0,carroll11,1,CCCCCCCCC[C@H](C)CCCC[C@H](C)CC
C(C)(CC)NC1=CC=CC=C1,N-sec-butylaniline,366.0,carroll11,1,CCCCCCCCCCC[C@@H](C)CCCC[C@@H](C)CC
C(C)(C)(C)NC1=CC=CC=C1,N-tert-butylaniline,361.0,carroll11,1,CCCCCCCCCCC[C@H](C)CCCC[C@@H](C)CC
C(C)(CC)C1=CC=C(N)C=C1,4-sec-butylaniline,381.0,carroll11,1,CCCCCCCCCC[C@@H](C)[C@@H](C)CC
C(C)(CC)C1=C(N)C=CC=C1,2-sec-butylaniline,375.0,carroll11,1,CCCCCCCCCC[C@H](C)[C@@H](C)CC
C(C)(C)(C)C1=C(C=CC=C1)O,2-tert-butylphenol,375.0,carroll11,1,CCC(CC)CCCCC[C@@H](C)C[C@@H](C)CC
C1(=CC=CC=C1)CCCOC(C)=O,3-phenylpropylacetate,386.0,carroll11,1,CCCCCCCC(CC)[C@H](C)C[C@@H](C)CC
C(C)(C)C1=C(N)C(=CC=C1)C(C)C,"2,6-diisopropylaniline",396.0,carroll11,1,CCC(CC)CCC[C@@H](C)C[C@@H](C)CC
C(C=C)OC1=CC=CC=C1,allylphenylether,336.0,carroll11,1,CCCC[C@@H](C)C[C@@H](C)CC
C(=C)OC=C,divinylether,226.0,carroll11,1,CCC(CC)CCCCC[C@H](C)C[C@@H](C)CC
O1C=CC=C1,furan,237.0,carroll11,1,CCCCCCCC(CC)[C@@H](C)C[C@@H](C)CC
CC=1OC=CC1,2-methylfuran,247.0,carroll11,1,CCC(CC)CCC[C@H](C)C[C@@H](C)CC
S1C=CC=C1,thiophene,264.0,carroll11,1,CCCC[C@H](C)C[C@@H](C)CC
CC=1SC=CC1,2-methylthiophene,281.0,carroll11,1,CCCCC[C@@H](C)CC[C@@H](C)CC
C(C)C=1SC=CC1,2-ethylthiophene,294.0,carroll11,1,CCCCC[C@H](C)CC[C@@H](C)CC
C(CC)C=1SC=CC1,2-propylthiophene,305.0,carroll11,1,CCCCCC[C@@H](C)CCC[C@@H](C)CC
C(C)(C)(C)C=1OC=CC1,2-tert-butylfuran,280.0,carroll11,1,CCCCCC[C@H](C)CCC[C@@H](C)CC
CC1=CSC=C1,3-methylthiophene,284.0,carroll11,1,CCCCCCC[C@@H](C)CCCC[C@@H](C)CC
C(C=C)OC(C(=C)C)=O,allylmethacrylate,310.0,carroll11,1,CCCCCCC[C@H](C)CCCC[C@@H](C)CC
C(\C=C(/C)\CCC=C(C)C)C(=O)[O-],geranylformate,368.0,carroll11,1,CCCCCCCCC[C@@H](C)CCCC[C@@H](C)CC
C(\C=C(/C)\CCC=C(C)C)CC(=O)[O-],geranylacetate,377.0,carroll11,1,CCCCCCCCC[C@H](C)CCCC[C@@H](C)CC
C(=CC)C1=CC=C(C=C1)OC,4-propenylanisole,369.0,carroll11,1,CCC[C@@H](CC)[C@H](CC)CCC
C(C)\C(=C(/C(=O)[O-])\CC)\C(=O)[O-],diethylfumarate,366.0,carroll11,1,CCC[C@H](CC)[C@H](CC)CCC
C(C)OC(C=CC1=CC=CC=C1)=O,ethylcinnamate,408.0,carroll11,1,CCC[C@H](CC)[C@@H](CC)CCC
COCC(C)O,1-methoxy-2-propanol,304.0,carroll11,1,CCCCCCCC[C@@H](C)[C@H](C)CCCC
COCCO,2-methoxyethanol,311.0,carroll11,1,CCCCCCCC[C@H](C)[C@H](C)CCCC
CN(CCO)C,2-dimethylaminoethanol,314.0,carroll11,1,CCCCCCCC[C@@H](C)[C@@H](C)CCCC
C(C)OCCO,2-ethoxyethanol,315.0,carroll11,1,CCCCCCCC[C@H](C)[C@@H](C)CCCC
C(C)(C)OCCO,2-isopropoxyethanol,316.0,carroll11,1,CCCCCC[C@@H](CC)[C@H](CC)CCCCCC
BrCC(OC)OC,"2-bromo-1,1-dimethoxyethane",324.0,carroll11,1,CCCCCC[C@@H](C)[C@H](C)CCCCCC
COCCNCCOC,bis(2-methoxyethyl)amine,331.0,carroll11,1,CCCCCC[C@H](CC)[C@H](CC)CCCCCC
C(CCC)OCCO,2-butoxyethanol,335.0,carroll11,1,CCCCCC[C@H](C)[C@H](C)CCCCCC
ClC1=CC(=CC=C1)Cl,"1,3-dichlorobenzene",336.0,carroll11,1,CCCCCC[C@H](CC)[C@@H](CC)CCCCCC
ClC1=NC=CC=C1,2-chloropyridine,337.0,carroll11,1,CCCCCC[C@H](C)[C@@H](C)CCCCCC
ClC1=C(C=CC=C1)Cl,"1,2-dichlorobenzene",341.0,carroll11,1,CCCCCCCC[C@@H](C)[C@H](C)CCCCCCCC
NC(CO)(C)C,2-amino-2-methyl-1-propanol,341.0,carroll11,1,CCCCCCCC[C@@H](CCC)[C@H](CCC)CCCCCCCC
CNCCO,2-(methylamino)ethanol,345.0,carroll11,1,CCCCCCCC[C@H](C)[C@H](C)CCCCCCCC
NCC(C)O,1-amino-2-propanol,340.0,carroll11,1,CCCCCCCC[C@H](CCC)[C@H](CCC)CCCCCCCC
ClC1=C(C=CC=C1)O,2-chlorophenol,345.0,carroll11,1,CCCCCCCC[C@H](C)[C@@H](C)CCCCCCCC
OCCNCCC,(2-hydroxyethyl)propylamine,351.0,carroll11,1,CCCCCCCC[C@H](CCC)[C@@H](CCC)CCCCCCCC
COC1=C(C=CC=C1)OC,"1,2-dimethoxybenzene",360.0,carroll11,1,CCCCC(CC)C(C)C
ClC(CO)CCl,"2,3-dichloro-1-propanol",366.0,carroll11,1,CCCC(CC)C(C)C
C1(=CC=CC=C1)OC1=CC=CC=C1,diphenylether,388.0,carroll11,1,CCCC(CC)CC(C)C
COC(C=1C(C(=O)OC)=CC=CC1)=O,dimethylphthalate,423.0,carroll11,1,CCC(CC)CC(C)C
C(C(C)C)OC(C=1C(C(=O)OCC(C)C)=CC=CC1)=O,diisobutylphthalate,458.0,carroll11,1,CCCCCCCCC(C)C
C(C)OC(C=1C(C(=O)OCC)=CC=CC1)=O,diethylphthalate,433.0,carroll11,1,CCCCCCCCCCC(C)C
C(C1=CC=CO1)=O,furfural,331.0,carroll11,1,CCCCCCCCCCCCCCCCCCC(C)C
C(C1=CC=CO1)O,furfurylalcohol,348.0,carroll11,1,CCCCCCCCCCCCCCCC(C)C
C(C1=CC=CO1)CC(=O)[O-],furfurylacetate,338.0,carroll11,1,CCCCCC(C)C
C(C1=CC=CO1)OC(CC)=O,furfurylpropanoate,355.0,carroll11,1,CCCCCCCCCCCCCCC(C)C
COC1OC(C=C1)OC,"2,5-dimethoxy-2,5-dihydrofuran",320.0,carroll11,1,CCCCC(C)C
COC=1C(C(=O)[O-])=CC=CC1,methylsalicylate,372.0,carroll11,1,CCCCCCCCCCCCCCCCCC(C)C
C(C)OC=1C(C(=O)[O-])=CC=CC1,ethylsalicylate,380.0,carroll11,1,CCCCCCCC(C)C
C1(=CC=CC=C1)CCO,2-phenylethanol,375.0,carroll11,1,CCCCCCCCCCCCCCCCC(C)C
C(COCCO)O,diethyleneglycol,397.0,carroll11,1,CCCCCCC(C)C
CN(CCO)CCO,N-methyldiethanolamine,410.0,carroll11,1,CCCCCCCCCCCCCC(C)C
CC1=COC=C1,3-methylfuran,251.0,carroll11,1,CCCCCCCCCCCCC(C)C
C(C)C=1OC=CC1,2-ethylfuran,271.0,carroll11,1,CCCCCCCCCCCC(C)C
C(C)C1=CSC=C1,3-ethylthiophene,296.0,carroll11,1,CCCCCCCCCC(C)C
C1(CCCCC1)OC(C(=C)C)=O,cyclohexylmethacrylate,355.0,carroll11,1,CCC(C)(C)C
C1(CCCCC1)OC(C=C)=O,cyclohexylacrylate,341.0,carroll11,1,CCCCCCCCC(C)(C)C
C1(=CC=CC=C1)CCC(CC)=O,1-phenyl-3-pentanone,376.0,carroll11,1,CCCCCC(C)(C)C
C(CC)C=1OC=CC1,2-propylfuran,288.0,carroll11,1,CCCCC(C)(C)C
C(C(C)C)OC(C1=CC=CC=C1)=O,isobutylbenzoate,375.0,carroll11,1,CCCCCCC(C)(C)C
ClCCCCCCC#CCC,10-chloro-3-decyne,359.0,carroll11,1,CCCC(C)(C)C
ClCCCC#CCCCCC,1-chloro-4-decyne,360.0,carroll11,1,CC(C)(C)C
ClC(=C)C=C,"2-chloro-1,3-butadiene",253.0,carroll11,1,CC(C)C(C)(C)C
C(C(C)C)OCCO,2-isobutoxyethanol,324.0,carroll11,1,CCCC(C)C(C)(C)C
Cl[SiH](Cl)Cl,Trichlorosilane,245.0,pan12,1,OC/C=C/CO
Cl[SiH2]Cl,Dichlorosilane,236.0,pan12,1,OC[C@H](O)[C@@H](O)[C@H](O)[C@H](O)CO
C[Si](Cl)(Cl)Cl,Methyltrichlorosilane,276.0,pan12,1,OCC[C@H](O)CO
C[SiH](Cl)Cl,Methyldichlorosilane,241.0,pan12,1,OC/C=C\CO
ClC(Cl)[Si](Cl)(Cl)C,Dichloromethylmethyldichlorosilane,301.0,pan12,1,CC/C=C\C/C=C\C/C=C\CCCCCCCCO
C(C)[Si](Cl)(Cl)Cl,Ethyltrichlorosilane,295.0,pan12,1,CCCCC/C=C\C/C=C\CCCCCCCCO
C[Si](Cl)(Cl)C,Dimethyldichlorosilane,257.0,pan12,1,CCCCCC/C=C\CCCCCCCCO
C[SiH](Cl)C,Dimethylchlorosilane,245.0,pan12,1,CCCCCCCC/C=C\CCCCCCCCO
FC(C(C)[Si](Cl)(Cl)Cl)(F)F,"1,1,1-Trifluoropropyltrichlorosilane",288.0,pan12,1,CCCCC(CC)(CO)CO
C(C=C)[Si](Cl)(Cl)Cl,Allyltrichlorosilane,304.0,pan12,1,CCCCCCC(CO)CCCC
CC=C[SiH](Cl)Cl,Methylvinyldichlorosilane,272.0,pan12,1,CCC(CC)CO
ClCCC[Si](Cl)(Cl)Cl,3-Chloropropyltrichlorosilane,357.0,pan12,1,CCCCC(CC)CO
BrC[Si](Cl)(C)C,Bromomethyldimethylchlorosilane,314.0,pan12,1,CCCC(O)C(CC)CO
ClC[Si](Cl)(C)C,Chloromethyldimethylchlorosilane,295.0,pan12,1,CCC(C)CO
C[Si](Br)(C)C,Trimethylbromosilane,270.0,pan12,1,CCC(C)(C)O
C[Si](Cl)(C)C,Trimethylchlorosilane,255.0,pan12,1,CCCCCC(C)(C)O
CO[SiH](OC)OC,Trimethoxysilane,264.0,pan12,1,CCCCC(C)(C)O
C[SiH](C)C,Trimethylsilane,204.0,pan12,1,CCCCCCCC(C)(C)O
C(#N)CC[Si](Cl)(Cl)C,Cyanoethylmethyldichlorosilane,333.0,pan12,1,CCCCCCC(C)(C)O
C(C=C)C[SiH](Cl)Cl,Allylmethyldichlorosilane,300.0,pan12,1,CCCC(C)CO
ClCCC[Si](Cl)(Cl)C,3-Chloropropylmethyldichlorosilane,359.0,pan12,1,CCCC(C)(C)O
C(C)(C)(C)[Si](Cl)(Cl)Cl,t-Butyltrichlorosilane,294.0,pan12,1,CC(O)CC(C)(C)O
C(C(C)C)[Si](Cl)(Cl)Cl,Isobutyltrichlorosilane,310.0,pan12,1,CC(C)CO
C(CCC)[Si](Cl)(Cl)Cl,n-Butyltrichlorosilane,327.0,pan12,1,CC(C)(C)O
C(CC)[Si](Cl)(Cl)C,n-Propylmethyldichlorosilane,300.0,pan12,1,OCC(CO)(CO)CO
BrC[Si](C)(C)C,Bromomethyltrimethylsilane,289.0,pan12,1,CCC(CC)(CO)CO
C(C)[Si](Cl)(C)C,Ethyldimethylchlorosilane,269.0,pan12,1,CC(C)(CO)CO
Cl[Si](O[Si](Cl)(C)C)(C)C,"1,3-Dichlorotetramethyldisiloxane",288.0,pan12,1,CC(C)CC(C)(C)CO
C[Si](OC)(OC)C,Dimethyldimethoxysilane,265.0,pan12,1,CC(C)C(O)C(C)(C)CO
C[Si](OC)(OC)OC,Methyltrimethoxysilane,284.0,pan12,1,CC(C)(O)C(C)(C)O
CO[Si](OC)(OC)OC,Tetramethoxysilane,294.0,pan12,1,CC(C)C(C)C(C)CO
C[Si](C)(C)C,Tetramethylsilane,245.0,pan12,1,CC(CO)CC(C)(C)C
CN(C)[SiH](C)C,"(N,N-Dimethylamino)dimethylsilane",260.0,pan12,1,CCCC[C@@H](CC)CO
C[SiH](O[SiH](C)C)C,"1,1,3,3-Tetramethyldisiloxane",251.0,pan12,1,CCCC[C@H](CC)CO
CN([Si](C)(C)C)[SiH3],Tetramethyldisilazane,284.0,pan12,1,CC(C)CCO
C1(CCCC1)[Si](Cl)(Cl)Cl,Cyclopentyltrichlorosilane,350.0,pan12,1,CC(C)C(C)O
C[Si](C)(C)OC(C(F)(F)F)=O,Trimethylsilyltrifluoroacetate,273.0,pan12,1,CCCCCCCC(C)(O)CC
C1(CCCC1)[SiH](Cl)Cl,Cyclopentyldichlorosilane,316.0,pan12,1,CCCCC(C)(O)CC
C(C=C)[Si](Cl)(C)C,Allyldimethylchlorosilane,278.0,pan12,1,CCCC(C)(O)CC
ClCC(C[Si](Cl)(Cl)C)C,3-Chloro-2-methylpropylmethyldichlorosilane,363.0,pan12,1,CCCCCCC(C)(O)CC
C(CCC)[Si](Cl)(Cl)C,n-Butylmethyldichlorosilane,303.0,pan12,1,CCCCCC(C)(O)CC
CC=C[SiH](OC)OC,Methylvinyldimethoxysilane,277.0,pan12,1,CCC(C)CCO
CC(=C(C)C)[SiH3],Trimethylvinylsilane,239.0,pan12,1,CCC(C)(O)CC
C(C)[Si](Cl)(C)CC,Diethylmethylchlorosilane,288.0,pan12,1,CC(C)(C)CCO
ClC[Si](OCC)(C)C,Chloromethyldimethylethoxysilane,299.0,pan12,1,CC(C)CC(C)O
C(C)[Si](OC)(OC)OC,Ethyltrimethoxysilane,300.0,pan12,1,CCC(C)CC(O)CC
CN(C)[Si](C)(C)C,"(N,N-Dimethylamino)trimethylsilane",254.0,pan12,1,CC(C)CCCCCCCO
CN(C)C(N(C)C)[SiH3],Bis(dimethylamino)methylsilane,270.0,pan12,1,CCCCO
C[SiH](O[Si](C)(C)C)C,Pentamethyldisiloxane,254.0,pan12,1,CCC(C)O
C1(=CC=CC=C1)[SiH](Cl)Cl,Phenyldichlorosilane,333.0,pan12,1,CCCC(O)O
C1(=CC=CC=C1)[SiH3],Phenylsilane,281.0,pan12,1,CCC(O)CO
C(=CCCCC)[Si](Cl)(Cl)Cl,1-Hexenyltrichlorosilane,333.0,pan12,1,CC(O)CCO
ClC[Si](O[Si](C)(C)C)(C)CCl,Bis(chloromethyl)tetramethyldisiloxane,346.0,pan12,1,OCCCCO
CN(C(C(F)(F)F)=O)[Si](C)(C)C,N-Methyl-N-trimethylsilyltrifluoroacetamide,298.0,pan12,1,CC(O)C(C)O
C(C#C)O[Si](C)(C)C,Propargyloxytrimethylsilane,300.0,pan12,1,CCCCCCCCCCO
C[Si](OC(C)=O)(OC(C)=O)C,Dimethyldiacetoxysilane,310.0,pan12,1,CCCCCCCCC(C)O
C(=C)[Si](C)(C)C=C,Divinyldimethylsilane,281.0,pan12,1,CCCCCCCC(O)CC
C(CCCCC)[Si](Cl)(Cl)Cl,n-Hexyltrichlorosilane,358.0,pan12,1,CCCCCCC(O)CCC
C(=C)[Si](OCC)(C)C,Vinyldimethylethoxysilane,277.0,pan12,1,CCCCCCCCCCCCO
C[Si]1(OCCCC1)C,"1,1-Dimethyl-1-sila-2-oxacyclohexane",287.0,pan12,1,CCCCCCCCCCC(C)O
C(C=C)O[Si](C)(C)C,Allyloxytrimethylsilane,273.0,pan12,1,CCCCCCCCCC(O)CC
C(C)(=O)OC[Si](C)(C)C,Acetoxymethyltrimethylsilane,293.0,pan12,1,CCCCCCCCC(O)CCC
C(C=C)[Si](C)(C)C,Allyltrimethylsilane,280.0,pan12,1,CCCCCCCCCCCCCCCCCCCCO
C(C)[Si](Cl)(CC)CC,Triethylchlorosilane,303.0,pan12,1,CCCCCCCCCCCCCCCCCCC(C)O
C(C)(C)(C)[Si](Cl)(C)C,t-Butyldimethylchlorosilane,295.0,pan12,1,CCCCCCCCCCCCCCCCCC(O)CC
ClCCC[Si](OC)(OC)OC,3-Chloropropyltrimethoxysilane,348.0,pan12,1,CCCCCCCCCCCCCCCCC(O)CCC
C[Si](OCCC)(C)C,Trimethyl-n-propoxysilane,283.0,pan12,1,OCCO
C(C)(C)(C)[Si](O)(C)C,t-Butyldimethylsilanol,318.0,pan12,1,CCO
C[Si](OCC)(OCC)C,Dimethyldiethoxysilane,284.0,pan12,1,CCCCCCCCCCCCCCCCCO
C(C)[SiH](CC)CC,Triethylsilane,270.0,pan12,1,CCCCCCCCCCCCCCCC(C)O
C(CCCCC)[SiH3],Hexylsilane,285.0,pan12,1,CCCCCCCCCCCCCCC(O)CC
C(C)(C)(C)[SiH](C)C,t-Butyldimethylsilane,251.0,pan12,1,CCCCCCCCCCCCCC(O)CCC
CN(C)[Si](C)(C)N(C)C,Bis(dimethylamino)dimethylsilane,266.0,pan12,1,CCCCCCCO
C[Si]1(O[Si](O[Si](O1)(C)C)(C)C)C,Hexamethylcyclotrisiloxane,305.0,pan12,1,CCCCCC(C)O
C[Si](S[Si](C)(C)C)(C)C,Hexamethyldisilthiane,299.0,pan12,1,CCCCC(O)CC
C[Si]([Si](C)(C)C)(C)C,Hexamethyldisilane,272.0,pan12,1,CCCC(O)CCC
CN(C)[SiH](N(C)C)N(C)C,Tris(dimethylamino)silane,298.0,pan12,1,CCCCCCCCCCCCCCCCO
C[Si](O[SiH2]O[Si](C)(C)C)(C)C,Hexamethyltrisiloxane,293.0,pan12,1,CCCCCCCCCCCCCCC(C)O
C1(=CC=CC=C1)C[SiH](Cl)Cl,Phenylmethyldichlorosilane,355.0,pan12,1,CCCCCCCCCCCCCC(O)CC
C1(=CC=CC=C1)C[SiH2]Cl,Phenylmethylchlorosilane,355.0,pan12,1,CCCCCCCCCCCCC(O)CCC
C(=C)C(C=C)(C=C)[SiH3],Trivinylmethylsilane,288.0,pan12,1,CCCCCCO
C1(CCCCC1)C[SiH](Cl)Cl,Cyclohexylmethyldichlorosilane,355.0,pan12,1,CCCCC(C)O
C[Si](OC=CC=C)(C)C,"1-(Trimethylsiloxy)-1,3-butadiene",298.0,pan12,1,CCCC(O)CC
ClCC(=C)C[Si](C)(C)C,2-Chloromethyl-3-trimethylsilyl-1-propene,316.0,pan12,1,OCCCCC(O)CO
C(CCCCC)[Si](Cl)(Cl)C,n-Hexylmethyldichlorosilane,358.0,pan12,1,OCCCCCCO
C(=C)C[SiH](OCC)OCC,Vinylmethyldiethoxysilane,289.0,pan12,1,CC(O)CCC(C)O
C(=C)[Si](C)(CC)CC,Vinyldiethylmethylsilane,288.0,pan12,1,CO
C[Si](N1CCOCC1)(C)C,N-(Trimethylsilyl)morpholine,300.0,pan12,1,CCCCCCCCCCCCCCCCCCCO
C[Si](C)(C)N=C=N[Si](C)(C)C,Bis(trimethylsilyl)carbodiimide,315.0,pan12,1,CCCCCCCCCCCCCCCCCC(C)O
C(C)(C)(C)O[Si](C)(C)C,t-Butoxytrimethylsilane,287.0,pan12,1,CCCCCCCCCCCCCCCCC(O)CC
C(=C)[Si](O[Si](C)(C)C)(C)C,Vinylpentamethyldisiloxane,285.0,pan12,1,CCCCCCCCCCCCCCCC(O)CCC
C(C(C)C)[Si](OC)(OC)OC,Isobutyltrimethoxysilane,315.0,pan12,1,CCCCCCCCCO
C[Si](OCC)(OCC)OCC,Methyltriethoxysilane,297.0,pan12,1,CCCCCCCC(C)O
C(C)N(CC)[Si](C)(C)C,(Diethylamino)trimethylsilane,283.0,pan12,1,CCCCCCC(O)CC
C[Si](C)(C)C[Si](C)(C)C,Bis(trimethylsilyl)methane,285.0,pan12,1,CCCCCC(O)CCC
C1(=CC=CC=C1)CC[SiH](Cl)Cl,Phenylethyldichlorosilane,365.0,pan12,1,C=CC(O)CCCCC
C1(=CC=CC=C1)[Si](Cl)(C)C,Phenyldimethylchlorosilane,334.0,pan12,1,CCCCCCCCCCCCCCCCCCO
CN(C)[Si](CC)(CC)CC,"(N,N-Dimethylamino)triethylsilane",299.0,pan12,1,CCCCCCCCCCCCCCCCC(C)O
C(=C)[Si](C=C)(C=C)C=C,Tetravinylsilane,291.0,pan12,1,CCCCCCCCCCCCCCCC(O)CC
C1(=CC=CC=C1)[SiH](C)C,Phenyldimethylsilane,311.0,pan12,1,CCCCCCCCCCCCCCC(O)CCC
C(C)[Si](OC(C)=O)(OC(C)=O)OC(C)=O,Ethyltriacetoxysilane,377.0,pan12,1,CCCCCCCCO
C1(C=CC=C1)[Si](C)(C)C,Cyclopentadienyltrimethylsilane,302.0,pan12,1,CCCCCCC(C)O
C[Si](C1C=CCC1)(C)C,3-(Trimethylsilyl)cyclopentene,299.0,pan12,1,CCCCCC(O)CC
C(C=CC=C)[Si](C)(C)C,"(2,4-Pentadienyl)trimethylsilane",291.0,pan12,1,CCCCC(O)CCC
C(CCCCCCC)[Si](Cl)(Cl)Cl,n-Octyltrichlorosilane,369.0,pan12,1,CCCCCCCCCCCCCCCO
C(CCCCCC)[Si](Cl)(Cl)C,n-Heptylmethyldichlorosilane,339.0,pan12,1,CCCCCCCCCCCCCC(C)O
C(C)C(C(=O)O[SiH3])(CC)CC,Triethylacetoxysilane,314.0,pan12,1,CCCCCCCCCCCCC(O)CC
C(=C)[Si](OCC)(OCC)OCC,Vinyltriethoxysilane,307.0,pan12,1,CCCCCCCCCCCC(O)CCC
C(=C)[Si](CC)(CC)CC,Vinyltriethylsilane,298.0,pan12,1,CCCCCO
C(=C)[Si](N[Si](C=C)(C)C)(C)C,"1,3-Divinyltetramethyldisilazane",307.0,pan12,1,CCCC(C)O
C(C)O[Si](OCC)(OCC)OCC,Tetraethoxysilane,323.0,pan12,1,CCC(O)CC
C(C)[Si](CC)(CC)CC,Tetraethylsilane,299.0,pan12,1,CCCCC(O)O
C(CCCCCCC)[SiH3],n-Octylsilane,309.0,pan12,1,CCCC(O)CO
NCCNCCC[Si](OC)(OC)OC,Aminoethylaminopropyltrimethoxysilane,369.0,pan12,1,CCC(O)CCO
C[Si](O[Si](O[Si](C)(C)C)(C)C)(C)C,Octamethyltrisiloxane,303.0,pan12,1,CC(O)CCCO
C[Si]1(O[Si](O[Si](O[Si](O1)(C)C)(C)C)(C)C)C,Octamethylcyclotetrasiloxane,330.0,pan12,1,OCCCCCO