compound,flashpoint,pure substance,smiles,source
4picoline,313.0,1.0,Cc1ccncc1,le15
"Acetamide, 2-chloro-",381.75,1.0,NC(=O)CCl,le15
dimethylphosphinic acid,410.85,1.0,CP(C)(=O)O,le15
2-ethenylfuran,278.65,1.0,C=Cc1ccco1,le15
"Pyrazine, 2-methyl-",323.15,1.0,Cc1cnccn1,le15
"Pyridine, 3-amino-",397.15,1.0,Nc1cccnc1,le15
"Pyridine, 4-amino-",429.15,1.0,Nc1ccncc1,le15
3-methylpyridazine,360.95,1.0,Cc1cccnn1,le15
5-methylpyrimidine,316.40599999999995,1.0,Cc1cncnc1,le15
4-methylpyrimidine,313.15,1.0,Cc1ccncn1,le15
"2,2-dimethylpropanedinitrile",350.95,1.0,CC(C)(C#N)C#N,le15
2-methylpyrimidine,293.45,1.0,Cc1ncccn1,le15
"Methane, sulfonylbis-",416.15,1.0,CS(C)(=O)=O,le15
"2-methylcyclohexa-1,3-diene",276.25,1.0,CC1=CCCC=C1,le15
1-Hepten-3-yne,281.35,1.0,C=CC#CCCC,le15
"cyclohepta-1,3-diene",284.25,1.0,C1=CCCCC=C1,le15
2norbornene,258.0,1.0,C1=CC2CCC1C2,le15
"ethane-1,2-dithiol",317.5499999999999,1.0,SCCS,le15
Methyl disulfide (8CI),297.5499999999999,1.0,CSSC,le15
DimethylDisulfide,297.0,1.0,CSSC,le15
"Acetic acid, chloro-",399.15,1.0,O=C(O)CCl,le15
"Carbonochloridic acid, methyl ester",280.95,1.0,COC(=O)Cl,le15
"2-Propanol, 1-chloro-",324.85,1.0,CC(O)CCl,le15
1-chloro-2-methoxyethane,288.15,1.0,COCCCl,le15
chloromethoxyethane,292.15,1.0,CCOCCl,le15
3chloro1propanol,346.0,1.0,OCCCCl,le15
chloro(dimethyl)silicon,245.15,1.0,C[Si](C)Cl,le15
"Ethyne, dichloro- (9CI)",280.45,1.0,ClC#CCl,le15
1H-pyrrole-2-carbaldehyde,379.85,1.0,O=Cc1ccc[nH]1,le15
1H-pyridin-2-one,454.25,1.0,O=c1cccc[nH]1,le15
"Acetonitrile, 2,2'-iminobis-",431.05,1.0,N#CCNCC#N,le15
1-ethylpyrrole,298.65,1.0,CCn1cccc1,le15
"2,4-dimethyl-1H-pyrrole",329.75,1.0,Cc1c[nH]c(C)c1,le15
2-ethyl-1H-pyrrole,335.35,1.0,CCc1ccc[nH]1,le15
"Pyrrole, 2,5-dimethyl- (8CI)",327.15,1.0,Cc1ccc(C)[nH]1,le15
Chloronitromethane,297.85,1.0,O=[N+]([O-])CCl,le15
"Acetic acid, 2,2-difluoro-",351.15,1.0,O=C(O)C(F)F,le15
2-Furancarboxaldehyde,331.45,1.0,O=Cc1ccco1,le15
pyran-4-one,374.25,1.0,O=c1ccocc1,le15
pyran-2-one,362.35,1.0,O=c1cccco1,le15
furan-3-carbaldehyde,321.45,1.0,O=Cc1ccoc1,le15
Furfural,333.0,1.0,O=Cc1ccco1,le15
"Benzene, fluoro-",258.15,1.0,Fc1ccccc1,le15
Methanesulphonic acid,462.15,1.0,CS(=O)(=O)O,le15
"2,4-Hexadienal, (2E,4E)-",341.15,1.0,C/C=C/C=C/C=O,le15
"Furan, 2,5-dimethyl-",271.45,1.0,Cc1ccc(C)o1,le15
2-methylcyclopent-2-en-1-one,326.25,1.0,CC1=CCCC1=O,le15
hex-5-yn-2-one,315.85,1.0,C#CCCC(C)=O,le15
3-methylcyclopent-2-en-1-one,326.25,1.0,CC1=CC(=O)CC1,le15
"Furan, 2-ethyl-",274.15,1.0,CCc1ccco1,le15
"2,4-dimethylfuran",273.95,1.0,Cc1coc(C)c1,le15
2-Cyclohexen-1-one,328.85,1.0,O=C1C=CCCC1,le15
cyclohex-3-en-1-one,319.95,1.0,O=C1CC=CCC1,le15
"3,5-dimethyl-1H-pyrazole",363.65,1.0,Cc1cc(C)[nH]n1,le15
"2,5-dimethyl-1H-imidazole",415.45,1.0,Cc1cnc(C)[nH]1,le15
"Acrylonitrile, 3-(dimethylamino)- (7CI,8CI)",405.05,1.0,CN(C)C=CC#N,le15
1-ethylimidazole,352.04999999999984,1.0,CCn1ccnc1,le15
"1,2-dimethylimidazole",365.15,1.0,Cc1nccn1C,le15
3-methylcyclohexene,270.15,1.0,CC1C=CCCC1,le15
hept-2-yne,281.15,1.0,CC#CCCCC,le15
1-methylcyclohexene,269.25,1.0,CC1=CCCCC1,le15
hept-1-yne,271.15,1.0,C#CCCCCC,le15
"2,4-dimethylpenta-1,3-diene",283.15,1.0,C=C(C)C=C(C)C,le15
methylidenecyclohexane,266.45,1.0,C=C1CCCCC1,le15
ethylidenecyclopentane,275.85,1.0,CC=C1CCCC1,le15
"hepta-1,2-diene",275.35,1.0,C=C=CCCCC,le15
hept-3-yne,278.45,1.0,CCC#CCCC,le15
1heptyne,271.0,1.0,C#CCCCCC,le15
1methylcyclohexene,270.0,1.0,CC1=CCCCC1,le15
Methylenecyclohexane,267.0,1.0,C=C1CCCCC1,le15
"Methane, chloro(methylthio)- (9CI)",290.35,1.0,CSCCl,le15
2-chloroethanethiol,304.0499999999999,1.0,SCCCl,le15
"1,1-Dichloroethene (9CI)",248.15,1.0,C=C(Cl)Cl,le15
"Ethene, 1,2-dichloro-, (E)- (9CI)",279.25,1.0,Cl/C=C/Cl,le15
"Ethylene, 1,2-dichloro-",279.25,1.0,ClC=CCl,le15
"1H-Pyrrole-2,5-dione",409.75,1.0,O=C1C=CC(=O)N1,le15
"Pyridine, 3-fluoro- (8CI)(9CI)",286.483,1.0,Fc1cccnc1,le15
"Pyridine, 2-fluoro-",301.483,1.0,Fc1ccccn1,le15
4-fluoropyridine,295.95,1.0,Fc1ccncc1,le15
"3,5-dimethyl-1,2-oxazole",304.25,1.0,Cc1cc(C)on1,le15
furan-2-ylmethanamine,319.85,1.0,NCc1ccco1,le15
"2,4-dimethyl-1,3-oxazole",307.65,1.0,Cc1coc(C)n1,le15
"2,5-dimethyl-1,3-oxazole",303.15,1.0,Cc1cnc(C)o1,le15
"2-Propen-1-amine, N-2-propenyl-",288.75,1.0,C=CCNCC=C,le15
"Pentanenitrile, 4-methyl-",318.75,1.0,CC(C)CCC#N,le15
"Phosphonofluoridic acid, methyl-",318.75,1.0,CP(=O)(O)F,le15
"furan-2,5-dione",376.45,1.0,O=C1C=CC(=O)O1,le15
Furfuryl alcohol,338.15,1.0,OCc1ccco1,le15
Methanesulphonyl fluoride,301.65,1.0,CS(=O)(=O)F,le15
"2(3H)-Furanone, 5-methyl-",341.15,1.0,CC1=CCC(=O)O1,le15
ethyl prop-2-ynoate,296.15,1.0,C#CC(=O)OCC,le15
"Acrylic acid, vinyl ester (6CI,7CI,8CI)",286.65,1.0,C=COC(=O)C=C,le15
Furan-3-methanol,311.45,1.0,OCc1ccoc1,le15
2-methoxyfuran,283.15,1.0,COc1ccco1,le15
Furfurylalcohol,338.0,1.0,OCc1ccco1,le15
"3,4-dimethyl-1,2,5-oxadiazole",308.65,1.0,Cc1nonc1C,le15
"Ethanimidic acid, N-cyano-, methyl ester",292.0499999999999,1.0,COC(C)=NC#N,le15
Cyclohexanone,317.15,1.0,O=C1CCCCC1,le15
3-Hexyn-2-ol,326.45,1.0,CCC#CC(C)O,le15
"2,4-Hexadien-1-ol",345.35,1.0,CC=CC=CCO,le15
"3-Penten-2-one, 4-methyl-",303.75,1.0,CC(=O)C=C(C)C,le15
7-Oxabicyclo(4.1.0)heptane,300.35,1.0,C1CCC2OC2C1,le15
"1-Propene, 3,3'-oxybis-",266.15,1.0,C=CCOCC=C,le15
"1-Pentyn-3-ol, 4-methyl-",315.0499999999999,1.0,C#CC(O)C(C)C,le15
Hex-2-yn-1-ol,340.95,1.0,CCCC#CCO,le15
3-Cyclohexen-1-ol,326.5499999999999,1.0,OC1CC=CCC1,le15
cyclopentanecarbaldehyde,309.15,1.0,O=CC1CCCC1,le15
"Hexa-1,5-dien-3-ol",302.5499999999999,1.0,C=CCC(O)C=C,le15
3-Hexyn-1-ol,336.45,1.0,CCC#CCCO,le15
2-methylcyclopentan-1-one,305.85,1.0,CC1CCCC1=O,le15
(E)-hex-4-en-3-one,307.5499999999999,1.0,C/C=C/C(=O)CC,le15
"2-Hexenal, (2E)-",308.15,1.0,CCC/C=C/C=O,le15
"3-Hexenal, (3Z)-",333.15,1.0,CC/C=C\CC=O,le15
"4-methyl-3,6-dihydro-2H-pyran",287.45,1.0,CC1=CCOCC1,le15
"1-Pentyn-3-ol, 3-methyl-",302.15,1.0,C#CC(C)(O)CC,le15
5-Hexen-2-one,297.0499999999999,1.0,C=CCCC(C)=O,le15
5-Hexyn-1-ol,343.15,1.0,C#CCCCCO,le15
"Pentanal, 2-methylene- (9CI)",302.25,1.0,C=C(C=O)CCC,le15
1-cyclobutylethanone,305.45,1.0,CC(=O)C1CCC1,le15
CyclohexeneOxide,297.0,1.0,C1CCC2OC2C1,le15
Mesityloxide,305.0,1.0,Cc1cc(C)c(Oc2c(C)cc(C)cc2C)c(C)c1,le15
"Propanenitrile, 3-(dimethylamino)-",335.15,1.0,CN(C)CCC#N,le15
"Butanenitrile, 2-amino-2-methyl-",343.85,1.0,CCC(C)(N)C#N,le15
Diethylcyanamide,342.0,1.0,CCN(C#N)CC,le15
2methylthiophene,280.0,1.0,Cc1cccs1,le15
cycloheptane,279.25,1.0,C1CCCCCC1,le15
3-ethylpent-2-ene,309.15,1.0,CC=C(CC)CC,le15
ethylcyclopentane,288.75,1.0,CCC1CCCC1,le15
1heptene,265.0,1.0,C=CCCCCC,le15
2methyl1hexene,267.0,1.0,C=C(C)CCCC,le15
Cycloheptane,279.0,1.0,C1CCCCCC1,le15
Ethylcyclopentane,288.0,1.0,CCC1CCCC1,le15
"2,2,2-trifluoroethanamine",257.15,1.0,NCC(F)(F)F,le15
methyl 2-cyanoacetate,315.85,1.0,COC(=O)CC#N,le15
"2,5-Pyrrolidinedione",433.15,1.0,O=C1CCC(=O)N1,le15
ethyl cyanoformate,297.5499999999999,1.0,CCOC(=O)C#N,le15
5-methylpyrrolidin-2-one,400.65,1.0,CC1CCC(=O)N1,le15
"Isocyanic acid, butyl ester",290.95,1.0,CCCCN=C=O,le15
piperidin-2-one,406.25,1.0,O=C1CCCCN1,le15
1-isocyanato-2-methylpropane,290.25,1.0,CC(C)CN=C=O,le15
"Propionitrile, 3-ethoxy- (8CI)",337.0499999999999,1.0,CCOCCC#N,le15
"Acetamide, N-ethenyl-N-methyl-",336.0499999999999,1.0,C=CN(C)C(C)=O,le15
"Crotonamide, 3-methyl-",364.35,1.0,CC(C)=CC(N)=O,le15
"2-Pyrrolidinone, 1-methyl-",364.15,1.0,CN1CCCC1=O,le15
"2-Propenamide, N,N-dimethyl-",344.85,1.0,C=CC(=O)N(C)C,le15
1methyl2pyrrolidinone,359.0,1.0,CN1CCCC1=O,le15
2ethyloxazoline,302.0,1.0,CCC1=NCCO1,le15
"Isothiocyanic acid, allyl ester",309.45,1.0,C=CCN=C=S,le15
"2-methyl-1,3-thiazole",302.0499999999999,1.0,Cc1nccs1,le15
"4-methyl-1,3-thiazole",305.15,1.0,Cc1cscn1,le15
2-methylpiperidine,289.15,1.0,CC1CCCCN1,le15
"1H-Azepine, hexahydro-",291.15,1.0,C1CCCNCC1,le15
4-methylpiperidine,280.35,1.0,CC1CCNCC1,le15
"Piperidine, 1-methyl-",276.45,1.0,CN1CCCCC1,le15
1-ethylpyrrolidine,274.75,1.0,CCN1CCCC1,le15
"Allylamine, N-ethyl-2-methyl- (6CI,8CI)",280.35,1.0,C=C(C)CNCC,le15
"Cyclopentylamine, 1-methyl- (6CI)",282.35,1.0,CC1(N)CCCC1,le15
Cyclohexylamine,300.0,1.0,NC1CCCCC1,le15
"Ethanol, 2,2,2-trifluoro-",302.5499999999999,1.0,OCC(F)(F)F,le15
"2-Propenoic acid, 2-methyl-, methyl ester",283.15,1.0,C=C(C)C(=O)OC,le15
"1-Propen-2-ol, acetate",286.0499999999999,1.0,C=C(C)OC(C)=O,le15
"2(3H)-Furanone, dihydro-5-methyl-",348.13,1.0,CC1CCC(=O)O1,le15
Glutaraldehyde,339.15,1.0,O=CCCCC=O,le15
"2,4-Pentanedione",316.25,1.0,CC(=O)CC(C)=O,le15
"2-Propenoic acid, ethyl ester",288.706,1.0,C=CC(=O)OCC,le15
"2-Butenoic acid, 3-methyl-",369.15,1.0,CC(C)=CC(=O)O,le15
(Z)-2-methylbut-2-enoic acid,369.05,1.0,C/C=C(/C)C(=O)O,le15
4-Pentenoic acid,362.15,1.0,C=CCCC(=O)O,le15
"Acetic acid, 2-propenyl ester",279.85,1.0,C=CCOC(C)=O,le15
"2,3-Pentanedione",292.85,1.0,CCC(=O)C(C)=O,le15
"2-Butenoic acid, methyl ester, (2E)-",277.15,1.0,C/C=C/C(=O)OC,le15
alpha-Methyl-gamma-butyrolactone,348.15,1.0,CC1CCOC1=O,le15
cyclobutanecarboxylic acid,356.15,1.0,O=C(O)C1CCC1,le15
"2-Vinyl-1,3-dioxolane",294.15,1.0,C=CC1OCCO1,le15
2-methylcyclopropane-1-carboxylic acid,360.95,1.0,CC1CC1C(=O)O,le15
oxan-2-one,354.15,1.0,O=C1CCCCO1,le15
methyl cyclopropanecarboxylate,290.15,1.0,COC(=O)C1CC1,le15
oxan-4-one,336.75,1.0,O=C1CCOCC1,le15
Allylacetate,279.0,1.0,C=CCCC(=O)[O-],le15
gammaValerolactone,354.0,1.0,CC1CCC(=O)O1,le15
MethylCyclopropanecarboxylate,290.0,1.0,COC(=O)C1CC1,le15
MethylMethacrylate,283.0,1.0,C=C(C)C(=O)OC,le15
"Urea, N-2-propen-1-yl-",328.45,1.0,C=CCNC(N)=O,le15
"Pyrrolidine, 1-nitroso-",356.45,1.0,O=NN1CCCC1,le15
"2-Propen-1-amine, N-methyl-N-nitroso- (9CI)",338.95,1.0,C=CCN(C)N=O,le15
"2-Butanone, 3,3-dimethyl-",297.0499999999999,1.0,CC(=O)C(C)(C)C,le15
"2-Pentanone, 4-methyl-",286.45,1.0,CC(=O)CC(C)C,le15
Cyclohexanol,340.92800000000005,1.0,OC1CCCCC1,le15
"Valeraldehyde, 2-methyl- (8CI)",289.85,1.0,CCCC(C)C=O,le15
(E)-hex-3-en-1-ol,317.5499999999999,1.0,CC/C=C/CCO,le15
3-methylpentan-2-one,285.15,1.0,CCC(C)C(C)=O,le15
2-methylpentan-3-one,283.95,1.0,CCC(=O)C(C)C,le15
3-Hexanone,296.15,1.0,CCCC(=O)CC,le15
2-Hexanone,296.15,1.0,CCCCC(C)=O,le15
oxepane,287.35,1.0,C1CCCOCC1,le15
Hex-5-en-1-ol,320.35,1.0,C=CCCCCO,le15
"1-Penten-3-ol, 3-methyl-",299.15,1.0,C=CC(C)(O)CC,le15
"4-Hexen-1-ol, (4E)-",334.25,1.0,C/C=C/CCCO,le15
(Z)-hex-2-en-1-ol,334.85,1.0,CCC/C=C\CO,le15
"3-Hexen-1-ol, (3Z)-",317.15,1.0,CC/C=C\CCO,le15
"3-Hexen-1-ol, (3E)-",317.5499999999999,1.0,CC/C=C/CCO,le15
"Valeraldehyde, 4-methyl-",290.95,1.0,CC(C)CCC=O,le15
"Furan, tetrahydrodimethyl-",277.65,1.0,CC1(C)CCCO1,le15
"Oxirane, butyl- (9CI)",294.95,1.0,CCCCC1CO1,le15
"2-Penten-1-ol, 2-methyl-",333.95,1.0,CCC=C(C)CO,le15
"3,3-Dimethylbutyraldehyde",283.75,1.0,CC(C)(C)CC=O,le15
cyclopentylmethanol,335.35,1.0,OCC1CCCC1,le15
1-Hexen-3-ol,308.15,1.0,C=CC(O)CCC,le15
3-methylpentanal,290.95,1.0,CCC(C)CC=O,le15
3-methylcyclopentan-1-ol,328.15,1.0,CC1CCC(O)C1,le15
"(1R,2S)-2-methylcyclopentan-1-ol",320.35,1.0,C[C@H]1CCC[C@H]1O,le15
2-methylpent-3-en-2-ol,297.35,1.0,CC=CC(C)(C)O,le15
Hexaldehyde,305.15,1.0,CCCCCC=O,le15
"Butyraldehyde, 2-ethyl-",294.25,1.0,CCC(C=O)CC,le15
"2-Hexen-1-ol, (2E)-",327.15,1.0,CCC/C=C/CO,le15
"Oxirane, 3-ethyl-2,2-dimethyl-",277.45,1.0,CCC1OC1(C)C,le15
1-methylcyclopentan-1-ol,313.75,1.0,CC1(O)CCCC1,le15
2ethylbutanal,294.0,1.0,CCC(C=O)CC,le15
2methyl3pentanone,286.0,1.0,CCC(=O)C(C)C,le15
3hexanone,287.0,1.0,CCCC(=O)CC,le15
3methyl2pentanone,285.0,1.0,CCC(C)C(C)=O,le15
5hexen1ol,320.0,1.0,C=CCCCCO,le15
Butylvinylether,264.0,1.0,C=COCCCC,le15
Hexanal,305.0,1.0,CCCCCC=O,le15
MethylIsobutylKetone,287.0,1.0,CC(=O)CC(C)C,le15
Pinacolone,278.0,1.0,CC(=O)C(C)(C)C,le15
"Piperazine, 1-methyl-",315.35,1.0,CN1CCNCC1,le15
"1H-1,4-Diazepine, hexahydro-",337.5499999999999,1.0,C1CNCCNC1,le15
piperidin-1-amine,309.25,1.0,NN1CCCCC1,le15
"1,2-Diethyldiaziridine",275.75,1.0,CCN1CN1CC,le15
"Piperazine, 2-methyl-",318.25,1.0,CC1CNCCN1,le15
"2,4-dimethylpentane",260.95,1.0,CC(C)CC(C)C,le15
Heptane,272.04999999999995,1.0,CCCCCCC,le15
2methylhexane,270.0,1.0,CCCCC(C)C,le15
3methylhexane,270.0,1.0,CCCC(C)CC,le15
"2,3-Butanedione, monooxime",458.65,1.0,CC(=O)C(C)=NO,le15
N-acetylacetamide,374.95,1.0,CC(=O)NC(C)=O,le15
"2-Propenamide, N-(hydroxymethyl)-",419.35,1.0,C=CC(=O)NCO,le15
"1,3,4-Thiadiazole, 2-amino-",371.45,1.0,Nc1nncs1,le15
3-methylbutanamide,367.25,1.0,CC(C)CC(N)=O,le15
"Formamide, N,N-diethyl-",333.15,1.0,CCN(C=O)CC,le15
(NZ)-N-pentan-2-ylidenehydroxylamine,351.15,1.0,CCC/C(C)=N\O,le15
pentanamide,367.45,1.0,CCCCC(N)=O,le15
"N,N-dimethylpropanamide",338.95,1.0,CCC(=O)N(C)C,le15
N-tert-butylformamide,368.85,1.0,CC(C)(C)NC=O,le15
"Propane, 1-isothiocyanato-",258.15,1.0,CCCN=C=S,le15
"2-methyl-4,5-dihydro-1,3-thiazole",310.35,1.0,CC1=NCCS1,le15
4-methylpentan-2-amine,285.15,1.0,CC(C)CC(C)N,le15
1-Hexanamine,300.15,1.0,CCCCCCN,le15
"N,N-dimethylbutan-1-amine",278.15,1.0,CCCCN(C)C,le15
Isohexylamine,298.85,1.0,CC(C)CCCN,le15
N-propan-2-ylpropan-1-amine,274.25,1.0,CCCNC(C)C,le15
"2-Propanamine, N-(1-methylethyl)-",266.15,1.0,CC(C)NC(C)C,le15
"1-Propanamine, N-propyl-",276.15,1.0,CCCNCCC,le15
"3,3-dimethylbutan-1-amine",274.25,1.0,CC(C)(C)CCN,le15
"1-Butanamine, N-ethyl-",291.15,1.0,CCCCNCC,le15
"3,3-Dimethylbutylamine",278.75,1.0,CC(C)(C)CCN,le15
3-oxobutanoic acid,384.95,1.0,CC(=O)CC(=O)O,le15
methyl 2-oxopropanoate,312.15,1.0,COC(=O)C(C)=O,le15
Aceticanhydride,322.0,1.0,CC(=O)OC(C)=O,le15
"Propanoic acid, 2,2-dimethyl-",341.45,1.0,CC(C)(C)C(=O)O,le15
"Propanoic acid, ethyl ester",285.35,1.0,CCOC(=O)CC,le15
"Acetic acid, 1-methylethyl ester",289.85,1.0,CC(=O)OC(C)C,le15
"Acetic acid, propyl ester",285.95,1.0,CCCOC(C)=O,le15
"Ethanol, 2-(2-propenyloxy)-",328.15,1.0,C=CCOCCO,le15
3-hydroxy-3-methylbutan-2-one,315.35,1.0,CC(=O)C(C)(C)O,le15
"Butyric acid, 2-methyl- (6CI,8CI)",346.54999999999984,1.0,CCC(C)C(=O)O,le15
"Butanoic acid, 3-methyl-",346.54999999999984,1.0,CC(C)CC(=O)O,le15
"Formic acid, 2-methylpropyl ester",283.15,1.0,CC(C)COC=O,le15
"Propanoic acid, 2-methyl-, methyl ester",277.54999999999995,1.0,COC(=O)C(C)C,le15
"Hydracrylaldehyde, 2,2-dimethyl- (6CI,7CI,8CI)",333.45,1.0,CC(C)(C=O)CO,le15
"2-Pentanone, 5-hydroxy- (8CI)(9CI)",366.15,1.0,CC(=O)CCCO,le15
"Ethene, (2-methoxyethoxy)- (9CI)",282.45,1.0,C=COCCOC,le15
"2,2-dimethyl-1,3-dioxolane",274.85,1.0,CC1(C)OCCO1,le15
"Butanal, 3-methoxy- (9CI)",299.35,1.0,COC(C)CC=O,le15
"3,3-dimethoxyprop-1-ene",270.35,1.0,C=CC(OC)OC,le15
"Furfuryl alcohol, tetrahydro- (8CI)",347.15,1.0,OCC1CCCO1,le15
"Formic acid, sec-butyl ester (8CI)",276.65,1.0,CCC(C)OC=O,le15
"4-methyl-1,3-dioxane",295.35,1.0,CC1CCOCO1,le15
2-(ethoxymethyl)oxirane,296.65,1.0,CCOCC1CO1,le15
2methylbutyricacid,350.0,1.0,CCC(C)C(=O)O,le15
3methylbutanoicacid,347.0,1.0,CC(C)CC(=O)O,le15
MethylIsobutyrate,276.0,1.0,COC(=O)C(C)C,le15
PivalicAcid,337.0,1.0,CC(C)(C)C(=O)O,le15
tertButylFormate,264.0,1.0,CC(C)(C)OC=O,le15
"Ethanamine, N-ethyl-N-nitroso-",332.15,1.0,CCN(CC)N=O,le15
"1,1,3-trimethylurea",367.55,1.0,CNC(=O)N(C)C,le15
Butyrohydrazide,378.05,1.0,CCCC(=O)NN,le15
morpholin-4-amine,331.15,1.0,NN1CCOCC1,le15
fluorocyclohexane,282.0499999999999,1.0,FC1CCCCC1,le15
Fluorocyclohexane,278.0,1.0,FC1CCCCC1,le15
2-Imidazolidinethione,316.65,1.0,S=C1NCCN1,le15
Hexyl alcohol,333.15,1.0,CCCCCCO,le15
"Propane, 1,1'-oxybis-",253.15,1.0,CCCOCCC,le15
"2-Butanol, 3,3-dimethyl-",302.0499999999999,1.0,CC(O)C(C)(C)C,le15
2-methylpentan-2-ol,294.25,1.0,CCCC(C)(C)O,le15
hexan-3-ol,314.817,1.0,CCCC(O)CC,le15
"1-Butanol, 3,3-dimethyl-",320.95,1.0,CC(C)(C)CCO,le15
"1-Pentanol, 4-methyl- (9CI)",324.85,1.0,CC(C)CCCO,le15
hexan-2-ol,314.15,1.0,CCCCC(C)O,le15
"Ether, butyl ethyl",272.15,1.0,CCCCOCC,le15
"Propane, 2-ethoxy-2-methyl-",254.15,1.0,CCOC(C)(C)C,le15
"1-Butanol, 2,2-dimethyl-",310.5499999999999,1.0,CCC(C)(C)CO,le15
"Pentanol, 4-methyl-",324.85,1.0,CC(C)CCCO,le15
"2,3-dimethylbutan-2-ol",302.5499999999999,1.0,CC(C)C(C)(C)O,le15
1ethoxybutane,268.0,1.0,CCCCOCC,le15
2ethoxy2methylpropane,254.0,1.0,CCOC(C)(C)C,le15
2ethyl1butanol,330.0,1.0,CCC(CC)CO,le15
2methyl1pentanol,323.0,1.0,CCCC(C)CO,le15
2methyl3pentanol,319.0,1.0,CCC(O)C(C)C,le15
3methyl1pentanol,331.0,1.0,CCC(C)CCO,le15
3methyl2pentanol,313.0,1.0,CCC(C)C(C)O,le15
4methyl1pentanol,324.0,1.0,CC(C)CCCO,le15
4methyl2pentanol,314.0,1.0,CC(C)CC(C)O,le15
DiisopropylEther,245.0,1.0,CC(C)OC(C)C,le15
methyltertpentylether,262.0,1.0,CCC(C)(C)OC,le15
"N,N',N'-trimethylethane-1,2-diamine",282.5499999999999,1.0,CNCCN(C)C,le15
thiane,294.25,1.0,C1CCSCC1,le15
2-methylthiolane,301.25,1.0,CC1CCCS1,le15
3-methylthiolane,301.25,1.0,CC1CCSC1,le15
Cyclopentanethiol,298.0,1.0,SC1CCCC1,le15
"Cyclopentene, 3-chloro-",281.85,1.0,ClC1C=CCC1,le15
3-chloro-3-methylbut-1-yne,277.54999999999995,1.0,C#CC(C)(C)Cl,le15
5chloro1pentyne,288.0,1.0,C#CCCCCl,le15
"Urea, 1-methyl-1-nitroso- (8CI)",326.25,1.0,CN(N=O)C(N)=O,le15
"Carbamic acid, N-methyl-, ethyl ester",330.95,1.0,CCOC(=O)NC,le15
"Acetamide, N-(2-hydroxyethyl)-",449.85,1.0,CC(=O)NCCO,le15
"Nitrous acid, butyl ester",261.15,1.0,CCCCON=O,le15
"Propane, 2-methyl-2-nitro-",292.15,1.0,CC(C)(C)[N+](=O)[O-],le15
2-methyl-1-nitropropane,311.35,1.0,CC(C)C[N+](=O)[O-],le15
"Glycine, N,N-dimethyl-",332.95,1.0,CN(C)CC(=O)O,le15
propan-2-yl carbamate,363.25,1.0,CC(C)OC(N)=O,le15
"Nitrous acid, 2-methylpropyl ester",252.15,1.0,CC(C)CON=O,le15
tertButylNitrite,250.0,1.0,CC(C)(C)ON=O,le15
"2-Propanol, 1-(dimethylamino)-",308.15,1.0,CC(O)CN(C)C,le15
2-(propan-2-ylamino)ethanol,343.45,1.0,CC(C)NCCO,le15
5-Aminopentan-1-ol,338.75,1.0,NCCCCCO,le15
"1-Pentanol, 2-amino-",368.15,1.0,CCCC(N)CO,le15
"1-Propanamine, 3-ethoxy-",305.95,1.0,CCOCCCN,le15
2-(dimethylamino)propan-1-ol,305.25,1.0,CC(CO)N(C)C,le15
"Ethanol, 2-(propylamino)-",351.45,1.0,CCCNCCO,le15
"1-Propanol, 3-(dimethylamino)-",309.25,1.0,CN(C)CCCO,le15
"1,2-Ethanediamine, N-(2-aminoethyl)-",367.594,1.0,NCCNCCN,le15
"Ethanamine, 2-hydrazino-N,N-dimethyl-",339.0499999999999,1.0,CN(C)CCNN,le15
thiomorpholine,333.15,1.0,C1CSCCN1,le15
"Butanenitrile, 4-chloro-",358.15,1.0,N#CCCCCl,le15
Propanedioic acid,475.05,1.0,O=C(O)CC(=O)O,le15
"Guanidine, 1-nitro-",422.45,1.0,N=C(N)N[N+](=O)[O-],le15
4-Pyridinecarbonitrile,355.85,1.0,N#Cc1ccncc1,le15
3-Pyridinecarbonitrile,357.594,1.0,N#Cc1cccnc1,le15
Picolinonitrile (8CI),362.55,1.0,N#Cc1ccccn1,le15
"Ethylene glycol, monoacetate",350.54999999999984,1.0,CC(=O)OCCO,le15
methyl 2-hydroxypropanoate,322.15,1.0,COC(=O)C(C)O,le15
"Acetic acid, 2-ethoxy-",366.25,1.0,CCOCC(=O)O,le15
methyl 3-hydroxypropanoate,345.75,1.0,COC(=O)CCO,le15
methyl 2-methoxyacetate,308.15,1.0,COCC(=O)OC,le15
ethyl 2-hydroxyacetate,334.85,1.0,CCOC(=O)CO,le15
"Benzene, ethenyl-",304.255,1.0,C=Cc1ccccc1,le15
"Ethanol, 2-(1-methylethoxy)-",316.15,1.0,CC(C)OCCO,le15
"1-Propanol, 3-ethoxy-",327.5499999999999,1.0,CCOCCCO,le15
3-Hydroxy-3-methylbutan-1-ol,364.45,1.0,CC(C)(O)CCO,le15
2-(Propyloxy)ethanol,324.35,1.0,CCCOCCO,le15
"1,2-dimethoxypropane",273.75,1.0,COCC(C)OC,le15
"1-Propanol, 2-ethoxy-",319.0499999999999,1.0,CCOC(C)CO,le15
"1-Butanol, 3-methoxy-",319.85,1.0,COC(C)CCO,le15
"Hydroperoxide, 1,1-dimethylpropyl",314.35,1.0,CCC(C)(C)OO,le15
"Pentane-1,2-diol",377.15,1.0,CCCC(O)CO,le15
"2-methylbutane-2,3-diol",343.35,1.0,CC(O)C(C)(C)O,le15
2isopropoxyethanol,316.0,1.0,CC(C)OCCO,le15
"Ethanol, 2-((2-aminoethyl)amino)-",363.65,1.0,NCCNCCO,le15
2-(2-aminoethoxy)ethanamine,347.95,1.0,NCCOCCN,le15
"Hexane, 1-fluoro-",300.35,1.0,CCCCCCF,le15
S-ethyl ethanethioate,291.45,1.0,CCSC(C)=O,le15
thiolane 1-oxide,389.65,1.0,O=S1CCCC1,le15
"Propionaldehyde, 3-(methylthio)-",334.25,1.0,CSCCC=O,le15
"1,4-Oxathiane",328.75,1.0,C1CSCCO1,le15
4thiapentanal,331.0,1.0,CSCCC=O,le15
"Urea, 1,3-dimethyl-2-thio-",473.15,1.0,CNC(=S)NC,le15
2-methylbutane-1-thiol,292.5499999999999,1.0,CCC(C)CS,le15
1-ethylsulfanylpropane,292.0499999999999,1.0,CCCSCC,le15
3-methylbutane-1-thiol,291.45,1.0,CC(C)CCS,le15
1-methylsulfanylbutane,293.75,1.0,CCCCSC,le15
"2-Butanethiol, 2-methyl-",272.15,1.0,CCC(C)(C)S,le15
2methyl1butanethiol,292.0,1.0,CCC(C)CS,le15
2pentanethiol,282.0,1.0,CCCC(C)S,le15
3methyl2butanethiol,292.0,1.0,CC(C)C(C)S,le15