smiles,compound,flashpoint,source,pure substance
C(=CCl)Cl,"(Z)-1,2-dichloroethene",277.15,pubchem,1
CC(=CCCl)Cl,"(E)-1,3-dichlorobut-2-ene",300.15,pubchem,1
CC1(C2CCC1(C(C2)O)C)C,"(1R,4R)-1,7,7-trimethylbicyclo[2.2.1]heptan-2-ol",339.15,pubchem,1
C1=CC=C2C(=C1)NC(=S)S2,"3H-1,3-benzothiazole-2-thione",473.15,pubchem,1
CC=CC1=CC(=C(C=C1)O)OC,2-methoxy-4-[(E)-prop-1-enyl]phenol,386.15,pubchem,1
CC1(C2CCC1(C(C2)O)C)C,"(1S,2R,4S)-1,7,7-trimethylbicyclo[2.2.1]heptan-2-ol",339.15,pubchem,1
CC1CC(=O)C=C2C1(CC(CC2)C(=C)C)C,"(4R,4aS,6R)-4,4a-dimethyl-6-prop-1-en-2-yl-3,4,5,6,7,8-hexahydronaphthalen-2-one",373.15,pubchem,1
CC(C)C=CCCCCC(=O)NCC1=CC(=C(C=C1)O)OC,(E)-N-[(4-hydroxy-3-methoxyphenyl)methyl]-8-methylnon-6-enamide,386.15,pubchem,1
CCC=CCC1=C(CCC1=O)C,3-methyl-2-[(Z)-pent-2-enyl]cyclopent-2-en-1-one,380.15,pubchem,1
CCC=CCC1=C(CCC1=O)C,3-methyl-2-[(E)-pent-2-enyl]cyclopent-2-en-1-one,380.15,pubchem,1
CC=CC=CC(=O)O,"(2Z,4E)-hexa-2,4-dienoic acid",400.15,pubchem,1
CC=CC=CC(=O)[O-],"(2E,4E)-hexa-2,4-dienoate",400.15,pubchem,1
CC1=CC=C(C=C1)S(=O)(=O)NC(CCCN=C(N)N)C(=O)OC,methyl (2S)-5-(diaminomethylideneamino)-2-[(4-methylphenyl)sulfonylamino]pentanoate,262.15,pubchem,1
CC1CCC(C(C1)O)C(C)C,"(1S,2S,5S)-5-methyl-2-propan-2-ylcyclohexan-1-ol",364.15,pubchem,1
C1CNC(=S)N1,imidazolidine-2-thione,525.15,pubchem,1
C(=O)C(=C(C(=O)O)Cl)Cl,"(E)-2,3-dichloro-4-oxobut-2-enoic acid",373.15,pubchem,1
C(CP(CCC(=O)O)CCC(=O)O)C(=O)O.Cl,3-[bis(2-carboxyethyl)phosphanyl]propanoic acid;hydrochloride,475.15,pubchem,1
C(=O)C(=C(C(=O)O)Cl)Cl,"(Z)-2,3-dichloro-4-oxobut-2-enoic acid",373.15,pubchem,1
CC12CCCCC1C(=O)OC2=O,"7a-methyl-4,5,6,7-tetrahydro-3aH-2-benzofuran-1,3-dione",623.15,pubchem,1
C(CNC(=S)[S-])NC(=S)[S-].[Mn+2],manganese(2+);N-[2-(sulfidocarbothioylamino)ethyl]carbamodithioate,411.15,pubchem,1
C1=CC=C2C(=C1)C=CC(=C2N=C=O)N=C=O,"1,2-diisocyanatonaphthalene",465.15,pubchem,1
CCCCCCCCCCCCCCCCCC(=O)[O-].[OH-].[Cl-].[Cl-].[Cl-].[Cl-].[Cr+3].[Cr+3],chromium(3+);octadecanoate;tetrachloride;hydroxide,275.15,pubchem,1
C(CNC(=S)[S-])NC(=S)[S-].C(CNC(=S)[S-])NC(=S)[S-].[Mn+2].[Zn+2],zinc;manganese(2+);N-[2-(sulfidocarbothioylamino)ethyl]carbamodithioate,411.15,pubchem,1
CCC(OCCCOC)OC(=O)C,1-(3-methoxypropoxy)propyl acetate,359.15,pubchem,1
CC1(C2CCC1(C(C2)OC(=O)CSC#N)C)C,"[(1S,2S,4S)-1,7,7-trimethyl-2-bicyclo[2.2.1]heptanyl] 2-thiocyanatoacetate",355.15,pubchem,1
CC1=CC=C(C=C1)S(=O)(=O)[N-]Cl.[Na+],sodium;chloro-(4-methylphenyl)sulfonylazanide,465.15,pubchem,1
CCC(C)(OO)OOC(C)(CC)OO,2-hydroperoxy-2-(2-hydroperoxybutan-2-ylperoxy)butane,355.15,pubchem,1
CCCCCCCCCCCCCCCCCC(=[OH+])O.O.Cl[Cr]Cl.Cl[Cr]Cl,dichlorochromium;1-hydroxyoctadecylideneoxidanium;hydrate,275.15,pubchem,1
CC1C(SC(=O)N1C(=O)NC2CCCCC2)C3=CC=C(C=C3)Cl,"5-(4-chlorophenyl)-N-cyclohexyl-4-methyl-2-oxo-1,3-thiazolidine-3-carboxamide",373.15,pubchem,1
C1=CC(=C(C=C1[Si](Cl)(Cl)Cl)Cl)Cl,"trichloro-(3,4-dichlorophenyl)silane",414.15,pubchem,1
COC(=O)[O-],methyl carbonate,291.15,pubchem,1
C1=C(C=C(C(=C1[N+](=O)[O-])O)N)[N+](=O)[O-],"2-amino-4,6-dinitrophenol",483.15,pubchem,1
C(C(=O)[O-])S,2-sulfanylacetate,403.15,pubchem,1
C1=CC=C(C=C1)C=CCO,(Z)-3-phenylprop-2-en-1-ol,399.15,pubchem,1
C1=CC=C(C=C1)C=CCOC2C(C(C(C(O2)CO)O)O)O,"(2R,3S,4S,5R,6R)-2-(hydroxymethyl)-6-[(E)-3-phenylprop-2-enoxy]oxane-3,4,5-triol",460.15,pubchem,1
CCC=CCCO,(Z)-hex-3-en-1-ol,403.15,pubchem,1
CC1=CCCC(=C)C2CC(C2CC1)(C)C,"(1R,4E,9S)-4,11,11-trimethyl-8-methylidenebicyclo[7.2.0]undec-4-ene",374.15,pubchem,1
CC1=CCCC(=C)C2CC(C2CC1)(C)C,"(1R,4Z,9S)-4,11,11-trimethyl-8-methylidenebicyclo[7.2.0]undec-4-ene",374.15,pubchem,1
CC1=C(C=CC=C1COC(=O)C2C(C2(C)C)C=C(C(F)(F)F)Cl)C3=CC=CC=C3,"(2-methyl-3-phenylphenyl)methyl 3-[(Z)-2-chloro-3,3,3-trifluoroprop-1-enyl]-2,2-dimethylcyclopropane-1-carboxylate",438.15,pubchem,1
CC1=CCCC(C1C=CC(=O)C)(C)C,"(E)-4-(2,6,6-trimethylcyclohex-2-en-1-yl)but-3-en-2-one",391.15,pubchem,1
CN1CCC23C4C1CC5=C2C(=C(C=C5)OC)OC3C(C=C4)O,"(4R,4aR,7S,7aR,12bS)-9-methoxy-3-methyl-2,4,4a,7,7a,13-hexahydro-1H-4,12-methanobenzofuro[3,2-e]isoquinolin-7-ol",348.15,pubchem,1
CC(C)N(C(C)C)C(=O)SCC(=CCl)Cl,"S-[(Z)-2,3-dichloroprop-2-enyl] N,N-di(propan-2-yl)carbamothioate",369.15,pubchem,1
C=C1C(C2(C(C(C1(C2(Cl)Cl)Cl)Cl)Cl)Cl)(CCl)CCl,"1,4,5,6,7,7-hexachloro-2,2-bis(chloromethyl)-3-methylidenebicyclo[2.2.1]heptane",302.15,pubchem,1
C(CNC(=S)[S-])NC(=S)[S-].[Zn+2],zinc;N-[2-(sulfidocarbothioylamino)ethyl]carbamodithioate,363.15,pubchem,1
CN1CCC23C4C1CC5=C2C(=C(C=C5)OC)OC3C(=O)CC4,"(4R,4aR,7aR,12bS)-9-methoxy-3-methyl-1,2,4,4a,5,6,7a,13-octahydro-4,12-methanobenzofuro[3,2-e]isoquinolin-7-one",282.15,pubchem,1
CC=CC,(Z)-but-2-ene,262.15,pubchem,1
C1=CC=C(C=C1)C=CBr,[(E)-2-bromoethenyl]benzene,352.15,pubchem,1
C1=CC=C(C=C1)C=CCO,(E)-3-phenylprop-2-en-1-ol,399.15,pubchem,1
CC1=CCCC(=C)C2CC(C2CC1)(C)C,"(4Z)-4,11,11-trimethyl-8-methylidenebicyclo[7.2.0]undec-4-ene",374.15,pubchem,1
CCC(=NO)C,(NE)-N-butan-2-ylidenehydroxylamine,332.15,pubchem,1
CCC(=NO)C,(NZ)-N-butan-2-ylidenehydroxylamine,332.15,pubchem,1
CCCC=NO,(NZ)-N-butylidenehydroxylamine,331.15,pubchem,1
CCCC=NO,(NE)-N-butylidenehydroxylamine,331.15,pubchem,1
CC=CCC#N,(E)-pent-3-enenitrile,311.15,pubchem,1
CN(C)C(=O)N=NC(=O)N(C)C,"(3E)-3-(dimethylcarbamoylimino)-1,1-dimethylurea",313.15,pubchem,1
CCCC=C(CC)C=O,(E)-2-ethylhex-2-enal,341.15,pubchem,1
CCCCCCCCC=CCCCCCCCC(=O)OCCCC,butyl (Z)-octadec-9-enoate,453.15,pubchem,1
CC1=CCCC(=C)C2CC(C2CC1)(C)C,"(4E)-4,11,11-trimethyl-8-methylidenebicyclo[7.2.0]undec-4-ene",374.15,pubchem,1
CC(=CC1=CC=CC=C1)C=O,(Z)-2-methyl-3-phenylprop-2-enal,352.15,pubchem,1
CC(=CC(=O)OC)OP(=O)(OC)OC,methyl (E)-3-dimethoxyphosphoryloxybut-2-enoate,352.15,pubchem,1
C1CC=CCCC=CCCC=C1,"(1Z,5E,9Z)-cyclododeca-1,5,9-triene",344.15,pubchem,1
[Tl],thallium,489.15,pubchem,1
[S],sulfur,480.15,pubchem,1
CCCCCCCCCC=CCC1CC(=O)OC1=O,"3-[(E)-dodec-2-enyl]oxolane-2,5-dione",451.15,pubchem,1
CC(=O)OCN=[N+](C)[O-],(Z)-acetyloxymethylimino-methyl-oxidoazanium,372.15,pubchem,1
CCC=CC#N,(E)-pent-2-enenitrile,296.15,pubchem,1
C1CC=CCCC=CCCC=C1,"(1Z,5Z,9Z)-cyclododeca-1,5,9-triene",344.15,pubchem,1
CCCCCCC=CC,(E)-non-2-ene,299.15,pubchem,1
CCCCC(CC)COC(=O)C=CC(=O)OCC(CC)CCCC,bis(2-ethylhexyl) (Z)-but-2-enedioate,458.15,pubchem,1
CC=C1CC2CC1C=C2,(5E)-5-ethylidenebicyclo[2.2.1]hept-2-ene,299.15,pubchem,1
CC=CCC=C,"(4E)-hexa-1,4-diene",252.15,pubchem,1
CC(C)OC(=O)C=C(C)C=CCC(C)CCCC(C)(C)OC,"propan-2-yl (2E,4E)-11-methoxy-3,7,11-trimethyldodeca-2,4-dienoate",460.15,pubchem,1
C(C(=CCl)Cl)Cl,"(Z)-1,2,3-trichloroprop-1-ene",358.15,pubchem,1
CC(=CC1=CC=CC=C1)C=O,(E)-2-methyl-3-phenylprop-2-enal,352.15,pubchem,1
[Mg],magnesium,773.15,pubchem,1
C(=O)(N)N=NC(=O)N,(E)-carbamoyliminourea,369.15,pubchem,1
CC=C1CC2CC1C=C2,(5Z)-5-ethylidenebicyclo[2.2.1]hept-2-ene,299.15,pubchem,1
CC(C)(C)C1=CC=CC=C1OP(=O)([O-])OC2=CC=CC=C2,(2-tert-butylphenyl) phenyl phosphate,519.15,pubchem,1
CC(=O)OCN=[N+](C)[O-],(E)-acetyloxymethylimino-methyl-oxidoazanium,372.15,pubchem,1
C(CO)C=CO,"(E)-but-1-ene-1,4-diol",401.15,pubchem,1
C1CC=CCCC=CCCC=C1,"(1Z,5E,9E)-cyclododeca-1,5,9-triene",344.15,pubchem,1
CC(C)N(C(C)C)C(=O)SCC(=CCl)Cl,"S-[(E)-2,3-dichloroprop-2-enyl] N,N-di(propan-2-yl)carbamothioate",369.15,pubchem,1
CO[P+](=O)OC,dimethoxy(oxo)phosphanium,302.15,pubchem,1
C[Si](C)Cl,InChI=1S/C2H6ClSi/c1-4(2)3/h1-2H3,264.15,pubchem,1
[Si](Cl)Cl,InChI=1S/Cl2Si/c1-3-2,245.15,pubchem,1
CC[Si](Cl)Cl,"InChI=1S/C2H5Cl2Si/c1-2-5(3)4/h2H2,1H3",272.15,pubchem,1
CCCCO[P+](=O)OCCCC,dibutoxy(oxo)phosphanium,322.15,pubchem,1
C[Si](Cl)Cl,InChI=1S/CH3Cl2Si/c1-4(2)3/h1H3,247.15,pubchem,1
C1=CC=C(C=C1)[Sn](C2=CC=CC=C2)C3=CC=CC=C3.O,triphenyltin;hydrate,673.15,pubchem,1
CCO[Si](OCC)OCC,"InChI=1S/C6H15O3Si/c1-4-7-10(8-5-2)9-6-3/h4-6H2,1-3H3",300.15,pubchem,1
[B][B][B][B][B][B][B][B][B][B],λ1-boranyl-[[[[[[(λ1-boranyl-λ2-boranyl)-λ2-boranyl]-λ2-boranyl]-λ2-boranyl]-λ2-boranyl]-λ2-boranyl]-λ2-boranyl]boron,353.15,pubchem,1
B#B,boranylidyneborane,183.15,pubchem,1
C[Si]Cl,InChI=1S/CH3ClSi/c1-3-2/h1H3,264.15,pubchem,1
[NH3+]S[NH3+],azaniumylsulfanylazanium,345.15,pubchem,1
CC1=CCCC(=C)C2CC(C2CC1)(C)C,"(1R,4E,9R)-4,11,11-trimethyl-8-methylidenebicyclo[7.2.0]undec-4-ene",374.15,pubchem,1
CC1(C2CCC1(C(C2)OC(=O)CSC#N)C)C,"[(2S)-1,7,7-trimethyl-2-bicyclo[2.2.1]heptanyl] 2-thiocyanatoacetate",355.15,pubchem,1
C(C=CCCl)Cl,"(Z)-1,4-dichlorobut-2-ene",326.15,pubchem,1
C1=CC=C(C=C1)C=C([N+](=O)[O-])Br,[(E)-2-bromo-2-nitroethenyl]benzene,327.15,pubchem,1
CCC=C.CC=CC,but-1-ene;(E)-but-2-ene,375.15,pubchem,1
CC1=CN(C(=O)NC1=O)C=CC=O,"(E)-3-(5-methyl-2,4-dioxopyrimidin-1-yl)prop-2-enal",480.15,pubchem,1
CC1=C(C=CC=C1COC(=O)C2C(C2(C)C)C=C(C(F)(F)F)Cl)C3=CC=CC=C3,"(2-methyl-3-phenylphenyl)methyl (1R,3R)-3-[(Z)-2-chloro-3,3,3-trifluoroprop-1-enyl]-2,2-dimethylcyclopropane-1-carboxylate",438.15,pubchem,1
C1=CC=C(C=C1)C=C([N+](=O)[O-])Br,[(Z)-2-bromo-2-nitroethenyl]benzene,327.15,pubchem,1
CC1(C2CCC1(C(C2)O)C)C,"(1R,2S,4R)-1,7,7-trimethylbicyclo[2.2.1]heptan-2-ol",339.15,pubchem,1
CC1CCC(C(C1)O)C(C)C,"(1R,2R,5S)-5-methyl-2-propan-2-ylcyclohexan-1-ol",364.15,pubchem,1
CC1=CC=C(C=C1)C.CC1=CC(=CC=C1)C.CC1=CC=CC=C1C,"1,2-xylene;1,3-xylene;1,4-xylene",298.15,pubchem,1
CC(=O)OC1CC2CCC1(C2(C)C)C,"[(1S,2S,4S)-1,7,7-trimethyl-2-bicyclo[2.2.1]heptanyl] acetate",361.15,pubchem,1
CCC(CC)(C(=O)[O-])C(=O)[O-],"2,2-diethylpropanedioate",358.15,pubchem,1
CC(C)(C1=CC=C(C=C1)OCC2CO2)C3=CC=C(C=C3)OCC4CO4,(2S)-2-[[4-[2-[4-[[(2S)-oxiran-2-yl]methoxy]phenyl]propan-2-yl]phenoxy]methyl]oxirane,352.15,pubchem,1
CC1CC(=O)C=C2C1(CC(CC2)C(=C)C)C,"(4S,4aR,6S)-4,4a-dimethyl-6-prop-1-en-2-yl-3,4,5,6,7,8-hexahydronaphthalen-2-one",373.15,pubchem,1
CC1(C2CCC1(C(=O)C2)C)C,"(1R)-1,7,7-trimethylbicyclo[2.2.1]heptan-2-one",337.15,pubchem,1
CC(C)(C=NO)SC,(NE)-N-(2-methyl-2-methylsulfanylpropylidene)hydroxylamine,391.15,pubchem,1
CC1=NN(C(=C1C=NOCC2=CC=C(C=C2)C(=O)OC(C)(C)C)OC3=CC=CC=C3)C,"tert-butyl 4-[[(E)-(1,3-dimethyl-5-phenoxypyrazol-4-yl)methylideneamino]oxymethyl]benzoate",358.15,pubchem,1
CC1(C(C1C(=O)OC(C#N)C2=CC(=CC=C2)OC3=CC=CC=C3)C(C(Br)(Br)Br)Br)C,"[cyano-(3-phenoxyphenyl)methyl] 2,2-dimethyl-3-(1,2,2,2-tetrabromoethyl)cyclopropane-1-carboxylate",299.15,pubchem,1
CC1CCC2(CC3CC(O2)CC=C(CC(C=CC=C4COC5C4(C(C=C(C5O)C)C(=O)O3)O)C)C)OC1C,"(1R,4S,5'S,6R,6'R,8R,10E,13R,14E,16E,20R,21R,24S)-21,24-dihydroxy-5',6',11,13,22-pentamethylspiro[3,7,19-trioxatetracyclo[15.6.1.14,8.020,24]pentacosa-10,14,16,22-tetraene-6,2'-oxane]-2-one",316.15,pubchem,1
CC1=C(C(=O)CC1OC(=O)C2C(C2(C)C)C=C(C)C)CC#C,"(2-methyl-4-oxo-3-prop-2-ynylcyclopent-2-en-1-yl) 2,2-dimethyl-3-(2-methylprop-1-enyl)cyclopropane-1-carboxylate",412.15,pubchem,1
CC1(C2CCC(=C)C1C2)C,"(1R,5R)-6,6-dimethyl-2-methylidenebicyclo[3.1.1]heptane",304.15,pubchem,1
CC(C)C(C1=CC=C(C=C1)Cl)C(=O)OC(C#N)C2=CC(=CC=C2)OC3=CC=CC=C3,[(S)-cyano-(3-phenoxyphenyl)methyl] (2S)-2-(4-chlorophenyl)-3-methylbutanoate,529.15,pubchem,1
CC=C1CC2CC1C=C2,"(1R,4R,5Z)-5-ethylidenebicyclo[2.2.1]hept-2-ene",299.15,pubchem,1
CC1=C(C=CC=C1COC(=O)C2C(C2(C)C)C=C(C(F)(F)F)Cl)C3=CC=CC=C3,"(2-methyl-3-phenylphenyl)methyl (1S,3S)-3-[(Z)-2-chloro-3,3,3-trifluoroprop-1-enyl]-2,2-dimethylcyclopropane-1-carboxylate",438.15,pubchem,1
CCCC=C(CC)C=O,(Z)-2-ethylhex-2-enal,341.15,pubchem,1
CC(C)CCCCCCOC(=O)C1CCCCC1C(=O)OCCCCCCC(C)C,"bis(7-methyloctyl) cyclohexane-1,2-dicarboxylate",497.15,pubchem,1
CC(CC1=CC=CC=C1)NC(=O)C(CCCCN)N,"(2S)-2,6-diamino-N-[(2S)-1-phenylpropan-2-yl]hexanamide",260.15,pubchem,1
CC(=O)OCCCCCCBr,6-bromohexyl acetate,294.15,pubchem,1
C1C2C(C(C1Cl)Cl)C3(C(=C(C2(C3(Cl)Cl)Cl)Cl)Cl)Cl,"(1R,7S)-1,3,4,7,8,9,10,10-octachlorotricyclo[5.2.1.02,6]dec-8-ene",380.15,pubchem,1
CC(=CCCC(=CCCC(=CCCC=C(C)CCC=C(C)CCC=C(C)C)C)C)C,"(6Z,10E,14E,18E)-2,6,10,15,19,23-hexamethyltetracosa-2,6,10,14,18,22-hexaene",383.15,pubchem,1
CC1(C2CCC1(C(C2)O)C)C,"(1R,4S)-1,7,7-trimethylbicyclo[2.2.1]heptan-2-ol",339.15,pubchem,1
C1C2C(C(C1Cl)Cl)C3(C(=C(C2(C3(Cl)Cl)Cl)Cl)Cl)Cl,"(1S,2R,3R,4S,6R,7R)-1,3,4,7,8,9,10,10-octachlorotricyclo[5.2.1.02,6]dec-8-ene",380.15,pubchem,1
C1C2C3C(C1C4C2O4)C5(C(=C(C3(C5(Cl)Cl)Cl)Cl)Cl)Cl,"(1R,2R,3R,6S,7S,8S,9S,11R)-3,4,5,6,13,13-hexachloro-10-oxapentacyclo[6.3.1.13,6.02,7.09,11]tridec-4-ene",300.15,pubchem,1
C1C2C3C(C1C4C2O4)C5(C(=C(C3(C5(Cl)Cl)Cl)Cl)Cl)Cl,"(1R,2S,3S,6R,7R,8S,9R,11S)-3,4,5,6,13,13-hexachloro-10-oxapentacyclo[6.3.1.13,6.02,7.09,11]tridec-4-ene",300.15,pubchem,1
CC=C1CC2CC1C=C2,"(1R,4R,5E)-5-ethylidenebicyclo[2.2.1]hept-2-ene",299.15,pubchem,1
C1C=CC=C1.C1C=CC=C1.[Ni],"cyclopenta-1,3-diene;nickel",277.15,pubchem,1
CC(=O)C=C=O,"but-1-ene-1,3-dione",306.15,pubchem,1
CCOP(=O)([O-])[O-],ethyl phosphate,389.15,pubchem,1
CC1C(SC(=O)N1C(=O)NC2CCCCC2)C3=CC=C(C=C3)Cl,"(4S,5S)-5-(4-chlorophenyl)-N-cyclohexyl-4-methyl-2-oxo-1,3-thiazolidine-3-carboxamide",373.15,pubchem,1
CC1(C2CCC1(C(C2)OC(=O)CSC#N)C)C,"[(1R,2R,4R)-1,7,7-trimethyl-2-bicyclo[2.2.1]heptanyl] 2-thiocyanatoacetate",355.15,pubchem,1
CCCCCCC(CC=CCCCCCCCC(=O)OCC(COC(=O)CCCCCCCC=CCC(CCCCCC)O)OC(=O)CCCCCCCC=CCC(CCCCCC)O)O,"2,3-bis[[(Z)-12-hydroxyoctadec-9-enoyl]oxy]propyl (Z)-12-hydroxyoctadec-9-enoate",502.15,pubchem,1
CCCCC(CC)COP(=O)([O-])OCC(CC)CCCC,bis(2-ethylhexyl) phosphate,469.15,pubchem,1
C1C=CC2C1C3CC2C=C3,"(2S,6R)-tricyclo[5.2.1.02,6]deca-3,8-diene",305.15,pubchem,1
C1C=CC2C1C3CC2C=C3,"(1R,7S)-tricyclo[5.2.1.02,6]deca-3,8-diene",305.15,pubchem,1
CCOP(=S)(C1=CC=CC=C1)OC2=CC=C(C=C2)[N+](=O)[O-],ethoxy-(4-nitrophenoxy)-phenyl-sulfanylidene-λ5-phosphane,303.15,pubchem,1
C1=C(C=C(C(=C1O)O)O)C(=O)OC2=CC(=CC(=C2O)O)C(=O)OCC3C(C(C(C(O3)OC(=O)C4=CC(=C(C(=C4)OC(=O)C5=CC(=C(C(=C5)O)O)O)O)O)OC(=O)C6=CC(=C(C(=C6)OC(=O)C7=CC(=C(C(=C7)O)O)O)O)O)OC(=O)C8=CC(=C(C(=C8)OC(=O)C9=CC(=C(C(=C9)O)O)O)O)O)OC(=O)C1=CC(=C(C(=C1)OC(=O)C1=CC(=C(C(=C1)O)O)O)O)O,"[2,3-dihydroxy-5-[[(2R,3R,4S,5R,6S)-3,4,5,6-tetrakis[[3,4-dihydroxy-5-(3,4,5-trihydroxybenzoyl)oxybenzoyl]oxy]oxan-2-yl]methoxycarbonyl]phenyl] 3,4,5-trihydroxybenzoate",472.15,pubchem,1
C1=C(C=C(C(=C1O)O)O)C(=O)OC2=CC(=CC(=C2O)O)C(=O)OCC3C(C(C(C(O3)OC(=O)C4=CC(=C(C(=C4)OC(=O)C5=CC(=C(C(=C5)O)O)O)O)O)OC(=O)C6=CC(=C(C(=C6)OC(=O)C7=CC(=C(C(=C7)O)O)O)O)O)OC(=O)C8=CC(=C(C(=C8)OC(=O)C9=CC(=C(C(=C9)O)O)O)O)O)OC(=O)C1=CC(=C(C(=C1)OC(=O)C1=CC(=C(C(=C1)O)O)O)O)O,"[2,3-dihydroxy-5-[[3,4,5,6-tetrakis[[3,4-dihydroxy-5-(3,4,5-trihydroxybenzoyl)oxybenzoyl]oxy]oxan-2-yl]methoxycarbonyl]phenyl] 3,4,5-trihydroxybenzoate",472.15,pubchem,1
C1=C(C=C(C(=C1O)O)O)C(=O)OC2=CC(=CC(=C2O)O)C(=O)OCC3C(C(C(C(O3)OC(=O)C4=CC(=C(C(=C4)OC(=O)C5=CC(=C(C(=C5)O)O)O)O)O)OC(=O)C6=CC(=C(C(=C6)OC(=O)C7=CC(=C(C(=C7)O)O)O)O)O)OC(=O)C8=CC(=C(C(=C8)OC(=O)C9=CC(=C(C(=C9)O)O)O)O)O)OC(=O)C1=CC(=C(C(=C1)OC(=O)C1=CC(=C(C(=C1)O)O)O)O)O,"[2,3-dihydroxy-5-[[(2R,3R,4S,5R)-3,4,5,6-tetrakis[[3,4-dihydroxy-5-(3,4,5-trihydroxybenzoyl)oxybenzoyl]oxy]oxan-2-yl]methoxycarbonyl]phenyl] 3,4,5-trihydroxybenzoate",472.15,pubchem,1
C1=C(C=C(C(=C1O)O)O)C(=O)OC2=CC(=CC(=C2O)O)C(=O)OCC3C(C(C(C(O3)OC(=O)C4=CC(=C(C(=C4)OC(=O)C5=CC(=C(C(=C5)O)O)O)O)O)OC(=O)C6=CC(=C(C(=C6)OC(=O)C7=CC(=C(C(=C7)O)O)O)O)O)OC(=O)C8=CC(=C(C(=C8)OC(=O)C9=CC(=C(C(=C9)O)O)O)O)O)OC(=O)C1=CC(=C(C(=C1)OC(=O)C1=CC(=C(C(=C1)O)O)O)O)O,"[2,3-dihydroxy-5-[[(2S,3S,4R,5S,6R)-3,4,5,6-tetrakis[[3,4-dihydroxy-5-(3,4,5-trihydroxybenzoyl)oxybenzoyl]oxy]oxan-2-yl]methoxycarbonyl]phenyl] 3,4,5-trihydroxybenzoate",472.15,pubchem,1
C1=C(C=C(C(=C1O)O)O)C(=O)OC2=CC(=CC(=C2O)O)C(=O)OCC3C(C(C(C(O3)OC(=O)C4=CC(=C(C(=C4)OC(=O)C5=CC(=C(C(=C5)O)O)O)O)O)OC(=O)C6=CC(=C(C(=C6)OC(=O)C7=CC(=C(C(=C7)O)O)O)O)O)OC(=O)C8=CC(=C(C(=C8)OC(=O)C9=CC(=C(C(=C9)O)O)O)O)O)OC(=O)C1=CC(=C(C(=C1)OC(=O)C1=CC(=C(C(=C1)O)O)O)O)O,"[2,3-dihydroxy-5-[[(2R,3R,4S,5R,6R)-3,4,5,6-tetrakis[[3,4-dihydroxy-5-(3,4,5-trihydroxybenzoyl)oxybenzoyl]oxy]oxan-2-yl]methoxycarbonyl]phenyl] 3,4,5-trihydroxybenzoate",472.15,pubchem,1
C=O.C1=CC=C(C=C1)N=C=O,formaldehyde;isocyanatobenzene,491.15,pubchem,1
CC1=CC=C(C=C1)C=C.CC1=CC=CC(=C1)C=C.CC1=CC=CC=C1C=C,1-ethenyl-2-methylbenzene;1-ethenyl-3-methylbenzene;1-ethenyl-4-methylbenzene,325.15,pubchem,1
CC(=O)O[Hg]C1=CC=CC=C1,acetyloxy(phenyl)mercury,333.15,pubchem,1
CCCCCCCCCCCC(=O)O[Sn](CCCC)(CCCC)OC(=O)CCCCCCCCCCC,[dibutyl(dodecanoyloxy)stannyl] dodecanoate,508.15,pubchem,1
CCCC[Sn](CCCC)(OC(=O)C)OC(=O)C,[acetyloxy(dibutyl)stannyl] acetate,416.15,pubchem,1
CC[Al](CC)CC,triethylalumane,220.15,pubchem,1
CC(C)C[Al](CC(C)C)CC(C)C,tris(2-methylpropyl)alumane,250.15,pubchem,1
CC(CCl)Cl.C(C=CCl)Cl,"1,2-dichloropropane;(E)-1,3-dichloroprop-1-ene",290.15,pubchem,1
CCC1CCC(C1)CCC(=O)O,3-(3-ethylcyclopentyl)propanoic acid,374.15,pubchem,1
COC(COCCOCCOCCO)O,2-[2-[2-(2-hydroxyethoxy)ethoxy]ethoxy]-1-methoxyethanol,434.15,pubchem,1
COP([O-])OC,dimethyl phosphite,343.15,pubchem,1
CC(COC(C)COC(=O)C)OC,2-(2-methoxypropoxy)propyl acetate,359.15,pubchem,1
C1C=CC=[C-]1.C1C=CC=[C-]1.[Ni+2],"cyclopenta-1,3-diene;nickel(2+)",277.15,pubchem,1
CCCC(C)CC(=O)[O-],3-methylhexanoate,305.15,pubchem,1
CC(C)CCCCCOP(=S)(OCCCCCC(C)C)[S-].CC(C)CCCCCOP(=S)(OCCCCCC(C)C)[S-].[Zn+2],zinc;bis(6-methylheptoxy)-sulfanylidene-sulfido-λ5-phosphane,433.15,pubchem,1
CCCCCCCCCCCCCCCCCC(=O)O.[Zn+2],zinc;octadecanoic acid,550.15,pubchem,1
CCC(O)OCCCOC,1-(3-methoxypropoxy)propan-1-ol,347.15,pubchem,1
C1CC=CC(C1)C2=CC=C(C=C2)C3CCC=CC3,1-cyclohex-2-en-1-yl-4-cyclohex-3-en-1-ylbenzene,430.15,pubchem,1
CCCCCCCCCCCCCC(=O)OC1C(C2(C(C=C(CC3(C2C=C(C3=O)C)O)CO)C4C1(C4(C)C)OC(=O)C)O)C,"[(1S,6R,10S,11R,13S,14R)-13-acetyloxy-1,6-dihydroxy-8-(hydroxymethyl)-4,12,12,15-tetramethyl-5-oxo-14-tetracyclo[8.5.0.02,6.011,13]pentadeca-3,8-dienyl] tetradecanoate",310.15,pubchem,1
CC1(C(C1C(=O)OC(C#N)C2=CC(=CC=C2)OC3=CC=CC=C3)C(C(Br)(Br)Br)Br)C,"[cyano-(3-phenoxyphenyl)methyl] (1R,3S)-2,2-dimethyl-3-[(1S)-1,2,2,2-tetrabromoethyl]cyclopropane-1-carboxylate",299.15,pubchem,1
C1C[NH2+]1,aziridin-1-ium,262.15,pubchem,1
C[O-].[K+],potassium;methanolate,284.15,pubchem,1
CCCCCCCCC=CCCCCCCCC(=O)[O-].[K+],potassium;(Z)-octadec-9-enoate,333.15,pubchem,1
CCCCCCCCC=CCCCCCCCC(=O)[O-].[K+],potassium;(E)-octadec-9-enoate,333.15,pubchem,1
CC(C)C1=CC2=CCC3C(C2CC1)(CCCC3(C)C(=O)O)C,"(4aR)-1,4a-dimethyl-7-propan-2-yl-2,3,4,4b,5,6,10,10a-octahydrophenanthrene-1-carboxylic acid",460.15,pubchem,1
C1C2C(C(C1Cl)Cl)C3(C(=C(C2(C3(Cl)Cl)Cl)Cl)Cl)Cl,"(1S,2S,3R,4R,6S)-1,3,4,7,8,9,10,10-octachlorotricyclo[5.2.1.02,6]dec-8-ene",380.15,pubchem,1
CCCCC(CC)CN1C(=O)C2C3CC(C2C1=O)C=C3,"(1S,7R)-4-(2-ethylhexyl)-4-azatricyclo[5.2.1.02,6]dec-8-ene-3,5-dione",450.15,pubchem,1
COC1C(C(C(C(O1)CO)OC2C(C(C(C(O2)CO)S)O)O)O)O,"(2R,3R,4R,5S,6R)-5-[(2R,3R,4R,5S,6R)-3,4-dihydroxy-6-(hydroxymethyl)-5-sulfanyloxan-2-yl]oxy-6-(hydroxymethyl)-2-methoxyoxane-3,4-diol",265.15,pubchem,1
CCCCO.[Ti],butan-1-ol;titanium,350.15,pubchem,1
CC1=C(C=CC=C1COC(=O)C2C(C2(C)C)C=C(C(F)(F)F)Cl)C3=CC=CC=C3,"(2-methyl-3-phenylphenyl)methyl (1R,3S)-3-[(E)-2-chloro-3,3,3-trifluoroprop-1-enyl]-2,2-dimethylcyclopropane-1-carboxylate",438.15,pubchem,1
CC(COC(=O)C=C)O,[(2R)-2-hydroxypropyl] prop-2-enoate,338.15,pubchem,1
C(C1C(C(C(C(O1)OC2C(OC(C(C2O)O)O)CO)O)O)O)O.C(C1C(C(C(C(O1)O[N+](=O)[O-])O[N+](=O)[O-])O[N+](=O)[O-])OC2C(C(C(C(O2)CO[N+](=O)[O-])O[N+](=O)[O-])O[N+](=O)[O-])O[N+](=O)[O-])O[N+](=O)[O-],"[2,3-dinitrooxy-6-(nitrooxymethyl)-5-[3,4,5-trinitrooxy-6-(nitrooxymethyl)oxan-2-yl]oxyoxan-4-yl] nitrate;2-(hydroxymethyl)-6-[4,5,6-trihydroxy-2-(hydroxymethyl)oxan-3-yl]oxyoxane-3,4,5-triol",228.15,pubchem,1
CCCCCCCCC=CCCCCCCCC(=O)[O-].[K+],potassium;octadec-9-enoate,333.15,pubchem,1
C1=CC=C(C=C1)N([N+](=O)[O-])Cl,N-chloro-N-phenylnitramide,478.15,pubchem,1
C(C1C(C(C(C(O1)OC2C(OC(C(C2O[N+](=O)[O-])O[N+](=O)[O-])O[N+](=O)[O-])CO[N+](=O)[O-])O[N+](=O)[O-])O[N+](=O)[O-])OC3C(C(C(C(O3)CO[N+](=O)[O-])O[N+](=O)[O-])O[N+](=O)[O-])O[N+](=O)[O-])O[N+](=O)[O-],"[(2S,3R,4S,5R,6R)-2-[(2R,3R,4S,5R,6S)-4,5-dinitrooxy-2-(nitrooxymethyl)-6-[(2R,3R,4S,5R,6S)-4,5,6-trinitrooxy-2-(nitrooxymethyl)oxan-3-yl]oxyoxan-3-yl]oxy-3,5-dinitrooxy-6-(nitrooxymethyl)oxan-4-yl] nitrate",285.15,pubchem,1
CC1(C2CCC1(C(C2)O)C)C,"(2S,4R)-1,7,7-trimethylbicyclo[2.2.1]heptan-2-ol",339.15,pubchem,1
CC1C(SC(=O)N1C(=O)NC2CCCCC2)C3=CC=C(C=C3)Cl,"(4R)-5-(4-chlorophenyl)-N-cyclohexyl-4-methyl-2-oxo-1,3-thiazolidine-3-carboxamide",373.15,pubchem,1