compound,flashpoint,pure substance,smiles,source
"Acetonitrile, dibromo-",305.0499999999999,1.0,N#CC(Br)Br,le15
"2-Propanone, 1,3-dichloro-1,1,3,3-tetrafluoro-",275.15,1.0,O=C(C(F)(F)Cl)C(F)(F)Cl,le15
"Quinoxaline, 2,3-dichloro-",416.05,1.0,Clc1nc2ccccc2nc1Cl,le15
"Acetophenone, 2-bromo- (8CI)",351.54999999999984,1.0,O=C(CBr)c1ccccc1,le15
"2-bromo-1,3,5-trimethylbenzene",369.25,1.0,Cc1cc(C)c(Br)c(C)c1,le15
1-bromo-4-propan-2-ylbenzene,360.45,1.0,CC(C)c1ccc(Br)cc1,le15
1-bromopropan-2-ylbenzene,359.04999999999984,1.0,CC(CBr)c1ccccc1,le15
"1-bromo-2,4,5-trimethylbenzene",386.15,1.0,Cc1cc(C)c(Br)cc1C,le15
3-bromopropylbenzene,374.85,1.0,BrCCCc1ccccc1,le15
"Phenol, 2-amino-4,6-dinitro-",460.65,1.0,Nc1cc([N+](=O)[O-])cc([N+](=O)[O-])c1O,le15
"1,1'-Biphenyl, 2-nitro- (9CI)",452.15,1.0,O=[N+]([O-])c1ccccc1-c1ccccc1,le15
"1,1'-Biphenyl, 4-nitro-",316.15,1.0,O=[N+]([O-])c1ccc(-c2ccccc2)cc1,le15
"Acenaphthylene, 1,2-dihydro-5-nitro-",464.95,1.0,O=[N+]([O-])c1ccc2c3c(cccc13)CC2,le15
"1,1'-Biphenyl, 3-nitro- (9CI)",434.55,1.0,O=[N+]([O-])c1cccc(-c2ccccc2)c1,le15
"Furo(2,3-b)quinoline, 4-methoxy-",434.537,1.0,COc1c2ccccc2nc2occc12,le15
"Acenaphthylene, 1,2-dihydro-3-nitro- (9CI)",473.45,1.0,O=[N+]([O-])c1ccc2cccc3c2c1CC3,le15
"Benzenamine, 3-(phenylmethoxy)-",457.55,1.0,Nc1cccc(OCc2ccccc2)c1,le15
10H-Phenothiazine,451.35,1.0,c1ccc2c(c1)Nc1ccccc1S2,le15
"N,N-diethylnaphthalen-1-amine",394.25,1.0,CCN(CC)c1cccc2ccccc12,le15
1-Tridecanamine,383.75,1.0,CCCCCCCCCCCCCN,le15
"2(3H)-Benzoxazolone, 6-chloro-3-(hydroxymethyl)-",436.65,1.0,O=c1oc2cc(Cl)ccc2n1CO,le15
4'-Chloro-3'-nitroacetophenone,401.15,1.0,CC(=O)c1ccc(Cl)c([N+](=O)[O-])c1,le15
"1,1-dibromoprop-1-ene",283.0499999999999,1.0,CC=C(Br)Br,le15
"Propene, 2,3-dibromo- (8CI)",354.15,1.0,C=C(Br)CBr,le15
"1,3-Propanediol, 2-bromo-2-nitro-",443.45,1.0,O=[N+]([O-])C(Br)(CO)CO,le15
"Formamide, N-(4-bromophenyl)- (9CI)",429.15,1.0,O=CNc1ccc(Br)cc1,le15
"1-Butanol, 2,2,3,3,4,4,4-heptafluoro-",298.15,1.0,OCC(F)(F)C(F)(F)C(F)(F)F,le15
"Ether, fluoromethyl 2,2,2-trifluoro-1-(trifluoromethyl)ethyl-",331.15,1.0,FCOC(C(F)(F)F)C(F)(F)F,le15
"4-bromo-N,N-dimethylaniline",377.85,1.0,CN(C)c1ccc(Br)cc1,le15
"Terephthalonitrile, tetrafluoro- (8CI)",374.05,1.0,N#Cc1c(F)c(F)c(C#N)c(F)c1F,le15
"2,3,4,5,6-pentafluorobenzenethiol",324.85,1.0,Fc1c(F)c(F)c(S)c(F)c1F,le15
"2,2,3,3-tetrafluoropropyl 2-methylprop-2-enoate",323.75,1.0,C=C(C)C(=O)OCC(F)(F)C(F)F,le15
"Benzimidazole, 5-methyl-2-(trifluoromethyl)-",397.55,1.0,Cc1ccc2nc(C(F)(F)F)[nH]c2c1,le15
"Phenol, 4-(phenylmethoxy)-",486.55,1.0,Oc1ccc(OCc2ccccc2)cc1,le15
"Phenol, 4,4'-methylenedi- (8CI)",466.05,1.0,Oc1ccc(Cc2ccc(O)cc2)cc1,le15
o-Methoxyphenyl phenylether,385.15,1.0,COc1ccccc1Oc1ccccc1,le15
"Naphthalene, 1-(2,3-epoxypropoxy)-",425.15,1.0,c1ccc2c(OCC3CO3)cccc2c1,le15
"Phenol, 2,4'-methylenedi- (8CI)",458.05,1.0,Oc1ccc(Cc2ccccc2O)cc1,le15
ethyl naphthalene-2-carboxylate,421.85,1.0,CCOC(=O)c1ccc2ccccc2c1,le15
"Oxirane, ((2-naphthalenyloxy)methyl)- (9CI)",425.15,1.0,c1ccc2cc(OCC3CO3)ccc2c1,le15
ethyl naphthalene-1-carboxylate,421.85,1.0,CCOC(=O)c1cccc2ccccc12,le15
"dimethyl cyclohexane-1,4-dicarboxylate",367.15,1.0,COC(=O)C1CCC(C(=O)OC)CC1,le15
"Propanedioic acid, 2-propenyl-, diethyl ester",365.15,1.0,CC=CC(C(=O)OCC)C(=O)OCC,le15
dipropyl (E)-but-2-enedioate,392.75,1.0,CCCOC(=O)/C=C/C(=O)OCCC,le15
"diethyl cyclobutane-1,1-dicarboxylate",362.15,1.0,CCOC(=O)C1(C(=O)OCC)CCC1,le15
"Propanedioic acid, (1-methylethylidene)-, diethyl ester",382.55,1.0,CCOC(=O)C(C(=O)OCC)=C(C)C,le15
Dibenzooxathiane,415.85,1.0,c1ccc2c(c1)OSc1ccccc1-2,le15
"Dibenzothiophene, 5-oxide (8CI)(9CI)",469.35,1.0,O=S1c2ccccc2-c2ccccc21,le15
"Benzenesulfonic acid, 4-methyl-, ethyl ester",430.15,1.0,CCOS(=O)(=O)c1ccc(C)cc1,le15
"Barbituric acid, 1,3-diethyl-2-thio- (8CI)",392.35,1.0,CCN1C(=O)CC(=O)N(CC)C1=S,le15
"1H-Indole, 3-(1-methyl-3-pyrrolidinyl)- (9CI)",445.65,1.0,CN1CCC(c2c[nH]c3ccccc23)C1,le15
4-(2-morpholin-4-ylethyl)morpholine,352.75,1.0,C1CN(CCN2CCOCC2)CCO1,le15
"Decanoic acid, ethyl ester",375.15,1.0,CCCCCCCCCC(=O)OCC,le15
octyl butanoate,376.45,1.0,CCCCCCCCOC(=O)CCC,le15
"Acetic acid, decyl ester",374.45,1.0,CCCCCCCCCCOC(C)=O,le15
"Undecanoic acid, methyl ester",382.55,1.0,CCCCCCCCCCC(=O)OC,le15
heptyl pentanoate,372.15,1.0,CCCCCCCOC(=O)CCCC,le15
hexyl hexanoate,372.55,1.0,CCCCCCOC(=O)CCCCC,le15
pentyl heptanoate,372.15,1.0,CCCCCCC(=O)OCCCCC,le15
"Isobutyric acid, octyl ester (6CI,7CI,8CI)",367.15,1.0,CCCCCCCCOC(=O)C(C)C,le15
butyl octanoate,372.15,1.0,CCCCCCCC(=O)OCCCC,le15
"N,N'-Bis(3-aminopropyl)piperazine",436.15,1.0,NCCCN1CCN(CCCN)CC1,le15
(1-chloro-3-nitrooxypropan-2-yl) nitrate,378.75,1.0,O=[N+]([O-])OCC(CCl)O[N+](=O)[O-],le15
"Propanoic acid, 2-(3-chlorophenoxy)-",419.55,1.0,CC(Oc1cccc(Cl)c1)C(=O)O,le15
"Acetic acid, (4-chloro-2-methylphenoxy)-",424.75,1.0,Cc1cc(Cl)ccc1OCC(=O)O,le15
"Ethanol, 2-(4-chloro-3,5-dimethylphenoxy)- (9CI)",421.95,1.0,Cc1cc(OCCO)cc(C)c1Cl,le15
"Benzaldehyde, 3-bromo-4-hydroxy-",384.95,1.0,O=Cc1ccc(O)c(Br)c1,le15
3-bromobenzoic acid,413.35,1.0,O=C(O)c1cccc(Br)c1,le15
"Benzaldehyde, 5-bromo-2-hydroxy-",376.55,1.0,O=Cc1cc(Br)ccc1O,le15
1-bromo-4-ethoxybenzene,375.95,1.0,CCOc1ccc(Br)cc1,le15
"Phenol, 4-bromo-2,6-dimethyl-",379.95,1.0,Cc1cc(Br)cc(C)c1O,le15
"Benzenamine, 5-fluoro-2,4-dinitro-",483.95,1.0,Nc1cc(F)c([N+](=O)[O-])cc1[N+](=O)[O-],le15
"1H-Indazol-3-amine, 5-(trifluoromethyl)- (9CI)",443.75,1.0,Nc1n[nH]c2ccc(C(F)(F)F)cc12,le15
"Benzimidazole, 5-amino-2-(trifluoromethyl)-",440.45,1.0,Nc1ccc2nc(C(F)(F)F)[nH]c2c1,le15
"Carbamic acid, methyl-, 1-naphthyl ester",426.15,1.0,CNC(=O)Oc1cccc2ccccc12,le15
"Acetamide, N-hydroxy-N-2-naphthalenyl- (9CI)",456.95,1.0,CC(=O)N(O)c1ccc2ccccc2c1,le15
"4-Pyrimidinol, 2-amino-5-methyl-6-phenyl-",455.35,1.0,Cc1c(O)nc(N)nc1-c1ccccc1,le15
"1H-Benzimidazole, 2-(4-thiazolyl)-",499.35,1.0,c1ccc2[nH]c(-c3cscn3)nc2c1,le15
"Benzene, 1-(1-isocyanato-1-methylethyl)-3-(1-methylethenyl)-",406.45,1.0,C=C(C)c1cccc(C(C)(C)N=C=O)c1,le15
"Isocyanic acid, p-isopropenyl-alpha,alpha-dimethylbenzyl ester",357.15,1.0,C=C(C)c1ccc(C(C)(C)N=C=O)cc1,le15
"Undecanoic acid, 11-amino-",429.45,1.0,NCCCCCCCCCCC(=O)O,le15
"Silane, (3-cyanopropyl)diethoxy(methyl)-",377.25,1.0,CCO[Si](C)(CCCC#N)OCC,le15
"Benzoic acid, 4-chloro-3-nitro-",451.65,1.0,O=C(O)c1ccc(Cl)c([N+](=O)[O-])c1,le15
"1,3,5-Triazine-2,4-diamine, 6-chloro-N,N'-diethyl-",448.15,1.0,CCNc1nc(Cl)nc(NCC)n1,le15
"1,3,5-Triazine-2,4-diamine, 6-chloro-N-methyl-N'-(1-methylethyl)-",443.25,1.0,CNc1nc(Cl)nc(NC(C)C)n1,le15
"2(3H)-Benzothiazolethione, 5-chloro- (9CI)",428.45,1.0,S=c1[nH]c2cc(Cl)ccc2s1,le15
2-bromoacetyl bromide,345.15,1.0,O=C(Br)CBr,le15
"2,2-dibromopropane",274.85,1.0,CC(C)(Br)Br,le15
"Propane, 1,2-dibromo-",308.15,1.0,CC(Br)CBr,le15
"Propane, 1,3-dibromo-",327.5499999999999,1.0,BrCCCBr,le15
"Benzene, 1-bromo-2-nitro-",360.95,1.0,O=[N+]([O-])c1ccccc1Br,le15
"Benzene, 1-bromo-3-nitro-",376.75,1.0,O=[N+]([O-])c1cccc(Br)c1,le15
"Benzene, 1-bromo-4-nitro-",528.15,1.0,O=[N+]([O-])c1ccc(Br)cc1,le15
"Pentanedinitrile, hexafluoro- (9CI)",293.75,1.0,N#CC(F)(F)C(F)(F)C(F)(F)C#N,le15
"Phosphorous acid, tri-2-propenyl ester",359.85,1.0,C=CCOP(OCC=C)OCC=C,le15
"Phenol, 4,4'-oxybis-",456.35,1.0,Oc1ccc(Oc2ccc(O)cc2)cc1,le15
"Acetic acid, (2-naphthalenyloxy)-",428.95,1.0,O=C(O)COc1ccc2ccccc2c1,le15
methyl 3-hydroxynaphthalene-2-carboxylate,415.65,1.0,COC(=O)c1cc2ccccc2cc1O,le15
diethyl 3-oxopentanedioate,359.25,1.0,CCOC(=O)CC(=O)CC(=O)OCC,le15
diethyl 2-acetylpropanedioate,372.15,1.0,CCOC(=O)C(C(C)=O)C(=O)OCC,le15
Pyrene,441.95,1.0,c1cc2ccc3cccc4ccc(c1)c2c34,le15
Acephenanthrylene,461.75,1.0,C1=Cc2cc3ccccc3c3cccc1c23,le15
Aceanthrylene,461.75,1.0,C1=Cc2c3ccccc3cc3cccc1c23,le15
Fluoranthene,282.0499999999999,1.0,c1ccc2c(c1)-c1cccc3cccc-2c13,le15
Decanedioic acid,471.45,1.0,O=C(O)CCCCCCCCC(=O)O,le15
diethyl 2-propan-2-ylpropanedioate,369.45,1.0,CCOC(=O)C(C(=O)OCC)C(C)C,le15
"Butanedioic acid, dipropyl ester",384.55,1.0,CCCOC(=O)CCC(=O)OCCC,le15
"Octanedioic acid, dimethyl ester",384.55,1.0,COC(=O)CCCCCCC(=O)OC,le15
dibutyl oxalate,381.15,1.0,CCCCOC(=O)C(=O)OCCCC,le15
"Oxirane, 2,2'-(1,4-butanediylbis(oxymethylene))bis-",395.25,1.0,C(CCOCC1CO1)COCC1CO1,le15
2-butanoyloxyethyl butanoate,389.85,1.0,CCCC(=O)OCCOC(=O)CCC,le15
"Hexanedioic acid, diethyl ester",384.55,1.0,CCOC(=O)CCCCC(=O)OCC,le15
Diethyl propylmalonate,364.15,1.0,CCCC(C(=O)OCC)C(=O)OCC,le15
"Oxirane, 2,2'-(1,2-ethanediylbis(oxymethylene))bis(2-methyl- (9CI)",378.85,1.0,CC1(COCCOCC2(C)CO2)CO1,le15
Phenyl sulfoxide (8CI),443.25,1.0,O=S(c1ccccc1)c1ccccc1,le15
"Urea, 1-(1-naphthyl)-2-thio-",455.25,1.0,NC(=S)Nc1cccc2ccccc12,le15
bis(3-methylbutyl) carbonate,361.35,1.0,CC(C)CCOC(=O)OCCC(C)C,le15
"Phosphine, tributyl-",385.35,1.0,CCCCP(CCCC)CCCC,le15
"1H-Indene, 2,3-dihydro-1,1-dimethyl-6-(1,1-dimethylethyl)-",367.25,1.0,CC(C)(C)c1ccc2c(c1)C(C)(C)CC2,le15
1-hexylsulfanylhexane,386.15,1.0,CCCCCCSCCCCCC,le15
"Benzene, chloropentafluoro-",302.65,1.0,Fc1c(F)c(F)c(Cl)c(F)c1F,le15
"Butanenitrile, 4-(trichlorosilyl)-",365.25,1.0,N#CCCC[Si](Cl)(Cl)Cl,le15
"Benzene, 1-chloro-2,4-dinitro-",459.15,1.0,O=[N+]([O-])c1ccc(Cl)c([N+](=O)[O-])c1,le15
"2-chloro-1,3-dinitrobenzene",415.55,1.0,O=[N+]([O-])c1cccc([N+](=O)[O-])c1Cl,le15
1-benzyl-4-chlorobenzene,395.15,1.0,Clc1ccc(Cc2ccccc2)cc1,le15
Phthaloyl chloride (8CI),408.55,1.0,O=C(Cl)c1ccccc1C(=O)Cl,le15
"1,3-Benzenedicarbonyl dichloride",453.15,1.0,O=C(Cl)c1cccc(C(=O)Cl)c1,le15
"1,4-Benzenedicarbonyl dichloride",416.25,1.0,O=C(Cl)c1ccc(C(=O)Cl)cc1,le15
"2,4-Pentadienal, 5-(4-nitrophenyl)-",448.35,1.0,O=CC=CC=Cc1ccc([N+](=O)[O-])cc1,le15
"1H-Isoindole-1,3(2H)-dione, 2-(oxiranylmethyl)-",437.05,1.0,O=C1c2ccccc2C(=O)N1CC1CO1,le15
chloro-[chloro(dimethyl)silyl]oxy-dimethylsilane,306.15,1.0,C[Si](C)(Cl)O[Si](C)(C)Cl,le15
"Naphth(2,1,8-def)isoquinoline",456.35,1.0,c1cc2ccc3cncc4ccc(c1)c2c34,le15
"Naphtho(2,1,8-def)quinoline",446.15,1.0,c1cc2ccc3ccnc4ccc(c1)c2c34,le15
4-(Indol-3-yl)butyric acid,484.95,1.0,O=C(O)CCCc1c[nH]c2ccccc12,le15
"4-Pentyn-2-one, 3-hydroxy-3-methyl-5-phenyl-, oxime",502.35,1.0,CC(=NO)C(C)(O)C#Cc1ccccc1,le15
"1,3-Dioxane, 5-ethyl-5-nitro-2-propyl- (9CI)",389.75,1.0,CCCC1OCC(CC)([N+](=O)[O-])CO1,le15
"2-Butenamide, N-ethyl-N-(2-methylphenyl)-",388.65,1.0,CC=CC(=O)N(CC)c1ccccc1C,le15
"Carbamothioic acid, butylethyl-, S-propyl ester (9CI)",391.95,1.0,CCCCN(CC)C(=O)SCCC,le15
"Carbamothioic acid, dipropyl-, S-propyl ester (9CI)",391.95,1.0,CCCSC(=O)N(CCC)CCC,le15
"Pyridine, 2-chloro-3,5-dinitro-",421.05,1.0,O=[N+]([O-])c1cnc(Cl)c([N+](=O)[O-])c1,le15
3-chloro-N-phenylaniline,420.55,1.0,Clc1cccc(Nc2ccccc2)c1,le15
4'-Chlorobiphenyl-4-ylamine,431.05,1.0,Nc1ccc(-c2ccc(Cl)cc2)cc1,le15
4-chloro-N-phenylaniline,422.85,1.0,Clc1ccc(Nc2ccccc2)cc1,le15
"Ethane, 1,1,1,2-tetrachloro-2,2-difluoro-",284.95,1.0,FC(F)(Cl)C(Cl)(Cl)Cl,le15
"Acetamide, N-(2,5-dichlorophenyl)-",436.35,1.0,CC(=O)Nc1cc(Cl)ccc1Cl,le15
"Benzene, 1,5-difluoro-2,4-dinitro-",412.55,1.0,O=[N+]([O-])c1cc([N+](=O)[O-])c(F)cc1F,le15
"Benzimidazole, 5-fluoro-2-(trifluoromethyl)-",388.85,1.0,Fc1ccc2nc(C(F)(F)F)[nH]c2c1,le15
4H-Cyclopenta(def)phenanthren-4-one,459.05,1.0,O=c1c2cccc3ccc4cccc1c4c32,le15
"2-Oxazolin-4-one, 2-(dimethylamino)-5-phenyl-",405.25,1.0,CN(C)C1=NC(=O)C(c2ccccc2)O1,le15
"1,3,5-Triazine, 2,4,6-tris(1-aziridinyl)-",487.15,1.0,C1CN1c1nc(N2CC2)nc(N2CC2)n1,le15
"Naphthalene, 1-phenyl- (8CI)(9CI)",421.35,1.0,c1ccc(-c2cccc3ccccc23)cc1,le15
"2-Propenoic acid, 3-phenyl-, butyl ester",363.15,1.0,CCCCOC(=O)C=Cc1ccccc1,le15
cyclohexyl benzoate,405.85,1.0,O=C(OC1CCCCC1)c1ccccc1,le15
"4a(4H)-Dibenzofurancarboxaldehyde, 1,5a,6,9,9a,9b-hexahydro-",409.35,1.0,O=CC12CC=CCC1C1CC=CCC1O2,le15
"Ethanol, 2-(2-butoxyethoxy)-, acetate",378.15,1.0,CCCCOCCOCCOC(C)=O,le15
"(3-hydroxy-2,2-dimethylpropyl) 3-hydroxy-2,2-dimethylpropanoate",376.35,1.0,CC(C)(CO)COC(=O)C(C)(C)CO,le15
"Benzenepropanal, 4-(1,1-dimethylethyl)-alpha-methyl-",381.15,1.0,CC(C=O)Cc1ccc(C(C)(C)C)cc1,le15
"1-Octanone, 1-phenyl-",389.85,1.0,CCCCCCCC(=O)c1ccccc1,le15
"1-Heptanol, 2-(phenylmethylene)-",407.25,1.0,CCCCCC(=Cc1ccccc1)CO,le15
"4-Heptanone, 3-(phenylmethyl)-",381.05,1.0,CCCC(=O)C(CC)Cc1ccccc1,le15
"1-Propanamine, 3,3'-(1,4-butanediylbis(oxy))bis-",411.75,1.0,NCCCOCCCCOCCCN,le15
"Ethanamine, 2,2'-(1,2-ethanediylbis(oxy))bis(N,N-dimethyl-",337.45,1.0,CN(C)CCOCCOCCN(C)C,le15
"Acetic acid, mercapto-, 2-ethylhexyl ester",410.55,1.0,CCCCC(CC)COC(=O)CS,le15
"1,3,5-tri(propan-2-yl)benzene",359.85,1.0,CC(C)c1cc(C(C)C)cc(C(C)C)c1,le15
"1,2,4-tri(propan-2-yl)benzene",369.55,1.0,CC(C)c1ccc(C(C)C)c(C(C)C)c1,le15
1-chloro-3-iodopropane,327.85,1.0,ClCCCI,le15
"Silanetetramine, octamethyl-",348.45,1.0,CN(C)[Si](N(C)C)(N(C)C)N(C)C,le15
"Ethanamine, 2-chloro-N,N-bis(2-chloroethyl)-",321.45,1.0,ClCCN(CCCl)CCCl,le15
1-chloro-4-phenoxybenzene,386.15,1.0,Clc1ccc(Oc2ccccc2)cc1,le15
"Dodecane, 1-chloro-",377.65,1.0,CCCCCCCCCCCCCl,le15
"Benzoic acid, 2,5-dichloro-, methyl ester",386.35,1.0,COC(=O)c1cc(Cl)ccc1Cl,le15
"Urea, (3,4-dichlorophenyl)-",409.65,1.0,NC(=O)Nc1ccc(Cl)c(Cl)c1,le15
"2-Quinolinecarboxylic acid, 4,8-dihydroxy- (9CI)",478.95,1.0,O=C(O)c1cc(O)c2cccc(O)c2n1,le15
"Carbamic acid, methyl-, m-(2-propynyloxy)phenyl ester",418.75,1.0,C#CCOc1cccc(OC(=O)NC)c1,le15
"Butanamide, N-(2,4-dimethylphenyl)-3-oxo-",444.15,1.0,CC(=O)CC(=O)Nc1ccc(C)cc1C,le15
"Oxiranemethanamine, N-(oxiranylmethyl)-N-phenyl-",413.25,1.0,c1ccc(N(CC2CO2)CC2CO2)cc1,le15
"Imidodicarbonimidic diamide, N-(2-phenylethyl)-",477.15,1.0,N=C(N)NC(=N)NCCc1ccccc1,le15
"3,5-Di-tert-butylaniline",388.75,1.0,CC(C)(C)c1cc(N)cc(C(C)(C)C)c1,le15
4-Octylaniline,409.35,1.0,CCCCCCCCc1ccc(N)cc1,le15
"1,2-Dithiolane-3-pentanamide (9CI)",468.35,1.0,NC(=O)CCCCC1CCSS1,le15
"1-Butanamine, 4-(diethoxymethylsilyl)-",366.55,1.0,CCOC(OCC)[SiH2]CCCCN,le15
"Acetic acid, trichloro-, isopropyl ester (6CI,7CI,8CI)",336.25,1.0,CC(C)OC(=O)C(Cl)(Cl)Cl,le15
"1,3-Dioxolane, 4-methyl-2-(trichloromethyl)-",351.85,1.0,CC1COC(C(Cl)(Cl)Cl)O1,le15
1-Bromo-4-(chloromethyl)benzene,384.85,1.0,ClCc1ccc(Br)cc1,le15
"Silane, pentyltrichloro-",340.25,1.0,CCCCC[Si](Cl)(Cl)Cl,le15
"Benzoic acid, 3-amino-2,5-dichloro-",452.65,1.0,Nc1cc(Cl)cc(C(=O)O)c1Cl,le15
"Benzoic acid, 2-amino-3,5-dichloro- (9CI)",435.25,1.0,Nc1c(Cl)cc(Cl)cc1C(=O)O,le15
"Benzenecarbothioamide, 2,6-dichloro- (9CI)",420.85,1.0,NC(=S)c1c(Cl)cccc1Cl,le15
"1H-Isoindole-1,3(2H)-dione, 2-methyl-5-nitro-",445.35,1.0,CN1C(=O)c2ccc([N+](=O)[O-])cc2C1=O,le15
"Benzene, 1,1'-oxybis(4-fluoro- (9CI)",384.05,1.0,Fc1ccc(Oc2ccc(F)cc2)cc1,le15
"Benzopyran-2-one, 6,7-dimethoxy- (9CI)",439.95,1.0,COc1cc2ccc(=O)oc2cc1OC,le15
"Tartaric acid, diethyl ester (8CI)",366.15,1.0,CCOC(=O)C(O)C(O)C(=O)OCC,le15
"Peroxydicarbonic acid, bis(1-methylethyl) ester",352.25,1.0,CC(C)OC(=O)OOC(=O)OC(C)C,le15
Phenanthrene-9-carbaldehyde,542.3499999999998,1.0,O=Cc1cc2ccccc2c2ccccc12,le15
"Phenol, 2-methoxy-4-(1-propenyl)-, acetate",387.05,1.0,CC=Cc1ccc(OC(C)=O)c(OC)c1,le15
"Phenol, 2-methoxy-4-(2-propenyl)-, acetate",383.15,1.0,C=CCc1ccc(OC(C)=O)c(OC)c1,le15
"Acetic acid, 2-(2-(2-methoxyethoxy)ethoxy)ethyl ester",378.95,1.0,COCCOCCOCCOC(C)=O,le15
"Ethanol, 2,2'-thiobis-, diacetate",400.35,1.0,CC(=O)O.CC(=O)O.OCCSCCO,le15
"[(1E,3E)-4-phenylbuta-1,3-dienyl]benzene",463.15,1.0,C(/C=C/c1ccccc1)=C\c1ccccc1,le15
"Phenanthrene, 3,6-dimethyl- (8CI)(9CI)",441.55,1.0,Cc1ccc2ccc3ccc(C)cc3c2c1,le15
"Phenanthrene, 9-ethyl- (8CI)(9CI)",438.25,1.0,CCc1cc2ccccc2c2ccccc12,le15
"Acetic acid, (1,1-dimethyl-3-phenylpropyl) ester",383.85,1.0,CC(=O)OC(C)(C)CCc1ccccc1,le15
"Butanoic acid, 3-methyl-, 2-phenylethyl ester",381.15,1.0,CC(C)CC(=O)OCCc1ccccc1,le15
"Ethanol, 2-(2-(2-butoxyethoxy)ethoxy)-",401.05,1.0,CCCCOCCOCCOCCO,le15
"2-Propanol, 1-(2-(2-methoxy-1-methylethoxy)-1-methylethoxy)-",390.75,1.0,COCC(C)OCC(C)OCC(C)O,le15
"2H-1,3,5-Thiadiazine-3(4H)-acetic acid, dihydro-5-methyl-6-thioxo-",445.85,1.0,CN1CN(CC(=O)O)CSC1=S,le15
"Phenol, 2,4-bis(1,1-dimethylethyl)-",388.15,1.0,CC(C)(C)c1ccc(O)c(C(C)(C)C)c1,le15
"Phenol, 4-(1,1,3,3-tetramethylbutyl)-",421.45,1.0,CC(C)(C)CC(C)(C)c1ccc(O)cc1,le15
"Phenol, 2-octyl- (9CI)",438.65,1.0,CCCCCCCCc1ccccc1O,le15
"Phenol, 3,5-di-tert-butyl- (8CI)",400.35,1.0,CC(C)(C)c1cc(O)cc(C(C)(C)C)c1,le15
octoxybenzene,382.15,1.0,CCCCCCCCOc1ccccc1,le15
"Phenol, 2,6-bis(1,1-dimethylethyl)-",391.15,1.0,CC(C)(C)c1cccc(C(C)(C)C)c1O,le15
"Phenol, 4-octyl-",383.15,1.0,CCCCCCCCc1ccc(O)cc1,le15
3-methyl-1-(3-methylbutyldisulfanyl)butane,354.35,1.0,CC(C)CCSSCCC(C)C,le15
"Ethanol, 2-chloro-, phosphite (2:1)",415.35,1.0,OCCCl.OCCCl.OP(O)O,le15
"Benzoic acid, 3,6-dichloro-2-hydroxy-",412.45,1.0,O=C(O)c1c(Cl)ccc(Cl)c1O,le15
"Benzenamine, 2,6-dichloro-4-nitro-",422.25,1.0,Nc1c(Cl)cc([N+](=O)[O-])cc1Cl,le15
"4,5-Dichloro-2-nitroaniline",436.85,1.0,Nc1cc(Cl)c(Cl)cc1[N+](=O)[O-],le15
"Benzene, 1,4-dichloro-2,5-dimethoxy-",378.85,1.0,COc1cc(Cl)c(OC)cc1Cl,le15
2-bromonaphthalene,400.95,1.0,Brc1ccc2ccccc2c1,le15
"1,4-Phthalazinedione, 2,3-dihydro-6-nitro-",606.05,1.0,O=c1[nH][nH]c(=O)c2cc([N+](=O)[O-])ccc12,le15
1-bromononane,363.15,1.0,CCCCCCCCCBr,le15
"Butanamide, N-(2-methoxyphenyl)-3-oxo-",430.15,1.0,COc1ccccc1NC(=O)CC(C)=O,le15
"Butanamide, N-(4-methoxyphenyl)-3-oxo-",474.85,1.0,COc1ccc(NC(=O)CC(C)=O)cc1,le15
"1H-Isoindole-1,3(2H)-dione, 2-butyl-3a,4,7,7a-tetrahydro- (9CI)",421.95,1.0,CCCCN1C(=O)C2CC=CCC2C1=O,le15
"Phenol, 3-methyl-5-(1-methylethyl)-, methylcarbamate (9CI)",397.45,1.0,CNC(=O)Oc1cc(C)cc(C(C)C)c1,le15
"Carbamic acid, methyl-, carvacryl ester",397.35,1.0,CNC(=O)Oc1cc(C(C)C)ccc1C,le15
"Carbamic acid, methyl-, o-sec-butylphenyl ester",397.85,1.0,CCC(C)c1ccccc1OC(=O)NC,le15
"Carbamic acid, N,N-dimethyl-, m-isopropylphenyl ester",395.55,1.0,CC(C)c1cccc(OC(=O)N(C)C)c1,le15
"Arsonous dichloride, (2-chloroethenyl)-",357.54999999999984,1.0,ClC=C[As](Cl)Cl,le15
"1H-Pyrrole-2,5-dione, 1-(4-chlorophenyl)- (9CI)",439.05,1.0,O=C1C=CC(=O)N1c1ccc(Cl)cc1,le15
"1,4-Naphthalenedione, 2-amino-3-chloro- (9CI)",414.55,1.0,NC1=C(Cl)C(=O)c2ccccc2C1=O,le15
"1H-Pyrrole-2,5-dione, 1-(2-chlorophenyl)-",426.25,1.0,O=C1C=CC(=O)N1c1ccccc1Cl,le15
"Phenol, 2,6-dichloro-4-nitro-",399.45,1.0,O=[N+]([O-])c1cc(Cl)c(O)c(Cl)c1,le15
"Phenol, 2,4-dichloro-6-nitro-",373.75,1.0,O=[N+]([O-])c1cc(Cl)cc(Cl)c1O,le15
3-bromoquinoline,393.75,1.0,Brc1cnc2ccccc2c1,le15
6-bromoquinoline,405.95,1.0,Brc1ccc2ncccc2c1,le15
7-Bromoquinoline,405.95,1.0,Brc1ccc2cccnc2c1,le15
"1,1,1,5,5,5-hexafluoropentane-2,4-dione",295.95,1.0,O=C(CC(=O)C(F)(F)F)C(F)(F)F,le15
"9,10-Phenanthrenequinone",518.15,1.0,O=C1C(=O)c2ccccc2-c2ccccc21,le15
[acetyloxy(phenyl)methyl] acetate,378.85,1.0,CC(=O)OC(OC(C)=O)c1ccccc1,le15
"Phosphorous acid, tris(1-methylethyl) ester",335.15,1.0,CC(C)OP(OC(C)C)OC(C)C,le15
tripropyl phosphite,363.15,1.0,CCCOP(OCCC)OCCC,le15
9-(Hydroxymethyl)anthracene,469.45,1.0,OCc1c2ccccc2cc2ccccc12,le15
"2-Propyn-1-ol, 1,1-diphenyl- (8CI)",428.05,1.0,C#CC(O)(c1ccccc1)c1ccccc1,le15
"5H-Dibenzo(a,d)cyclohepten-5-one, 10,11-dihydro-",431.45,1.0,O=C1c2ccccc2CCc2ccccc21,le15
"Benzoic acid, 2-hydroxy-, 3-methylbutyl ester",383.05,1.0,CC(C)CCOC(=O)c1ccccc1O,le15
pentyl 2-hydroxybenzoate,386.45,1.0,CCCCCOC(=O)c1ccccc1O,le15
"Benzene, 1,2,4-trimethoxy-5-(1-propenyl)-, (E)-",380.85,1.0,C/C=C/c1cc(OC)c(OC)cc1OC,le15
"1,3-Dioxane, 4-(4-methoxyphenyl)-5-methyl- (9CI)",375.95,1.0,COc1ccc(C2OCOCC2C)cc1,le15
2-phenoxyethyl butanoate,385.45,1.0,CCCC(=O)OCCOc1ccccc1,le15
[(E)-4-phenylbut-3-en-2-yl]benzene,418.35,1.0,CC(/C=C/c1ccccc1)c1ccccc1,le15
"Bicyclo(3.1.1)hept-2-ene-2-ethanol, 6,6-dimethyl-, acetate",373.85,1.0,CC(=O)OCCC1=CCC2CC1C2(C)C,le15
1-cyclohexylpropan-2-ylcyclohexane,388.75,1.0,CC(CC1CCCCC1)C1CCCCC1,le15
2-cyclohexylpropan-2-ylcyclohexane,385.55,1.0,CC(C)(C1CCCCC1)C1CCCCC1,le15
1-cyclohexylpropylcyclohexane,388.35,1.0,CCC(C1CCCCC1)C1CCCCC1,le15
3-(trifluoromethyl)benzoyl chloride,348.65,1.0,O=C(Cl)c1cccc(C(F)(F)F)c1,le15
"Butanoic acid, 2-bromo-3-methyl-, ethyl ester",345.65,1.0,CCOC(=O)C(Br)C(C)C,le15
"Pentanoic acid, 2-bromo-, ethyl ester",353.75,1.0,CCCC(Br)C(=O)OCC,le15
7-bromoheptanoic acid,396.75,1.0,O=C(O)CCCCCCBr,le15