,compound,flashpoint,pure substance,smiles,source
13875,HexamethylDisilane-,272.15,1,C[Si](C)(C)[Si](C)(C)C,le15
13876,HexamethylDisilaThiane,299.15,1,C[Si](C)(C)S[Si](C)(C)C,le15
13877,HexamethylDisilazane,281.15,1,C[Si](C)(C)N[Si](C)(C)C,le15
13878,Hexamethyleneimine,291.0,1,C1CCCNCC1,le15
13879,HexamethylTrisiloxane,293.15,1,C[Si](C)(C)O[SiH2]O[Si](C)(C)C,le15
13880,hexane,250.15,1,CCCCCC,le15
13881,Hexanenitrile,316.15,1,CCCCCC#N,le15
13882,Hexanoicacid,377.15,1,CCCCCC(=O)O,le15
13883,Hexylacetate,318.15,1,CCCCCCOC(C)=O,le15
13884,Hexylamine,282.05,1,CCCCCCN,le15
13885,Hexylbenzene,353.15,1,CCCCCCc1ccccc1,le15
13886,HexylDichloroSilane,337.15,1,CCCCCC[SiH](Cl)Cl,le15
13887,HexylSilane,285.15,1,CCCCCC[SiH3],le15
13888,HexylTrifluoroSilane-,266.15,1,CCCCCC[Si](F)(F)F,le15
13889,HexylTrimethoxySilane,335.15,1,CCCCCC[Si](OC)(OC)OC,le15
13890,hydroxyacetaldehyde,360.15,1,O=CCO,le15
13891,Iodobenzene,347.15,1,Ic1ccccc1,le15
13892,Isobutenal,273.0,1,C=C(C)C=O,le15
13893,Isobutylacetate,291.15,1,CC(=O)OCC(C)C,le15
13894,Isobutylalcohol,301.15,1,CC(C)CO,le15
13895,Isobutylamine,264.15,1,CC(C)CN,le15
13896,Isobutylbenzene,328.15,1,CC(C)Cc1ccccc1,le15
13897,IsobutylButyrate,323.15,1,CCCC(=O)OCC(C)C,le15
13898,Isobutylformate,283.0,1,CC(C)COC=O,le15
13899,Isobutylisobutyrate,313.0,1,CC(C)COC(=O)C(C)C,le15
13900,IsobutylTrichloroSilane,310.15,1,CC(C)C[Si](Cl)(Cl)Cl,le15
13901,IsobutylTrimethoxySilane,315.15,1,CO[Si](CC(C)C)(OC)OC,le15
13902,Isobutylvinylether,264.15,1,C=COCC(C)C,le15
13903,Isobutyraldehyde,254.85,1,CC(C)C=O,le15
13904,Isobutyricacid,328.75,1,CC(C)C(=O)O,le15
13905,Isobutyronitrile,281.0,1,CC(C)C#N,le15
13906,Isocyanatobenzene,324.15,1,O=C=Nc1ccccc1,le15
13907,Isopentylacetate,298.15,1,CC(=O)OCCC(C)C,le15
13908,Isopentylalcohol,316.15,1,CC(C)CCO,le15
13909,Isopentylbutyrate,332.15,1,CCCC(=O)OCCC(C)C,le15
13910,Isoprene,219.15,1,C=CC(=C)C,le15
13911,IsopropenylAcetate,288.75,1,C=C(C)CC(=O)[O-],le15
13912,Isopropylacetate,275.15,1,CC(=O)OC(C)C,le15
13913,Isopropylamine,256.15,1,CC(C)N,le15
13914,Isopropylbenzoate,372.05,1,CC(C)OC(=O)c1ccccc1,le15
13915,Isopropylchloride,241.15,1,CC(C)Cl,le15
13916,Isopropylether,244.0,1,CC(C)OC(C)C,le15
13917,Isopropylformate,267.15,1,CC(C)OC=O,le15
13918,IsopropylVinylether,241.15,1,C=COC(C)C,le15
13919,IsovalericAcid,343.0,1,CC(C)CC(=O)O,le15
13920,Mesitylene,317.0,1,Cc1cc(C)cc(C)c1,le15
13921,Methacrolein,258.15,1,C=C(C)C=O,le15
13922,MethacryloxymethylTrimethylSilane,318.15,1,C=C(C)C(=O)OC[Si](C)(C)C,le15
13923,Methanol,284.15,1,CO,le15
13924,Methoxybenzene,324.15,1,COc1ccccc1,le15
13925,MethoxyTrimethylSilane-,243.15,1,CO[Si](C)(C)C,le15
13926,Methyl2propenoat-,270.15,1,C=CC(=O)OC,le15
13927,methylacetate,263.15,1,COC(C)=O,le15
13928,Methylacrylate,279.15,1,C=CC(=O)OC,le15
13929,Methylbenzene,277.15,1,Cc1ccccc1,le15
13930,Methylbenzoate,356.15,1,COC(=O)c1ccccc1,le15
13931,Methylbutyrate,287.15,1,CCCC(=O)OC,le15
13932,methylcyclohexane,269.15,1,CC1CCCCC1,le15
13933,MethyldichloroSilane-,241.15,1,C[SiH](Cl)Cl,le15
13934,Methylformate,254.15,1,COC=O,le15
13935,MethylIsocyanate,255.15,1,CN=C=O,le15
13936,MethylIsopropenylKetone,286.0,1,C=C(C)C(C)=O,le15
13937,Methylisothiocyanate,305.35,1,CN=C=S,le15
13938,Methylpropionate,271.15,1,CCC(=O)OC,le15
13939,methylpropylether,253.15,1,CCCOC,le15
13940,Methylsalicylate,369.15,1,COc1ccccc1C(=O)[O-],le15
13941,methylsecbutylether,243.0,1,CCC(C)OC,le15
13942,MethylthioBenzene,342.15,1,CSc1ccccc1,le15
13943,MethylTriacetoxySilane,358.15,1,CC(=O)O[Si](C)(OC(C)=O)OC(C)=O,le15
13944,Methyltrichlorosilane,276.15,1,C[Si](Cl)(Cl)Cl,le15
13945,MethylTriethoxySilane,297.15,1,CCO[Si](C)(OCC)OCC,le15
13946,MethylVinylDimethoxySilane,277.15,1,CC=C[SiH](OC)OC,le15
13947,Methylvinylketone,266.15,1,C=CC(C)=O,le15
13948,Nitrobenzene,360.95,1,O=[N+]([O-])c1ccccc1,le15
13949,Nitroethane,301.15,1,CC[N+](=O)[O-],le15
13950,Nonadecane,439.15,1,CCCCCCCCCCCCCCCCCCC,le15
13951,Nonane,304.15,1,CCCCCCCCC,le15
13952,NonylAcetate,372.15,1,CCCCCCCCCOC(C)=O,le15
13953,Nonylbenzene,372.15,1,CCCCCCCCCc1ccccc1,le15
13954,Nonylphenol,413.75,1,CCCCCCCCCc1ccccc1O,le15
13955,Octadecane,438.15,1,CCCCCCCCCCCCCCCCCC,le15
13956,OctamethylCyclotetrasilazane,339.15,1,C[Si]1(C)N[Si](C)(C)N[Si](C)(C)N[Si](C)(C)N1,le15
13957,OctamethylCyclotetrasiloxane,330.15,1,C[Si]1(C)O[Si](C)(C)O[Si](C)(C)O[Si](C)(C)O1,le15
13958,OctamethylTrisiloxane,303.15,1,C[Si](C)(C)O[Si](C)(C)O[Si](C)(C)C,le15
13959,Octane,288.15,1,CCCCCCCC,le15
13960,OctanoicAcid,254.15,1,CCCCCCCC(=O)O,le15
13961,Octanoylchloride,355.15,1,CCCCCCCC(=O)Cl,le15
13962,OctylAcetate,359.15,1,CCCCCCCCOC(C)=O,le15
13963,Pentadecane,405.15,1,CCCCCCCCCCCCCCC,le15
13964,Pentane,224.15,1,CCCCC,le15
13965,Pentanenitrile,313.75,1,CCCCC#N,le15
13966,PentanoicAcid,361.15,1,CCCCC(=O)O,le15
13967,PentylAcetate,297.05,1,CCCCCOC(C)=O,le15
13968,Pentylbenzene,338.15,1,CCCCCc1ccccc1,le15
13969,Pentylformate,299.85,1,CCCCCOC=O,le15
13970,Pentylsalicylate,405.15,1,CCCCCOc1ccccc1C(=O)[O-],le15
13971,PhenacylChloride,391.15,1,O=C(CCl)c1ccccc1,le15
13972,PhenethylDimethylChloroSilane,343.15,1,C[Si](C)(Cl)CCc1ccccc1,le15
13973,PhenethylMethylDichloroSilane,353.15,1,Cl[SiH](Cl)CCCc1ccccc1,le15
13974,PhenethylTrichloroSilane,364.15,1,Cl[Si](Cl)(Cl)CCc1ccccc1,le15
13975,Phenetole,335.95,1,CCOc1ccccc1,le15
13976,Phenol,352.15,1,Oc1ccccc1,le15
13977,PhenylAcetate,353.15,1,O=C([O-])Cc1ccccc1,le15
13978,PhenylDichloroSilane,321.15,1,Cl[SiH](Cl)c1ccccc1,le15
13979,PhenylDimethylAcetoxySilane,345.15,1,CC(C)C(=O)O[SiH2]c1ccccc1,le15
13980,PhenylDimethylChloroSilane,334.15,1,C[Si](C)(Cl)c1ccccc1,le15
13981,PhenylDimethylSilane,311.15,1,C[SiH](C)c1ccccc1,le15
13982,PhenylEthylDichloroSilane,365.15,1,Cl[SiH](Cl)CCc1ccccc1,le15
13983,PhenylIsothiocyanate,360.95,1,S=C=Nc1ccccc1,le15
13984,Phenylmethanethiol,343.15,1,SCc1ccccc1,le15
13985,PhenylmethylAcetate,363.15,1,CC(=O)OCc1ccccc1,le15
13986,PhenylMethylChloroSilane,335.15,1,Cl[SiH2]Cc1ccccc1,le15
13987,PhenylMethylDichloroSilane,355.15,1,Cl[SiH](Cl)Cc1ccccc1,le15
13988,PhenylMethylDiethoxySilane,362.15,1,CCO[SiH](Cc1ccccc1)OCC,le15
13989,PhenylMethylSilane,298.15,1,[SiH3]Cc1ccccc1,le15
13990,PhenylSilane,281.15,1,[SiH3]c1ccccc1,le15
13991,PhenylTrichloroSilane,364.15,1,Cl[Si](Cl)(Cl)c1ccccc1,le15
13992,PhenylTriethoxySilane,369.15,1,CCO[Si](OCC)(OCC)c1ccccc1,le15
13993,PhenylTrifluoroSilane-,283.15,1,F[Si](F)(F)c1ccccc1,le15
13994,PhenylTrimethoxySilane,359.15,1,CO[Si](OC)(OC)c1ccccc1,le15
13995,Piperidine,289.15,1,C1CCNCC1,le15
13996,PropanoicAcid,324.15,1,CCC(=O)O,le15
13997,PropargyloxytrimethylSilane,300.15,1,C#CCO[Si](C)(C)C,le15
13998,Propionaldehyde,243.15,1,CCC=O,le15
13999,Propionitrile,275.15,1,CCC#N,le15
14000,Propionylchloride,285.15,1,CCC(=O)Cl,le15
14001,Propyl2propenoat,293.15,1,C=CC(=O)OCCC,le15
14002,Propylacetate,285.15,1,CCCOC(C)=O,le15
14003,Propylbenzene,320.15,1,CCCc1ccccc1,le15
14004,Propylbutyrate,310.15,1,CCCOC(=O)CCC,le15
14005,Propylformate,270.15,1,CCCOC=O,le15
14006,Propylnitrate,293.15,1,CCCO[N+](=O)[O-],le15
14007,PropylTrisdimethylsiloxySilane,323.15,1,CCC[Si](O[SiH](C)C)(O[SiH](C)C)O[SiH](C)C,le15
14008,Pyridine,293.15,1,c1ccncc1,le15
14009,Pyrrolidine,275.95,1,C1CCNC1,le15
14010,Quinoline,365.15,1,c1ccc2ncccc2c1,le15
14011,Salicylaldehyde,350.95,1,O=Cc1ccccc1O,le15
14012,secAmylTrichloroSilane,303.15,1,CCCC(C)[Si](Cl)(Cl)Cl,le15
14013,secButylbenzene,325.15,1,CCC(C)c1ccccc1,le15
14014,StearicAcid,469.0,1,CCCCCCCCCCCCCCCCCC(=O)O,le15
14015,Styrene,305.15,1,C=Cc1ccccc1,le15
14016,Succinonitrile,405.35,1,N#CCCC#N,le15
14017,tertbutylbenzene,317.0,1,CC(C)(C)c1ccccc1,le15
14018,tertbutylmethylether,245.0,1,COC(C)(C)C,le15
14019,Tetradecane,373.15,1,CCCCCCCCCCCCCC,le15
14020,TetraethoxySilane,323.15,1,CCO[Si](OCC)(OCC)OCC,le15
14021,Tetrahydro2furanmethanol,343.15,1,OCC1CCCO1,le15
14022,Tetrahydrofuran,259.15,1,C1CCOC1,le15
14023,Tetrahydropyran,253.15,1,C1CCOCC1,le15
14024,TetraisocyanatoSilane,323.15,1,O=C=N[Si](N=C=O)(N=C=O)N=C=O,le15
14025,TetrakisDimethylsiloxySilane,340.15,1,C[SiH](C)O[Si](O[SiH](C)C)(O[SiH](C)C)O[SiH](C)C,le15
14026,Tetralin,344.15,1,c1ccc2c(c1)CCCC2,le15
14027,TetramethoxySilane,294.15,1,CO[Si](OC)(OC)OC,le15
14028,TetramethylDiethoxySiloxane,311.15,1,CCO[Si]([O])OC(C)(C)C(C)C,le15
14029,TetramethylDivinylDisiloxane,292.15,1,C=C[Si](C)(C=C)O[Si](C)(C)C,le15
14030,TetramethylSilane-,245.15,1,C[Si](C)(C)C,le15
14031,TetravinylSilane,291.15,1,C=C[Si](C=C)(C=C)C=C,le15
14032,Thiophene,272.05,1,c1ccsc1,le15
14033,Thiophenol,323.75,1,Sc1ccccc1,le15
14034,Toluene,277.15,1,Cc1ccccc1,le15
14035,trans2buten1ol,305.95,1,C/C=C/CO,le15
14036,TrichloroAcetaldehyde,323.15,1,O=CC(Cl)(Cl)Cl,le15
14037,trichloromethylBenzene,354.15,1,ClC(Cl)(Cl)c1ccccc1,le15
14038,TrichloroSilane-,245.15,1,Cl[SiH](Cl)Cl,le15
14039,Tridecane,352.15,1,CCCCCCCCCCCCC,le15
14040,TriethoxyChloroSilane,320.15,1,CCO[Si](Cl)(OCC)OCC,le15
14041,TriethoxySilane,299.15,1,CCO[SiH](OCC)OCC,le15
14042,TriethylAcetoxySilane,314.15,1,CCC(CC)(CC)C(=O)O[SiH3],le15
14043,TriethylChloroSilane,303.15,1,CC[Si](Cl)(CC)CC,le15
14044,Triethylenetetramine,408.15,1,NCCNCCNCCN,le15
14045,Triethylorthoformate,303.15,1,CCOC(OCC)OCC,le15
14046,TriethylSilane-,271.15,1,CC[SiH](CC)CC,le15
14047,TrifluoroAceticAcid,344.15,1,O=C(O)C(F)(F)F,le15
14048,TrifluoromethylBenzene,285.15,1,FC(F)(F)c1ccccc1,le15
14049,TriisopropylSilane,310.15,1,CC(C)[SiH](C(C)C)C(C)C,le15
14050,Trimethoxychlorosilane,295.15,1,CO[Si](Cl)(OC)OC,le15
14051,TrimethylBromoSilane-,270.15,1,C[Si](C)(C)Br,le15
14052,Trimethylchlorosilane-,246.15,1,C[Si](C)(C)Cl,le15
14053,TrimethylFluoroSilane-,238.15,1,C[Si](C)(C)F,le15
14054,TrimethylPhenylSilane,313.15,1,C[Si](C)(C)c1ccccc1,le15
14055,TrimethylSilane-,204.15,1,C[SiH](C)C,le15
14056,TrimethylSilylIsothiocyanate,308.15,1,C[Si](C)(C)N=C=S,le15
14057,TrimethylsilylTrifluoroacetate,273.15,1,C[Si](C)(C)OC(=O)C(F)(F)F,le15
14058,TrimethylVinylSilane-,239.15,1,CC(C)=C(C)[SiH3],le15
14059,TripropylAmine,302.15,1,CCCN(CCC)CCC,le15
14060,TrisdimethylaminoSilane,298.15,1,CN(C)[SiH](N(C)C)N(C)C,le15
14061,TrisTrimethylSiloxyMethylSilane,336.15,1,C[Si](C)(C)OC([SiH3])(O[Si](C)(C)C)O[Si](C)(C)C,le15
14062,TrivinylMethylSilane,288.15,1,C=CC([SiH3])(C=C)C=C,le15
14063,Undecane,333.15,1,CCCCCCCCCCC,le15
14064,Valeraldehyde,285.0,1,CCCCC=O,le15
14065,Valeronitrile,313.0,1,CCCCC#N,le15
14066,Vinylacetate,265.15,1,C=CCC(=O)[O-],le15
14067,VinylDiethylMethylSilane,288.15,1,C=C[Si](C)(CC)CC,le15
14068,VinylDimethylEthoxySilane,277.15,1,C=C[Si](C)(C)OCC,le15
14069,Vinylmethyldichlorosilane,277.15,1,C=CC[SiH](Cl)Cl,le15
14070,VinylMethylDiethoxySilane,289.15,1,C=CC[SiH](OCC)OCC,le15
14071,VinylPentamethylDisiloxane,285.15,1,C=C[Si](C)(C)O[Si](C)(C)C,le15
14072,VinylTriacetoxySilane,361.15,1,C=C[Si](OC(C)=O)(OC(C)=O)OC(C)=O,le15
14073,Vinyltrichlorosilane,288.65,1,C=C[Si](Cl)(Cl)Cl,le15
14074,VinylTriethoxySilane,312.15,1,C=C[Si](OCC)(OCC)OCC,le15
14075,VinylTriethylSilane,302.15,1,C=C[Si](CC)(CC)CC,le15
14076,VinylTrimethoxySilane,296.15,1,C=C[Si](OC)(OC)OC,le15
14077,VinylTrimethylSilane-,253.15,1,C=C[Si](C)(C)C,le15
14078,"1,2propadiene",172.0,1,C=C=C,le15
14079,Aziridine,262.05,1,C1CN1,le15
14080,Acetaldehyde,246.15,1,CC=O,le15
14081,Dimethylether,232.15,1,COC,le15
14082,ethanol,286.15,1,CCO,le15
14083,2propenenitrile,273.15,1,C=CC#N,le15
14084,"1,3butadiene",197.0,1,C=CC=C,le15
14085,1butyne-,210.15,1,C#CCC,le15
14086,2butyne-,224.15,1,CC#CC,le15
14087,2propenal,254.25,1,C=CC=O,le15
14088,MethylIsocyanate,255.15,1,CN=C=O,le15
14089,2methylaziridine-,263.15,1,CC1CN1,le15
14090,Allylamine,244.15,1,C=CCN,le15
14091,Acetone,253.15,1,CC(C)=O,le15
14092,Allylalcohol,294.15,1,C=CCO,le15
14093,Propionaldehyde,243.15,1,CCC=O,le15
14094,Isopropylamine,256.15,1,CC(C)N,le15
14095,Aceticacid,312.15,1,CC(=O)O,le15
14096,hydroxyacetaldehyde,360.15,1,O=CCO,le15
14097,Methylformate,254.15,1,COC=O,le15
14098,2propanol,285.15,1,CC(C)O,le15
14099,Ethylmethylether,235.95,1,CCOC,le15
14100,"1,2ethanediamine",307.0,1,NCCN,le15
14101,EthylSilane-,213.15,1,CC[SiH3],le15
14102,"1,2ethanediol",384.0,1,OCCO,le15
14103,Dimethylsulfide,237.15,1,CSC,le15
14104,Ethanethiol,256.15,1,CCS,le15
14105,Ethylchloride,230.15,1,CCCl,le15
14106,"1,3cyclopentadiene",298.0,1,C1=CCC=C1,le15
14107,1pentene3yne-,243.15,1,C=CC#CC,le15
14108,1pentene4yne-,229.15,1,C#CCC=C,le15
14109,2methyl1butene3yne-,221.15,1,C#CC(=C)C,le15
14110,3butenenitrile,294.15,1,C=CCC#N,le15
14111,Cyclopropanecarbonitrile,305.95,1,N#CC1CC1,le15
14112,1Hpyrazole,355.15,1,c1cn[nH]c1,le15
14113,"1,2pentadiene-",233.15,1,C=C=CCC,le15
14114,"1,3pentadiene-",231.15,1,C=CC=CC,le15
14115,"1,4pentadiene",277.0,1,C=CCC=C,le15
14116,"2,3pentadiene-",236.15,1,CC=C=CC,le15
14117,3methyl1butyne-,221.15,1,C#CC(C)C,le15
14118,Isoprene,219.15,1,C=CC(=C)C,le15
14119,Butyronitrile,289.85,1,CCCC#N,le15
14120,Isobutyronitrile,281.0,1,CC(C)C#N,le15
14121,"2,3dihydrofuran",249.0,1,C1=COCC1,le15
14122,"2,5dihydrofuran-",257.15,1,C1=CCOC1,le15
14123,Crotonaldehyde,286.15,1,C/C=C/C=O,le15
14124,Isobutenal,273.0,1,C=C(C)C=O,le15
14125,Methacrolein,258.15,1,C=C(C)C=O,le15
14126,Methylvinylketone,266.15,1,C=CC(C)=O,le15
14127,2pentene-,226.15,1,CC=CCC,le15
14128,Cyclopentane,236.15,1,C1CCCC1,le15
14129,Pyrrolidine,275.95,1,C1CCNC1,le15
14130,"2,3dimethyloxirane",258.15,1,CC1OC1C,le15
14131,2butanone,264.15,1,CCC(C)=O,le15
14132,2methyl2propen1ol,306.45,1,C=C(C)CO,le15
14133,3buten1ol,310.95,1,C=CCCO,le15
14134,Butyraldehyde,266.45,1,CCCC=O,le15
14135,Ethylvinylether,255.15,1,C=COCC,le15
14136,Isobutyraldehyde,254.85,1,CC(C)C=O,le15
14137,Tetrahydrofuran,259.15,1,C1CCOC1,le15
14138,trans2buten1ol,305.95,1,C/C=C/CO,le15
14139,"2,2dimethylpropane",208.0,1,CC(C)(C)C,le15
14140,Pentane,224.15,1,CCCCC,le15
14141,Methylisothiocyanate,305.35,1,CN=C=S,le15
14142,Butylamine,272.15,1,CCCCN,le15
14143,Diethylamine,250.15,1,CCNCC,le15
14144,Isobutylamine,264.15,1,CC(C)CN,le15
14145,"1,3dioxolane",275.0,1,C1COCO1,le15
14146,Ethylformate,253.15,1,CCOC=O,le15
14147,methylacetate,263.15,1,COC(C)=O,le15
14148,PropanoicAcid,324.15,1,CCC(=O)O,le15
14149,2butanol,297.15,1,CCC(C)O,le15
14150,4butylalcohol,284.15,1,CCCCO,le15
14151,Diethylether,228.15,1,CCOCC,le15
14152,Isobutylalcohol,301.15,1,CC(C)CO,le15
14153,methylpropylether,253.15,1,CCCOC,le15
14154,"1,2propanediamine",306.0,1,CC(N)CN,le15
14155,"1,3propanediamine",321.0,1,NCCCN,le15
14156,TrimethylSilane-,204.15,1,C[SiH](C)C,le15
14157,Glycine ,372.666,1,NCC(=O)O,le15
14158,Nitroethane,301.15,1,CC[N+](=O)[O-],le15
14159,1amino2propanol,350.35,1,CC(O)CN,le15
14160,2methylaminoEthanol,347.05,1,CNCCO,le15
14161,3amino1propanol,352.15,1,NCCCO,le15
14162,"1,2propanediol",380.0,1,CC(O)CO,le15
14163,2methoxyethanol,312.15,1,COCCO,le15
14164,Dimethoxymethane,255.0,1,COCOC,le15
14165,2fluoro2methylpropane,260.95,1,CC(C)(C)F,le15
14166,1propanethiol,252.55,1,CCCS,le15
14167,2chloro1propene-,239.15,1,C=C(C)Cl,le15
14168,3chloro1propene-,241.15,1,C=CCCl,le15
14169,Allylchloride,241.15,1,C=CCCl,le15
14170,Benzene,262.15,1,c1ccccc1,le15
14171,Acetylchloride,277.15,1,CC(=O)Cl,le15
14172,Isopropylchloride,241.15,1,CC(C)Cl,le15
14173,Pyridine,293.15,1,c1ccncc1,le15
14174,Succinonitrile,405.35,1,N#CCCC#N,le15
14175,"1,3cyclohexadiene",299.0,1,C1=CCCC=C1,le15
14176,"1,4cyclohexadiene",267.0,1,C1=CCC=CC1,le15
14177,2chloroethanol,333.15,1,OCCCl,le15
14178,"1,2hexadiene-",253.15,1,C=C=CCCC,le15
14179,"1,4hexadiene",252.15,1,C=CCC=CC,le15
14180,"1,5hexadiene",246.0,1,C=CCCC=C,le15
14181,"2,4hexadiene-",266.15,1,CC=CC=CC,le15
14182,3hexyne-,256.15,1,CCC#CCC,le15
14183,"2,2dimethylpropanenitrile",277.0,1,CC(C)(C)C#N,le15
14184,Pentanenitrile,313.75,1,CCCCC#N,le15
14185,Valeronitrile,313.0,1,CCCCC#N,le15
14186,4methylene2oxetanone,307.15,1,C=C1CC(=O)O1,le15
14187,"2,3dihydro5methylfuran",261.0,1,CC1=CCCO1,le15
14188,"3,4dihydro2Hpyran",255.15,1,C1=COCCC1,le15
14189,3methyl3buten2one,294.15,1,C=C(C)C(C)=O,le15
14190,Cyclopentanone,299.15,1,O=C1CCCC1,le15
14191,Thiophene,272.05,1,c1ccsc1,le15
14192,"2,3dimethyl1butene",255.0,1,C=C(C)C(C)C,le15
14193,"2,3dimethyl2butene",257.0,1,CC(C)=C(C)C,le15
14194,"3,3dimethyl1butene",245.0,1,C=CC(C)(C)C,le15
14195,4methyl2pentene-,238.15,1,CC=CC(C)C,le15
14196,Cyclohexane,253.15,1,C1CCCCC1,le15
14197,Piperidine,289.15,1,C1CCNCC1,le15
14198,"2,3butanedione",299.85,1,CC(=O)C(C)=O,le15
14199,2methyl2propenoicAcid,340.15,1,C=C(C)C(=O)O,le15
14200,Methyl2propenoat-,270.15,1,C=CC(=O)OC,le15
14201,Methylacrylate,279.15,1,C=CC(=O)OC,le15
14202,Vinylacetate,265.15,1,C=CCC(=O)[O-],le15
14203,2methyltetrahydrofuran,262.05,1,CC1CCCO1,le15
14204,2pentanone,280.35,1,CCCC(C)=O,le15
14205,3methylbutanal-,268.15,1,CC(C)CC=O,le15
14206,Cyclopentanol,324.15,1,OC1CCCC1,le15
14207,IsopropylVinylether,241.15,1,C=COC(C)C,le15
14208,MethylIsopropenylKetone,286.0,1,C=C(C)C(C)=O,le15
14209,Tetrahydropyran,253.15,1,C1CCOCC1,le15
14210,Valeraldehyde,285.0,1,CCCCC=O,le15
14211,"2,2dimethylbutane",225.15,1,CCC(C)(C)C,le15
14212,"2,3dimethylbutane",244.15,1,CC(C)C(C)C,le15
14213,hexane,250.15,1,CCCCCC,le15
14214,2methylbutylAmine-,257.15,1,CCC(C)CN,le15
14215,2pentaneamine,266.45,1,CCCC(C)N,le15
14216,"1,3dioxane",274.15,1,C1COCOC1,le15
14217,"1,4dioxane",285.15,1,C1COCCO1,le15
14218,1methoxy2propanone,293.15,1,COCC(C)=O,le15
14219,Butyricacid,350.15,1,CCCC(=O)O,le15
14220,Ethylacetate,270.15,1,CCOC(C)=O,le15
14221,Isobutyricacid,328.75,1,CC(C)C(=O)O,le15
14222,Isopropylformate,267.15,1,CC(C)OC=O,le15
14223,Methylpropionate,271.15,1,CCC(=O)OC,le15
14224,Propylformate,270.15,1,CCCOC=O,le15
14225,1pentanol,306.15,1,CCCCCO,le15
14226,"2,2dimethyl1propanol",310.15,1,CC(C)(C)CO,le15
14227,Isopentylalcohol,316.15,1,CC(C)CCO,le15
14228,methylsecbutylether,243.0,1,CCC(C)OC,le15
14229,tertbutylmethylether,245.0,1,COC(C)(C)C,le15
14230,DiethylSilane-,253.15,1,CC[SiH2]CC,le15
14231,EthylDimethylSilane-,248.15,1,CC[SiH](C)C,le15
14232,TetramethylSilane-,245.15,1,C[Si](C)(C)C,le15
14233,1nitropropane,308.75,1,CCC[N+](=O)[O-],le15
14234,2nitropropane,297.15,1,CC(C)[N+](=O)[O-],le15
14235,1methoxy2propaneamine,281.15,1,COCC(C)N,le15
14236,2amino2methyl1propanol,340.35,1,CC(C)(N)CO,le15
14237,3methoxypropylamine,305.35,1,COCCCN,le15
14238,"1,1dimethoxyethane",256.0,1,COC(C)OC,le15
14239,"1,2butanediol",366.0,1,CCC(O)CO,le15
14240,"1,2dimethoxyethane",271.45,1,COCCOC,le15
14241,"1,3butanediol",394.0,1,CC(O)CCO,le15
14242,"1,4butanediol",394.25,1,OCCCCO,le15
14243,1methoxy2propanol,305.15,1,COCC(C)O,le15
14244,"2,3butanediol",358.0,1,CC(O)C(C)O,le15
14245,2ethoxyethanol,316.45,1,CCOCCO,le15
14246,2methoxy1propanol,309.15,1,COC(C)CO,le15
14247,1butanethiol,274.85,1,CCCCS,le15
14248,2methyl1propanethiol-,264.15,1,CC(C)CS,le15
14249,Diethylsulfide,263.75,1,CCSCC,le15
14250,2methylallylchloride,261.15,1,C=C(C)CCl,le15
14251,Ethylnitrate,283.15,1,CCO[N+](=O)[O-],le15
14252,"1,6heptadiyne",282.0,1,C#CCCCC#C,le15
14253,"2,5norbornadiene",262.0,1,C1=CC2C=CC1C2,le15
14254,Methylbenzene,277.15,1,Cc1ccccc1,le15
14255,Toluene,277.15,1,Cc1ccccc1,le15
14256,TrimethylFluoroSilane-,238.15,1,C[Si](C)(C)F,le15
14257,Propionylchloride,285.15,1,CCC(=O)Cl,le15
14258,2chlorobutane,258.15,1,CCC(C)Cl,le15
14259,Butylchloride,263.75,1,CCCCCl,le15
14260,2methylpyridine,299.15,1,Cc1ccccn1,le15
14261,Aniline,343.15,1,Nc1ccccc1,le15
14262,Phenol,352.15,1,Oc1ccccc1,le15
14263,"1,2ethanedithiol",323.0,1,SCCS,le15
14264,2chloro1propanol,324.85,1,CC(Cl)CO,le15
14265,DimethylChloroSilane-,248.15,1,C[SiH](C)Cl,le15
14266,2furancarboxaldehyde,333.15,1,O=Cc1ccco1,le15
14267,Fluorobenzene,258.15,1,Fc1ccccc1,le15
14268,2cyclohexen1one,307.15,1,O=C1C=CCCC1,le15
14269,"1,6heptadiene",263.0,1,C=CCCCC=C,le15
14270,"1,1dichloroethylene",248.0,1,C=C(Cl)Cl,le15
14271,Hexanenitrile,316.15,1,CCCCCC#N,le15
14272,2methyl2pentenal,304.15,1,CCC=C(C)C=O,le15
14273,4methyl3penten2one,304.15,1,CC(=O)C=C(C)C,le15
14274,5hexen2one,296.15,1,C=CCCC(C)=O,le15
14275,Cyclohexanone,317.15,1,O=C1CCCCC1,le15
14276,3methylthiophene,284.15,1,Cc1ccsc1,le15
14277,2ethyl1pentene-,263.15,1,C=C(CC)CCC,le15
14278,3ethyl1pentene-,256.15,1,C=CC(CC)CC,le15