smiles,compound,flashpoint,source,pure substance
CCNc1cccc(C)c1,"Benzenamine, N-ethyl-3-methyl-",362.15,le15,1
CN(C)Cc1ccccc1,"Benzenemethanamine, N,N-dimethyl-",327.5499999999999,le15,1
Cc1cccc(N(C)C)c1,"N,N,3-trimethylaniline",354.15,le15,1
Cc1cc(C)c(N)cc1C,"Benzenamine, 2,4,5-trimethyl- (9CI)",268.15,le15,1
C[C@@H](N)Cc1ccccc1,(2R)-1-phenylpropan-2-amine,360.55,le15,1
CC(CN)c1ccccc1,"Benzeneethanamine, beta-methyl- (9CI)",357.75,le15,1
CC(C)(N)c1ccccc1,2-phenylpropan-2-amine,357.2,le15,1
CNCCc1ccccc1,"Benzeneethanamine, N-methyl- (9CI)",347.0499999999999,le15,1
CCN(C)c1ccccc1,"Aniline, N-ethyl-N-methyl- (8CI)",347.5499999999999,le15,1
CCNc1ccc(C)cc1,"p-Toluidine, N-ethyl- (8CI)",357.25,le15,1
CCCNc1ccccc1,"Benzenamine, N-propyl-",359.95,le15,1
CCc1ncc(C)cc1C,"2-ethyl-3,5-dimethylpyridine",337.65,le15,1
NCCCc1ccccc1,3-phenylpropan-1-amine,468.15,le15,1
Cc1ccc(CCN)cc1,p-Methylphenethylamine,363.15,le15,1
CC(C)(C)c1ccncc1,4-tert-butylpyridine,336.45,le15,1
CCCCc1ccncc1,4-butylpyridine,354.821,le15,1
CCNCc1ccccc1,"Benzenemethanamine, N-ethyl-",339.15,le15,1
Cc1cc(C)c(C)c(C)n1,"2,3,4,6-tetramethylpyridine",347.15,le15,1
CCc1cccc(C)c1N,"Benzenamine, 2-ethyl-6-methyl-",362.55,le15,1
CCc1cc(C)nc(C)c1,"4-ethyl-2,6-dimethylpyridine",330.5499999999999,le15,1
Cc1cc(C)c(N)c(C)c1,"Benzenamine, 2,4,6-trimethyl-",369.15,le15,1
CCCCc1cccnc1,3-butylpyridine,352.15,le15,1
CC(C)Nc1ccccc1,"Benzenamine, N-(1-methylethyl)-",360.85,le15,1
CCCc1ccccc1N,"Benzenamine, 2-propyl- (9CI)",370.95,le15,1
CCCCc1ccccn1,2-butylpyridine,341.95,le15,1
CSC(=S)N(C)C,"Carbamodithioic acid, dimethyl-, methyl ester (9CI)",327.0499999999999,le15,1
CCN(CC)C(=O)Cl,"Carbamoyl chloride, diethyl-",348.15,le15,1
CCN(CC)CCCl,2-Chloroethyldiethylamine,295.95,le15,1
C[As](C)(C)=O,"Arsine oxide, trimethyl-",329.5499999999999,le15,1
O=Nc1ccc(N=O)cc1,"Benzene, 1,4-dinitroso-",376.65,le15,1
O=c1[nH]cnc2[nH]ncc12,"1,5-Dihydro-4H-pyrazolo(3,4-d)pyrimidin-4-one (9CI)",402.85,le15,1
O=c1[nH]cc2ncnc-2[nH]1,"2H-Purin-2-one, 1,3-dihydro-",640.25,le15,1
COC(=O)c1ccccc1,"Benzoic acid, methyl ester",353.35,le15,1
Cc1cccc(C(=O)O)c1,"Benzoic acid, 3-methyl-",423.15,le15,1
CC(=O)c1ccc(O)cc1,1-(4-hydroxyphenyl)ethanone,394.35,le15,1
Cc1ccc(C(=O)O)cc1,"Benzoic acid, 4-methyl-",397.85,le15,1
O=C(O)Cc1ccccc1,"Acetic acid, phenyl-",429.363,le15,1
O=COCc1ccccc1,"Formic acid, phenylmethyl ester",355.15,le15,1
CC(=O)c1ccccc1O,"Acetophenone, 2'-hydroxy- (8CI)",360.65,le15,1
COc1ccc(C=O)cc1,"Benzaldehyde, 4-methoxy-",382.05,le15,1
COc1ccccc1C=O,"Benzaldehyde, 2-methoxy-",390.15,le15,1
CC1=CC(=O)C=C(C)C1=O,"2,5-Cyclohexadiene-1,4-dione, 2,6-dimethyl- (9CI)",344.25,le15,1
COc1cccc(C=O)c1,"Benzaldehyde, 3-methoxy-",383.15,le15,1
Cc1ccc(O)c(C=O)c1,2-hydroxy-5-methylbenzaldehyde,358.25,le15,1
Cc1ccc(C=O)c(O)c1,2-hydroxy-4-methylbenzaldehyde,361.15,le15,1
CC1=CC(=O)C(C)=CC1=O,"2,5-Cyclohexadiene-1,4-dione, 2,5-dimethyl-",344.25,le15,1
OCC(CO)(CO)CO,"1,3-Propanediol, 2,2-bis(hydroxymethyl)-",473.25,le15,1
N=C(NO)c1ccccc1,"Benzenecarboximidamide, N-hydroxy- (9CI)",412.85,le15,1
NNC(=O)c1ccccc1,"Benzoic acid, hydrazide",412.85,le15,1
COC(OC)(OC)OC,tetramethoxymethane,279.85,le15,1
NC(=O)c1ccc(N)cc1,"Benzamide, p-amino- (8CI)",438.05,le15,1
CC(=O)Nc1ccncc1,"Acetamide, N-4-pyridinyl- (9CI)",435.15,le15,1
CC(=O)Nc1cccnc1,N-pyridin-3-ylacetamide,424.95,le15,1
O=S1(=O)CCCCO1,"1,2-Oxathiane, 2,2-dioxide",408.35,le15,1
CC1CCOS(=O)O1,"4-methyl-1,3,2-dioxathiane 2-oxide",342.45,le15,1
c1ccc2nsnc2c1,"2,1,3-benzothiadiazole",368.15,le15,1
CC(C)c1ccccc1O,"Phenol, 2-(1-methylethyl)-",380.15,le15,1
CC(C)c1ccc(O)cc1,"Phenol, 4-(1-methylethyl)-",368.45,le15,1
OCCCc1ccccc1,"1-Propanol, 3-phenyl-",382.15,le15,1
Cc1cc(C)c(O)cc1C,"2,4,5-trimethylphenol",375.45,le15,1
Cc1ccc(O)c(C)c1C,"2,3,4-trimethylphenol",378.45,le15,1
Cc1cc(O)cc(C)c1C,"Phenol, 3,4,5-trimethyl-",382.25,le15,1
Cc1cc(C)c(O)c(C)c1,"Phenol, 2,4,6-trimethyl-",369.85,le15,1
Cc1ccc(C(C)O)cc1,1-(4-methylphenyl)ethanol,375.15,le15,1
CCOCc1ccccc1,ethoxymethylbenzene,326.0499999999999,le15,1
CCOc1ccccc1C,"Benzene, 1-ethoxy-2-methyl-",337.35,le15,1
CC(C)(O)c1ccccc1,"Benzenemethanol, alpha,alpha-dimethyl-",360.95,le15,1
CCOc1ccc(C)cc1,"Phenetole, p-methyl- (8CI)",343.15,le15,1
CCCc1ccc(O)cc1,"Phenol, 4-propyl-",379.25,le15,1
Cc1cc(C)c(C)c(O)c1,"Phenol, 2,3,5-trimethyl-",376.75,le15,1
Cc1ccc(CCO)cc1,"Phenethyl alcohol, p-methyl- (8CI)",380.35,le15,1
CCc1ccc(CO)cc1,"Benzenemethanol, 4-ethyl-",377.55,le15,1
COc1cc(C)cc(C)c1,"1-methoxy-3,5-dimethylbenzene",338.15,le15,1
COc1c(C)cccc1C,"2-methoxy-1,3-dimethylbenzene",340.15,le15,1
CC(CO)c1ccccc1,"Phenethyl alcohol, beta-methyl-",381.15,le15,1
CCc1ccc(OC)cc1,1-ethyl-4-methoxybenzene,341.65,le15,1
CCc1ccc(C)cc1O,"m-Cresol, 6-ethyl-",368.55,le15,1
COc1cc(C)ccc1C,"2-methoxy-1,4-dimethylbenzene",339.25,le15,1
CC(C)Oc1ccccc1,propan-2-yloxybenzene,335.0499999999999,le15,1
COc1cccc(C)c1C,"1-methoxy-2,3-dimethylbenzene",342.95,le15,1
COCCc1ccccc1,"Benzene, (2-methoxyethyl)-",325.65,le15,1
COc1ccc(C)c(C)c1,"4-methoxy-1,2-dimethylbenzene",348.75,le15,1
COc1ccc(C)cc1C,"1-methoxy-2,4-dimethylbenzene",338.25,le15,1
CCc1ccccc1OC,1-ethyl-2-methoxybenzene,333.75,le15,1
Cc1ccccc1CCO,2-(2-methylphenyl)ethanol,381.45,le15,1
Cc1cc(C)cc(CO)c1,"(3,5-dimethylphenyl)methanol",379.85,le15,1
CCC(O)c1ccccc1,"Benzenemethanol, alpha-ethyl- (9CI)",363.15,le15,1
CCCc1cccc(O)c1,3-propylphenol,381.95,le15,1
CCc1cc(C)cc(O)c1,3-ethyl-5-methylphenol,376.65,le15,1
Cc1ccc(C)c(O)c1C,"Phenol, 2,3,6-trimethyl-",373.15,le15,1
Cc1ccc(CO)c(C)c1,"(2,4-dimethylphenyl)methanol",374.85,le15,1
CN(C)c1ccc(N)cc1,"1,4-Benzenediamine, N,N-dimethyl-",361.75,le15,1
Cc1nc(C)c(C)nc1C,"2,3,5,6-Tetramethylpyrazine",344.75,le15,1
NCc1cccc(CN)c1,"m-Xylene-alpha,alpha'-diamine (8CI)",403.55,le15,1
CN(C)c1ccccc1N,"2-N,2-N-dimethylbenzene-1,2-diamine",355.45,le15,1
CN(C)c1cccc(N)c1,"3-N,3-N-dimethylbenzene-1,3-diamine",361.95,le15,1
CC(C)(C#N)C(C)(C)C#N,"Butanedinitrile, tetramethyl- (9CI)",389.55,le15,1
Cc1c(N)ccc(N)c1C,"p-Phenylenediamine, 2,3-dimethyl-",424.65,le15,1
CNCCc1ccccn1,"Pyridine, 2-(2-(methylamino)ethyl)-",369.85,le15,1
CCc1nc(C)cnc1C,"3-ethyl-2,5-dimethylpyrazine",342.5499999999999,le15,1
CCc1nccnc1CC,"2,3-diethylpyrazine",337.15,le15,1
N#CCCCCCCC#N,Octanedinitrile,419.35,le15,1
C=CSc1ccccc1,Phenyl vinyl sulphide,318.75,le15,1
c1ccc2c(c1)CCS2,"2,3-dihydro-1-benzothiophene",357.0499999999999,le15,1
CO[Si](C)(OC)OC,"Silane, methyltrimethoxy-",284.25,le15,1
CN(C)S(=O)N(C)C,N-dimethylsulfinamoyl-N-methylmethanamine,353.35,le15,1
CC1=CCC2CC1C2(C)C,"Bicyclo(3.1.1)hept-2-ene, 2,6,6-trimethyl-",305.372,le15,1
CC1=CCC(C(C)C)C=C1,"1,3-Cyclohexadiene, 2-methyl-5-(1-methylethyl)-",320.35,le15,1
C=C1CC=C(C(C)C)CC1,4-methylidene-1-propan-2-ylcyclohexene,319.65,le15,1
CC1=CCC(C(C)C)=CC1,"1,4-Cyclohexadiene, 1-methyl-4-(1-methylethyl)-",324.85,le15,1
CC1=CC=C(C(C)C)CC1,"1,3-Cyclohexadiene, 1-methyl-4-(1-methylethyl)-",319.25,le15,1
C=CC(=C)CCC=C(C)C,"1,6-Octadiene, 7-methyl-3-methylene-",317.5499999999999,le15,1
C=C(C)C1CC=C(C)CC1,"Cyclohexene, 1-methyl-4-(1-methylethenyl)-",319.15,le15,1
C1C2CC3CC1CC(C2)C3,"Tricyclo(3.3.1.13,7)decane",322.0499999999999,le15,1
CC12C=CC(CC1)C2(C)C,"4,7,7-trimethylbicyclo[2.2.1]hept-2-ene",298.0499999999999,le15,1
C=C1CC2CC1CC2(C)C,"2,2-dimethyl-5-methylidenebicyclo[2.2.1]heptane",308.0499999999999,le15,1
CC1=CC2C(CC1)C2(C)C,"4,7,7-trimethylbicyclo[4.1.0]hept-4-ene",311.45,le15,1
CC(C)=C1C=CC(C)CC1,"Cyclohexene, 3-methyl-6-(1-methylethylidene)- (9CI)",337.5499999999999,le15,1
CC1=CCC2(C(C)C)CC12,2-methyl-5-propan-2-ylbicyclo[3.1.0]hex-2-ene,306.75,le15,1
C/C=C(C)/C=C/C=C(C)C,"2,4,6-Octatriene, 2,6-dimethyl-, (4E,6E)-",324.95,le15,1
C[C@H]1C=C[C@@H]2C(C1)C2(C)C,"(1R,4R)-4,7,7-TRIMETHYLBICYCLO[4.1.0]HEPT-2-ENE",303.25,le15,1
C=C1[C@H]2CC[C@H](C2)C1(C)C,"(1S,4R)-3,3-dimethyl-2-methylidenebicyclo[2.2.1]heptane",308.0499999999999,le15,1
C=C1CC[C@H]2C[C@@H]1C2(C)C,"Bicyclo(3.1.1)heptane, 6,6-dimethyl-2-methylene-, (1S,5S)-",308.0499999999999,le15,1
C=C1C=CC(C(C)C)CC1,3-methylidene-6-propan-2-ylcyclohexene,317.15,le15,1
C=C(C)C1CC=C(C)CC1,1-methyl-4-prop-1-en-2-ylcyclohexene,321.15,le15,1
CC1=CCC2CC1C2(C)C,"4,6,6-trimethylbicyclo[3.1.1]hept-3-ene",305.35,le15,1
CC1=CC[C@@H]2C[C@H]1C2(C)C,"(1R,5R)-4,6,6-trimethylbicyclo[3.1.1]hept-3-ene",305.35,le15,1
CC1=CC2C(CC1)C2(C)C,2carene,428.15,le15,1
S=C1SCCS1,"1,3-dithiolane-2-thione",412.65,le15,1
C[Si](C)c1ccccc1,dimethyl(phenyl)silicon,308.15,le15,1
C=C[Si](C=C)(C=C)C=C,tetrakis(ethenyl)silane,279.25,le15,1
CCOC(=O)C(=O)Cl,ethyl 2-chloro-2-oxoacetate,314.15,le15,1
CC(C)OC(=O)CCl,"Acetic acid, chloro-, isopropyl ester (8CI)",329.15,le15,1
CCOC(=O)C(C)Cl,"Propionic acid, 2-chloro-, ethyl ester (8CI)",311.15,le15,1
CCCCOC(=O)Cl,butyl carbonochloridate,312.15,le15,1
CCOC(=O)CCCl,"Propionic acid, 3-chloro-, ethyl ester (8CI)",327.5499999999999,le15,1
CC(=O)OCCCCl,3-chloropropyl acetate,340.95,le15,1
COC(=O)CCCCl,methyl 4-chlorobutanoate,332.5499999999999,le15,1
CCCOC(=O)CCl,propyl 2-chloroacetate,342.45,le15,1
CCC(C)OC(=O)Cl,butan-2-yl carbonochloridate,308.95,le15,1
CC(C)COC(=O)Cl,2-methylpropyl carbonochloridate,300.95,le15,1
OCCCCCCCl,"1-Hexanol, 6-chloro-",372.05,le15,1
CCC(=O)Br,propanoyl bromide,325.35,le15,1
CC(=O)CBr,1-bromopropan-2-one,348.45,le15,1
BrCC1CO1,2-(bromomethyl)oxirane,329.25,le15,1
CCC(C)Br,2-bromobutane,294.15,le15,1
CC(C)CBr,"Propane, 1-bromo-2-methyl-",291.15,le15,1
CCCCBr,"Butane, 1-bromo-",297.0499999999999,le15,1
CC(C)(C)Br,"Propane, 2-bromo-2-methyl-",291.15,le15,1
CCC(C)Br,2bromobutane,294.0,le15,1
NC(=O)c1ccccc1O,"Benzamide, 2-hydroxy-",419.45,le15,1
Cc1ccccc1[N+](=O)[O-],"Benzene, 1-methyl-2-nitro-",379.261,le15,1
COC(=O)c1cccnc1,methyl pyridine-3-carboxylate,368.75,le15,1
ON=Cc1ccccc1O,"Benzaldehyde, 2-hydroxy-, oxime",405.45,le15,1
Cc1cccc([N+](=O)[O-])c1,"Benzene, 1-methyl-3-nitro-",374.15,le15,1
Cc1ccc([N+](=O)[O-])cc1,"Benzene, 1-methyl-4-nitro-",376.15,le15,1
Nc1ccccc1C(=O)O,"Benzoic acid, 2-amino-",415.55,le15,1
Nc1ccc(C(=O)O)cc1,"Benzoic acid, 4-amino-",432.55,le15,1
O=C(NO)c1ccccc1,"Benzamide, N-hydroxy-",474.15,le15,1
COc1ccc(N=O)cc1,p-Methoxynitrosobenzene,384.15,le15,1
NC(=O)Oc1ccccc1,"Carbamic acid, phenyl ester (8CI)(9CI)",432.45,le15,1
COC(=O)c1ccncc1,methyl pyridine-4-carboxylate,350.95,le15,1
CCOc1ccccc1N,"Benzenamine, 2-ethoxy-",372.35,le15,1
CN(C)c1cccc(O)c1,"Phenol, 3-(dimethylamino)-",405.85,le15,1
COc1ccc(N)c(C)c1,"Benzenamine, 4-methoxy-2-methyl-",386.65,le15,1
COc1ccc(C)cc1N,"Benzenamine, 2-methoxy-5-methyl-",384.15,le15,1
OCCNc1ccccc1,"Ethanol, 2-(phenylamino)-",421.15,le15,1
CCOc1ccc(N)cc1,"Benzenamine, 4-ethoxy-",383.45,le15,1
CCNc1cccc(O)c1,"Phenol, 3-(ethylamino)- (9CI)",420.35,le15,1
CCOc1cccc(N)c1,"Benzenamine, 3-ethoxy-",387.95,le15,1
CCc1ccc(C)[n+]([O-])c1,"Pyridine, 5-ethyl-2-methyl-, 1-oxide (9CI)",406.05,le15,1
CC(O)c1cccc(N)c1,"Benzenemethanol, 3-amino-alpha-methyl- (9CI)",399.25,le15,1
OCCCc1cccnc1,3-(3-Pyridyl)propan-1-ol,389.55,le15,1
OCCCc1ccccn1,3-pyridin-2-ylpropan-1-ol,376.95,le15,1
Cc1cccc(C)c1NO,"Benzenamine, N-hydroxy-2,6-dimethyl- (9CI)",375.85,le15,1
Cc1ccc(C)c(NO)c1,"2,5-Dimethylphenylhydroxylamine",379.25,le15,1
Cc1cc(O)cc(C)c1N,"Phenol, 4-amino-3,5-dimethyl- (9CI)",406.25,le15,1
Cc1cc(N)c(O)cc1C,"3,4-Xylenol, 6-amino- (8CI)",383.15,le15,1
COc1ccccc1CN,(2-methoxyphenyl)methanamine,373.15,le15,1
COc1cc(N)ccc1C,"Benzenamine, 3-methoxy-4-methyl-",382.75,le15,1
COc1ccc(C)c(N)c1,5-methoxy-2-methylaniline,388.87800000000004,le15,1
COCCc1ccccn1,2-(2-methoxyethyl)pyridine,336.95,le15,1
COc1ccc(CN)cc1,(4-methoxyphenyl)methanamine,371.95,le15,1
Cc1cccc(NO)c1C,"2,3-Dimethylphenylhydroxylamine",384.85,le15,1
CN(CCC#N)CCC#N,"Propanenitrile, 3,3'-(methylimino)bis-",424.55,le15,1
NC(=S)c1ccccc1,Benzenecarbothioamide,393.15,le15,1
C=CCN(CC=C)CC=C,"2-Propen-1-amine, N,N-di-2-propenyl-",303.75,le15,1
FC(Cl)(Cl)Cl,"Methane, trichlorofluoro-",275.15,le15,1
N#Cc1ccccc1Cl,2-chlorobenzonitrile,373.95,le15,1
N#Cc1ccc(Cl)cc1,4-chlorobenzonitrile,381.15,le15,1
C[As](C)(=O)O,"Arsine oxide, hydroxydimethyl- (8CI)",382.55,le15,1
CCOP([O-])OCC,"Phosphorous acid, diethyl ester",355.372,le15,1
O=C(O)c1ccccc1O,"Benzoic acid, 2-hydroxy-",430.15,le15,1
O=Cc1ccc(O)cc1O,"Benzaldehyde, 2,4-dihydroxy-",439.05,le15,1
O=C(O)c1ccc(O)cc1,"Benzoic acid, 4-hydroxy-",444.45,le15,1
Oc1ccc2c(c1)OCO2,"Phenol, 3,4-(methylenedioxy)-",392.65,le15,1
O=Cc1cccc(O)c1O,"2,3-Dihydroxybenzaldehyde",386.35,le15,1
O=Cc1ccc(O)c(O)c1,"Benzaldehyde, 3,4-dihydroxy- (9CI)",419.85,le15,1
O=Cc1cc(O)ccc1O,"Benzaldehyde, 2,5-dihydroxy-",408.25,le15,1
Nc1ccccc1[N+](=O)[O-],"Benzenamine, 2-nitro-",399.25,le15,1
Nc1cccc([N+](=O)[O-])c1,"Benzenamine, 3-nitro-",412.65,le15,1
O=C(O)C=Cc1c[nH]cn1,"2-Propenoic acid, 3-(1H-imidazol-4-yl)-",503.25,le15,1
ON=C1C=CC(=NO)C=C1,"2,5-Cyclohexadiene-1,4-dione, dioxime",407.75,le15,1
O=NN(O)c1ccccc1,"Hydroxylamine, N-nitroso-N-phenyl-",374.45,le15,1
Nc1ccc([N+](=O)[O-])cc1,"Benzenamine, 4-nitro-",438.15,le15,1
CC(=O)c1ccc(F)cc1,1-(4-fluorophenyl)ethanone,344.15,le15,1
COc1ccccc1OC,"Benzene, 1,2-dimethoxy-",360.35,le15,1
COc1cc(C)ccc1O,"Phenol, 2-methoxy-4-methyl-",372.55,le15,1
CCOc1ccccc1O,2-ethoxyphenol,364.25,le15,1
COc1ccc(CO)cc1,"Benzenemethanol, 4-methoxy-",383.15,le15,1
OCCOc1ccccc1,"Ethanol, 2-phenoxy-",403.15,le15,1
COc1cccc(OC)c1,"Benzene, 1,3-dimethoxy-",360.92800000000005,le15,1
Cc1cc(O)c(C)c(O)c1,"2,5-dimethylbenzene-1,3-diol",413.95,le15,1
Cc1cc(O)cc(O)c1C,"4,5-dimethylbenzene-1,3-diol",405.65,le15,1
Cc1c(O)ccc(O)c1C,"Hydroquinone, 2,3-dimethyl- (8CI)",418.55,le15,1
CCOc1ccc(O)cc1,"Phenol, 4-ethoxy-",397.15,le15,1
CC(OO)c1ccccc1,1-hydroperoxyethylbenzene,377.85,le15,1
OCC(O)c1ccccc1,"1-phenylethane-1,2-diol",418.85,le15,1
COc1ccc(OC)cc1,Hydroquinone dimethyl ether,346.65,le15,1
OCCc1ccc(O)cc1,4-Hydroxyphenethyl alcohol,416.35,le15,1
COc1cccc(CO)c1,(3-methoxyphenyl)methanol,383.05,le15,1
OC(=S)c1ccccc1,Benzenecarbothioic acid,367.15,le15,1
CCOS(=O)OCC,"Sulfurous acid, diethyl ester",326.15,le15,1
CC(C)OS(C)(=O)=O,"Methanesulfonic acid, 1-methylethyl ester",377.15,le15,1
CCCOS(C)(=O)=O,"Methanesulfonic acid, propyl ester",365.55,le15,1
CCS(=O)(=O)CCO,"Ethanol, 2-(ethylsulfonyl)-",428.25,le15,1
CC1=CC(=O)CC(C)(C)C1,"2-Cyclohexen-1-one, 3,5,5-trimethyl-",357.5499999999999,le15,1
CC1=CC(C)(C)CC(=O)C1,"3-Cyclohexen-1-one, 3,5,5-trimethyl-",337.35,le15,1
CC(C)=CC(=O)C=C(C)C,"2,6-dimethylhepta-2,5-dien-4-one",352.15,le15,1
O=C1CC2CCCCC2C1,"1,3,3a,4,5,6,7,7a-octahydroinden-2-one",352.75,le15,1
CC1=CC(=O)CC(C)(C)C1,Isophorone,357.0,le15,1
CCSc1ccccc1,"Sulfide, ethyl phenyl (8CI)",347.0499999999999,le15,1
CSCc1ccccc1,methylsulfanylmethylbenzene,346.45,le15,1
CSCc1ccccc1,Benzylmethylsulfide,346.0,le15,1
C1CCC2CCCCC2C1,"Naphthalene, decahydro-",330.15,le15,1
CC12CCC(CC1)C2(C)C,"4,7,7-trimethylbicyclo[2.2.1]heptane",305.5499999999999,le15,1
CC1CCC2CC1C2(C)C,Pinane (8CI),309.15,le15,1
C1CC[C@H]2CCCC[C@H]2C1,"Naphthalene, decahydro-, cis-",330.35,le15,1
C1CC[C@H]2CCCC[C@@H]2C1,"Naphthalene, decahydro-, trans-",330.35,le15,1
CC1CC=C(C(C)C)CC1,"Cyclohexene, 4-methyl-1-(1-methylethyl)-",316.45,le15,1
C1=CCCCCCCCC1,cyclodecene,332.25,le15,1
CCC#CCCCCCC,dec-3-yne,325.35,le15,1
C=CC(C)CCC=C(C)C,"1,6-Octadiene, 3,7-dimethyl-",315.45,le15,1
CCCCCC1=CCCC1,1-pentylcyclopentene,324.45,le15,1
CC1CCC2CC1C2(C)C,"4,6,6-trimethylbicyclo[3.1.1]heptane",309.15,le15,1
CC(C)=CCCC=C(C)C,"2,7-Dimethyl-2,6-octadiene",317.0499999999999,le15,1
C=C(C)C1CCC(C)CC1,1-methyl-4-prop-1-en-2-ylcyclohexane,316.85,le15,1
CC1=CC[C@H](C(C)C)CC1,(4R)-1-methyl-4-propan-2-ylcyclohexene,316.45,le15,1
C#CCCCCCCCC,1decyne,323.0,le15,1
CC#CCCCCC,2octyne,301.0,le15,1
C=C(Cl)c1ccccc1,1-chloroethenylbenzene,343.25,le15,1
C=Cc1ccccc1Cl,"Benzene, 1-chloro-2-ethenyl- (9CI)",333.593,le15,1
C=Cc1ccc(Cl)cc1,1-chloro-4-ethenylbenzene,334.346,le15,1
FCCCCCCCl,1-chloro-6-fluorohexane,316.95,le15,1
O=C(O)CBr,Monobromoacetic acid,352.163,le15,1
OCCCBr,"1-Propanol, 3-bromo-",367.05,le15,1
CC(O)CBr,"2-Propanol, 1-bromo-",327.5499999999999,le15,1
O=[N+]([O-])c1ccc(O)cc1,"Phenol, 4-nitro-",415.05,le15,1
O=[N+]([O-])c1ccccc1O,"Phenol, 2-nitro-",381.15,le15,1
O=[N+]([O-])c1cccc(O)c1,"Phenol, 3-nitro-",400.05,le15,1
C=C(C)C(=O)OCCC#N,"2-Propenoic acid, 2-methyl-, 2-cyanoethyl ester (9CI)",381.95,le15,1
COc1cccc(OC)n1,"2,6-dimethoxypyridine",334.15,le15,1
O=S=Nc1ccccc1,(sulfinylamino)benzene,357.5499999999999,le15,1
CN1C2CCC1CC(=O)C2,8-methyl-8-azabicyclo[3.2.1]octan-3-one,363.15,le15,1
CSc1ccccc1N,2-methylsulfanylaniline,368.95,le15,1
CCCCCCCC#N,n-Octanenitrile,354.25,le15,1
C1CC[C@H]2NCCC[C@H]2C1,"(4aR,8aR)-1,2,3,4,4a,5,6,7,8,8a-decahydroquinoline",341.45,le15,1
O=[N+]([O-])CBr,bromo(nitro)methane,308.5499999999999,le15,1
C[As](=O)(O)O,Methanearsonic acid,478.95,le15,1
COP(=O)(OC)OC,"Phosphoric acid, trimethyl ester",356.85,le15,1
CC(C)OP(C)(=O)F,"Phosphonofluoridic acid, methyl-, 1-methylethyl ester",315.85,le15,1
O=[N+]([O-])c1cc[n+]([O-])cc1,"Pyridine, 4-nitro-, 1-oxide",467.15,le15,1
CCOC(=O)c1ccco1,ethyl furan-2-carboxylate,343.15,le15,1
CC(=O)OCc1ccco1,"2-Furanmethanol, 2-acetate",338.15,le15,1
COc1cccc(O)c1O,"Pyrocatechol, 3-methoxy- (8CI)",392.65,le15,1
O=C(O)CCc1ccco1,3-(furan-2-yl)propanoic acid,376.15,le15,1
CCc1occc(=O)c1O,"4H-Pyran-4-one, 2-ethyl-3-hydroxy-",397.95,le15,1
CCOc1ccccc1F,1-ethoxy-2-fluorobenzene,333.25,le15,1
CCOc1cccc(F)c1,1-ethoxy-3-fluorobenzene,324.45,le15,1
CCOc1ccc(F)cc1,4-Fluorophenetole,335.45,le15,1
C1CC2OC2CCC2OC12,"5,10-Dioxatricyclo(7.1.0.04,6)decane",378.15,le15,1
CC=CC=CCOC(C)=O,"Acetic acid, 2,4-hexadienyl ester",352.75,le15,1
C/C=C/C=C/C(=O)OCC,"ethyl (2E,4E)-hexa-2,4-dienoate",342.5499999999999,le15,1
CC(C)=C1OC(=O)C1(C)C,"3,3-dimethyl-4-propan-2-ylideneoxetan-2-one",335.95,le15,1
C=CCC(C(C)=O)C(C)=O,"3-prop-2-enylpentane-2,4-dione",349.95,le15,1
CCCCCC#CC(=O)O,Oct-2-ynoic acid,374.25,le15,1
C=CCC(CC=C)C(=O)O,"4-Pentenoic acid, 2-(2-propenyl)- (9CI)",329.5499999999999,le15,1
C1CC2OC2CC1C1CO1,"7-Oxabicyclo(4.1.0)heptane, 3-(epoxyethyl)-",359.5499999999999,le15,1
CC1(C)CC(=O)CC(=O)C1,"1,3-Cyclohexanedione, 5,5-dimethyl-",358.25,le15,1
CC(C#N)N1CCOCC1,"4-Morpholineacetonitrile, alpha-methyl-",363.85,le15,1
CS(=O)c1ccccc1,methylsulfinylbenzene,390.95,le15,1
COc1ccccc1S,"Benzenethiol, 2-methoxy-",368.15,le15,1
COc1cccc(S)c1,3-methoxybenzenethiol,369.25,le15,1
C1N2CN3CN1CN(C2)C3,"1,3,5,7-Tetraazatricyclo(3.3.1.13,7)decane",377.095,le15,1
COc1ccc(S)cc1,4-methoxybenzenethiol,362.95,le15,1
N#CCCSCCC#N,"Propanenitrile, 3,3'-thiobis-",432.75,le15,1
CC(C)=CCCC(C)C=O,"5-Heptenal, 2,6-dimethyl-",333.75,le15,1
CC1CC(=O)CC(C)(C)C1,"3,3,5-trimethylcyclohexan-1-one",337.15,le15,1
CCC(=O)C1CCCCC1,1-cyclohexylpropan-1-one,347.65,le15,1
CC1CC(C)(C)CCC1=O,"2,4,4-trimethylcyclohexan-1-one",331.65,le15,1
CCCCCCC#CCO,Non-2-yn-1-ol,328.0499999999999,le15,1
CCCCCCC=CC=O,2-Nonenal,357.5499999999999,le15,1
CCCCc1cccs1,2-butylthiophene,316.25,le15,1
CC1CCC(C(C)C)CC1,1-methyl-4-propan-2-ylcyclohexane,317.85,le15,1
C1CCCCCCCCC1,cyclodecane,331.931,le15,1
CCCCC1CCCCC1,butylcyclohexane,314.25,le15,1
CC(C)CC1CCCCC1,Isobutylcyclohexane,321.45,le15,1
CC1CC(C)C(C)CC1C,"Cyclohexane, 1,2,4,5-tetramethyl-",313.65,le15,1
C=C(C)CCCCCCC,2-methylnon-1-ene,315.75,le15,1
CC(C)(C)C1CCCCC1,tert-butylcyclohexane,315.35,le15,1
CC1CCC(C)C(C)C1C,"1,2,3,4-tetramethylcyclohexane",313.65,le15,1
CCC(C)CCC=C(C)C,"2,6-dimethyloct-2-ene",305.15,le15,1
CCCC1CCCCC1C,1-methyl-2-propylcyclohexane,320.85,le15,1
CCCC1CCCC(C)C1,1-methyl-3-propylcyclohexane,320.85,le15,1
C=CC(C)CCCC(C)C,"3,7-dimethyloct-1-ene",316.95,le15,1
CCCC/C=C/CCCC,(E)-dec-5-ene,319.25,le15,1
CC1CCCC(C(C)C)C1,1-methyl-3-propan-2-ylcyclohexane,317.85,le15,1
C[C@H]1C[C@H](C)CC(C)(C)C1,"Cyclohexane, 1,1,3,5-tetramethyl-, trans-",311.25,le15,1
C[C@H]1C[C@@H](C)CC(C)(C)C1,"Cyclohexane, 1,1,3,5-tetramethyl-, cis-",311.25,le15,1
CCC(C)C1CCCCC1,butan-2-ylcyclohexane,321.35,le15,1
CCCC/C=C\CCCC,(Z)-dec-5-ene,318.65,le15,1
C=CCCCCCCCC,1decene,320.15,le15,1
CC=CCCCCC,2octene,287.0,le15,1
CCCCC=CCCCC,5decene,319.0,le15,1
CCCCC1CCCCC1,Butylcyclohexane,314.0,le15,1