smiles,compound,flashpoint,source,pure substance
C1CCCCCCCCC1,Cyclodecane,338.0,le15,1
CC(C)(C)C1CCCCC1,tertButylCyclohexane,315.0,le15,1
C[As](C)Cl,chloro(dimethyl)arsane,299.0499999999999,le15,1
CCOC(=O)C(F)Cl,ethyl 2-chloro-2-fluoroacetate,317.45,le15,1
O=Cc1ccc(Cl)cc1,"Benzaldehyde, 4-chloro-",360.92800000000005,le15,1
O=Cc1cccc(Cl)c1,"Benzaldehyde, m-chloro- (8CI)",358.5499999999999,le15,1
O=Cc1ccccc1Cl,"Benzaldehyde, 2-chloro-",360.95,le15,1
CCc1ccccc1Cl,1-chloro-2-ethylbenzene,333.15,le15,1
Cc1ccc(Cl)c(C)c1,"1,3-Dimethyl-4-chlorobenzene",335.25,le15,1
Cc1ccc(C)c(Cl)c1,"2-chloro-1,4-dimethylbenzene",330.35,le15,1
Cc1ccc(CCl)cc1,"Benzene, 1-(chloromethyl)-4-methyl-",348.75,le15,1
Cc1ccccc1CCl,1-(chloromethyl)-2-methylbenzene,349.15,le15,1
Cc1cccc(Cl)c1C,"1,2-Dimethyl-3-chlorobenzene",336.75,le15,1
Cc1ccc(Cl)cc1C,"4-chloro-1,2-dimethylbenzene",340.15,le15,1
Cc1cccc(CCl)c1,1-(chloromethyl)-3-methylbenzene,348.75,le15,1
CCc1ccccc1Cl,1-chloro-2-ethylbenzene,339.15,le15,1
Cc1cccc(C)c1Cl,"2-chloro-1,3-dimethylbenzene",336.45,le15,1
FCCCBr,1-bromo-3-fluoropropane,289.5499999999999,le15,1
ClCC1OC1CCl,"Butane, 1,4-dichloro-2,3-epoxy-",406.65,le15,1
CC(Cl)C(=O)CCl,"1,3-dichlorobutan-2-one",332.15,le15,1
O=C(Cl)CCCCl,4-chlorobutanoyl chloride,343.35,le15,1
CC(C)CC(Cl)Cl,"1,1-dichloro-3-methylbutane",304.75,le15,1
CC(Cl)CC(C)Cl,"2,4-dichloropentane",309.65,le15,1
CCCC(Cl)CCl,"1,2-dichloropentane",315.5499999999999,le15,1
CCC(C)(Cl)CCl,"1,2-dichloro-2-methylbutane",308.95,le15,1
CC(Cl)C(C)(C)Cl,"2,3-dichloro-2-methylbutane",302.65,le15,1
C[SiH2]C=C(Cl)Cl,"Silane, dichloroethenylmethyl-",277.54999999999995,le15,1
O=CC1([N+](=O)[O-])C=CCO1,"5-Furancarboxaldehyde, 5-nitro- (9CI)",306.15,le15,1
O=[N+]([O-])c1ccc(F)cc1,"Benzene, 1-fluoro-4-nitro-",356.45,le15,1
O=[N+]([O-])c1cccc(F)c1,"Benzene, 1-fluoro-3-nitro- (8CI)(9CI)",349.85,le15,1
O=[N+]([O-])c1ccccc1F,"Benzene, 1-fluoro-2-nitro-",367.15,le15,1
Cc1ncc([N+](=O)[O-])n1C,"1H-Imidazole, 1,2-dimethyl-5-nitro- (9CI)",416.65,le15,1
CCC1(C)CC(=O)NC1=O,"2,5-Pyrrolidinedione, 3-ethyl-3-methyl-",396.95,le15,1
CC(=O)N1CCC(=O)CC1,1-acetylpiperidin-4-one,361.05,le15,1
CCCCOC(=O)CC#N,"Acetic acid, cyano-, butyl ester",364.15,le15,1
CN1C2CCC1CC(O)C2,8-methyl-8-azabicyclo[3.2.1]octan-3-ol,385.65,le15,1
CC(=O)CC1CCCCN1,1-piperidin-2-ylpropan-2-one,347.45,le15,1
CC(=O)N1CCCC(C)C1,1-(3-methylpiperidin-1-yl)ethanone,379.85,le15,1
S=C=NC1CCCCC1,isothiocyanatocyclohexane,368.75,le15,1
CNC(C)CC1CCCC1,1-cyclopentyl-N-methylpropan-2-amine,318.65,le15,1
CC1(C)CCCC(C)(C)N1,"2,2,6,6-tetramethylpiperidine",297.5499999999999,le15,1
CCCCN1CCCCC1,1-butylpiperidine,332.95,le15,1
CN(C)CC1CCCCC1,"Cyclohexanemethylamine, N,N-dimethyl- (6CI,7CI,8CI)",313.85,le15,1
CNC(C)CCC=C(C)C,"N,6-dimethylhept-5-en-2-amine",319.45,le15,1
O=C=NS(=O)(=O)Cl,N-(oxomethylidene)sulfamoyl chloride,291.65,le15,1
Cc1c(N)cccc1Cl,"Benzenamine, 3-chloro-2-methyl-",385.95,le15,1
Cc1cccc(Cl)c1N,"Benzenamine, 6-chloro-2-methyl- (9CI)",372.05,le15,1
Cc1cc(Cl)ccc1N,"Benzenamine, 4-chloro-2-methyl-",372.55,le15,1
Cc1ccc(N)cc1Cl,"Benzenamine, 3-chloro-4-methyl-",373.95,le15,1
Cc1ccc(Cl)cc1N,"Benzenamine, 5-chloro-2-methyl-",433.15,le15,1
Cc1ccc(Cl)c(N)c1,2-Chloro-5-methylaniline,380.15,le15,1
NCc1ccc(Cl)cc1,"Benzylamine, p-chloro- (8CI)",365.75,le15,1
Cc1ccc(N)c(Cl)c1,"Benzenamine, 2-chloro-4-methyl-",372.15,le15,1
CNc1ccc(Cl)cc1,4-chloro-N-methylaniline,372.55,le15,1
Cc1cc(N)ccc1Cl,4-chloro-3-methylaniline,372.95,le15,1
CI,"Methane, iodo-",280.948,le15,1
ClCCNCCCl,"Ethanamine, 2-chloro-N-(2-chloroethyl)- (9CI)",350.45,le15,1
CCOC(=O)C(F)(F)F,"Acetic acid, trifluoro-, ethyl ester",272.15,le15,1
O=[PH](O)c1ccccc1,"Phosphinic acid, phenyl-",399.381,le15,1
O=c1cc(CO)occ1O,"4H-Pyran-4-one, 5-hydroxy-2-(hydroxymethyl)-",453.05,le15,1
O=C(O)C=CC=CC(=O)O,"Hexa-2,4-dienedioic acid",450.05,le15,1
COP([O-])(=S)OC,"Phosphorothioic acid, O,O-dimethyl ester",331.25,le15,1
C=C(C)C(=O)OCC1CO1,"2-Propenoic acid, 2-methyl-, oxiranylmethyl ester",349.261,le15,1
C=CCOC(=O)CC(C)=O,prop-2-enyl 3-oxobutanoate,348.15,le15,1
C=CCOC(=O)OCC=C,bis(prop-2-enyl) carbonate,332.0499999999999,le15,1
Cc1cc(=O)[nH]c(=S)[nH]1,"4(1H)-Pyrimidinone, 2,3-dihydro-6-methyl-2-thioxo-",433.95,le15,1
Cc1cccc2ccccc12,1methylnaphthalene,355.0,le15,1
Cc1ccc2ccccc2c1,2methylnaphthalene,370.0,le15,1
C=C(C)C(=O)OCC(C)C,"2-Propenoic acid, 2-methyl-, 2-methylpropyl ester",319.15,le15,1
C=C(C)C(=O)OCCCC,"2-Propenoic acid, 2-methyl-, butyl ester",323.75,le15,1
CCCCC1CCC(=O)O1,"2(3H)-Furanone, dihydro-5-butyl-",365.05,le15,1
CC(C)(O)C#CC(C)(C)O,"3-Hexyne-2,5-diol, 2,5-dimethyl-",359.15,le15,1
C=C(C)C(=O)OC(C)(C)C,"2-Propenoic acid, 2-methyl-, 1,1-dimethylethyl ester",314.25,le15,1
CCCC1CCCC(=O)O1,"2H-Pyran-2-one, tetrahydro-6-propyl-",398.15,le15,1
CC1(C(=O)O)CCCCC1,1-methylcyclohexane-1-carboxylic acid,387.15,le15,1
CC(=O)C1(O)CCCCC1,1-(1-hydroxycyclohexyl)ethanone,369.05,le15,1
CCC/C=C/C(=O)OCC,ethyl (E)-hex-2-enoate,335.45,le15,1
OCC1(CO)C=CCCC1,"Cyclohex-2-ene-1,1-dimethanol",378.15,le15,1
C(CCC1CO1)CC1CO1,"Oxirane, 2,2'-(1,4-butanediyl)bis- (9CI)",370.95,le15,1
CCC/C=C/COC(C)=O,"2-Hexen-1-ol, acetate, (2E)-",331.15,le15,1
C=CC(=O)OCCCCC,"2-Propenoic acid, pentyl ester",321.35,le15,1
CC/C=C\CCOC(C)=O,"3-Hexen-1-ol, acetate, (3Z)-",330.35,le15,1
COC(=O)C1CCCCC1,"Cyclohexanecarboxylic acid, methyl ester",331.85,le15,1
O=C(O)CC1CCCCC1,2-cyclohexylacetic acid,397.05,le15,1
CCCC=C(CC)C(=O)O,"2-Hexenoic acid, 2-ethyl-",594.05,le15,1
CCCC(=O)C(=O)CCC,"octane-4,5-dione",329.65,le15,1
C/C=C(\C)C(=O)OC(C)C,"2-Butenoic acid, 2-methyl-, 1-methylethyl ester, (E)- (9CI)",328.0499999999999,le15,1
CC/C=C/CC(=O)OCC,ethyl (E)-hex-3-enoate,332.5499999999999,le15,1
CC(C)C(=O)C(=O)C(C)C,"2,5-dimethylhexane-3,4-dione",323.65,le15,1
CC1(NC(N)=O)CCCC1,"Urea, (1-methylcyclopentyl)-",360.95,le15,1
Sc1ccccc1S,"benzene-1,2-dithiol",385.85,le15,1
Sc1ccccc1S,"benzene-1,2-dithiol",381.75,le15,1
CC(C)CC(=O)CC(C)C,"4-Heptanone, 2,6-dimethyl-",317.85,le15,1
CC1CC(O)CC(C)(C)C1,"Cyclohexanol, 3,3,5-trimethyl-",354.15,le15,1
CC(C)(C)C(=O)C(C)(C)C,"2,2,4,4-tetramethylpentan-3-one",305.95,le15,1
CCCCCCC(=O)CC,nonan-3-one,340.95,le15,1
CCCCCC(=O)CCC,nonan-4-one,334.5499999999999,le15,1
CC(C)C1CCC(O)CC1,"Cyclohexanol, 4-(1-methylethyl)-",353.95,le15,1
CC(CC=O)CC(C)(C)C,"Hexanal, 3,5,5-trimethyl-",319.85,le15,1
CC(C)=CCCC(C)(C)O,"5-Hepten-2-ol, 2,6-dimethyl-",363.25,le15,1
CC[C@H](C)C(=O)[C@@H](C)CC,"(3S,5S)-3,5-dimethylheptan-4-one",317.85,le15,1
CCCC(=O)CCC(C)C,7-methyloctan-4-one,330.75,le15,1
C=CC(O)CCCCCC,non-1-en-3-ol,342.65,le15,1
CC1CC(O)CC(C)(C)C1,"3,3,5-trimethylcyclohexan-1-ol",346.35,le15,1
C[C@H]1C[C@@H](O)CC(C)(C)C1,"Cyclohexanol, 3,3,5-trimethyl-, (1R,5R)-rel-",361.15,le15,1
CCCCC(=O)CCCC,5nonanone,333.0,le15,1
CC(C)CC(=O)CC(C)C,Diisobutylketone,322.0,le15,1
NCC1CCCC(CN)C1,"1,3-Cyclohexanebis(methylamine) (8CI)",379.15,le15,1
CC(C)CCCCC(C)C,"Octane, 2,7-dimethyl-",354.45,le15,1
CCC(C)(C)CCC(C)C,"2,5,5-trimethylheptane",312.85,le15,1
CC(C)CC(C)CC(C)C,"2,4,6-trimethylheptane",310.25,le15,1
CCCC(CCC)CCC,4-propylheptane,308.35,le15,1
CCCC(C)(C)CC(C)C,"2,4,4-trimethylheptane",311.65,le15,1
CCCCC(C)CC(C)C,"2,4-dimethyloctane",351.65,le15,1
CCCCCC(C)(C)CC,"3,3-dimethyloctane",316.65,le15,1
CCC(CC)CCC(C)C,5-ethyl-2-methylheptane,355.15,le15,1
CCCC(C)(C)C(C)(C)C,"2,2,3,3-tetramethylhexane",316.85,le15,1
CCCCC(CC)C(C)C,3-ethyl-2-methylheptane,358.0499999999999,le15,1
CCCCC(C)CCCC,5-methylnonane,310.35,le15,1
CCCCCCC(C)(C)C,"2,2-Dimethyloctane",314.0499999999999,le15,1
CCCCC(C)C(C)CC,"3,4-dimethyloctane",359.65,le15,1
CCCC(C)CC(C)CC,"3,5-dimethyloctane",354.15,le15,1
CCC(C)CCC(C)CC,"3,6-dimethyloctane",356.65,le15,1
CCCC(C)C(C)CCC,"4,5-dimethyloctane",359.0499999999999,le15,1
CC(C)C(C)CC(C)(C)C,"2,2,4,5-tetramethylhexane",309.5499999999999,le15,1
CCCCC(C)(CC)CC,3-ethyl-3-methylheptane,318.35,le15,1
CCC(CC)C(CC)CC,"3,4-diethylhexane",358.95,le15,1
CCC(C)C(C)CC(C)C,"2,4,5-trimethylheptane",313.85,le15,1
CCCC(C)C(C)(C)CC,"3,3,4-trimethylheptane",317.5499999999999,le15,1
CCC(C)CC(CC)CC,3-ethyl-5-methylheptane,355.85,le15,1
CC(C)(C)CCC(C)(C)C,"2,2,5,5-tetramethylhexane",304.75,le15,1
CCC(C)CCCC(C)C,"2,6-dimethyloctane",355.5499999999999,le15,1
CCCCC(C)(C)CCC,"4,4-dimethyloctane",314.95,le15,1
CCCCCC(C)CCC,4methylnonane,311.0,le15,1
O=C1C=CC(=O)C(Cl)=C1,"p-Benzoquinone, 2-chloro- (8CI)",356.35,le15,1
Cc1cc(O)ccc1Cl,"Phenol, 4-chloro-3-methyl-",366.55,le15,1
Cc1cccc(Cl)c1O,2-chloro-6-methylphenol,348.15,le15,1
Cc1ccc(Cl)c(O)c1,"Phenol, 2-chloro-5-methyl-",354.15,le15,1
COc1ccc(Cl)cc1,"Anisole, p-chloro- (8CI)",345.45,le15,1
COc1ccccc1Cl,1-chloro-2-methoxybenzene,349.15,le15,1
OCc1ccc(Cl)cc1,"Benzenemethanol, 4-chloro- (9CI)",343.15,le15,1
Cc1cc(Cl)ccc1O,"Phenol, 4-chloro-2-methyl-",363.25,le15,1
Cc1c(O)cccc1Cl,3-chloro-2-methylphenol,357.95,le15,1
OCc1ccccc1Cl,(2-chlorophenyl)methanol,368.55,le15,1
Cc1cccc(O)c1Cl,2-chloro-3-methylphenol,351.25,le15,1
Cc1ccc(O)cc1Cl,3-chloro-4-methylphenol,361.65,le15,1
OCc1cccc(Cl)c1,3-Chlorobenzyl alcohol,368.55,le15,1
COc1cccc(Cl)c1,1-chloro-3-methoxybenzene,346.45,le15,1
Cc1ccc(O)c(Cl)c1,2-chloro-4-methylphenol,359.25,le15,1
Nc1ccc(Cl)cc1N,"1,2-Benzenediamine, 4-chloro-",408.55,le15,1
Nc1ccc(Cl)c(N)c1,"1,3-Benzenediamine, 4-chloro-",407.55,le15,1
Cl[Si]c1ccccc1,chloro(phenyl)silicon,327.0499999999999,le15,1
O=C(Cl)OCCCl,"Carbonochloridic acid, 2-chloroethyl ester",343.15,le15,1
O=C(O)C(Cl)CCl,"Propanoic acid, 2,3-dichloro- (9CI)",358.95,le15,1
CCOC(Cl)CCl,"1,2-dichloro-1-ethoxyethane",316.45,le15,1
C[Si](C)(Cl)CCl,chloro-(chloromethyl)-dimethylsilane,295.15,le15,1
CN1C(=O)OC(C)(C)C1=O,"2,4-Oxazolidinedione, 3,5,5-trimethyl-",321.15,le15,1
Nc1ccc2ccccc2c1,2-Naphthalenamine,430.25,le15,1
Cc1ccc2ncccc2c1,"Quinoline, 6-methyl-",382.15,le15,1
Cc1cccc2cccnc12,"Quinoline, 8-methyl-",377.15,le15,1
Cc1ccc2cccnc2c1,"Quinoline, 7-methyl-",383.15,le15,1
c1ccc(-n2cccc2)cc1,1-phenylpyrrole,368.45,le15,1
Cc1cc2ccccc2cn1,3-methylisoquinoline,379.85,le15,1
Cc1nccc2ccccc12,1-methylisoquinoline,379.85,le15,1
c1ccc(-c2ccc[nH]2)cc1,2-phenyl-1H-pyrrole,397.75,le15,1
Cc1cccc2ncccc12,"Quinoline, 5-methyl-",377.55,le15,1
Cc1ccc2cnccc2c1,6-methylisoquinoline,385.45,le15,1
Cc1ccc2ccccc2n1,"Quinoline, 2-methyl-",352.5499999999999,le15,1
Nc1cccc2ccccc12,1-Naphthalenamine,425.25,le15,1
Cc1ccnc2ccccc12,"Quinoline, 4-methyl-",379.25,le15,1
CCOC(=O)/C=C/N(C)C,"Acrylic acid, 3-(dimethylamino)-, ethyl ester, (E)-",342.0499999999999,le15,1
C=CC(=O)OCCN(C)C,"2-Propenoic acid, 2-(dimethylamino)ethyl ester",302.15,le15,1
CCCC(=O)N(CC)CC,"N,N-diethylbutanamide",351.35,le15,1
CCCN(CCC)C(C)=O,"N,N-dipropylacetamide",351.35,le15,1
OCCNC1CCCCC1,"Ethanol, 2-(cyclohexylamino)-",390.75,le15,1
CCC(C)C(CC)C(N)=O,"Pentanamide, 2-ethyl-3-methyl-",392.95,le15,1
CC(C)CN1CCOCC1,4-Isobutylmorpholine,322.95,le15,1
CCC(O)C1CCCCN1,1-piperidin-2-ylpropan-1-ol,355.45,le15,1
CCCCN1CCOCC1,"Morpholine, 4-butyl-",325.0499999999999,le15,1
CCCC(CCC)C(N)=O,"Valeramide, 2-propyl-",393.05,le15,1
CCCCCCN=C=S,"Hexane, 1-isothiocyanato-",363.75,le15,1
CCCN(CCC)CCC,"1-Propanamine, N,N-dipropyl-",309.85,le15,1
CCCCN(C)CCCC,"1-Butanamine, N-butyl-N-methyl-",315.35,le15,1
ClCCBr,"Ethane, 1-bromo-2-chloro-",282.65,le15,1
ONc1ccc(Cl)cc1,"Hydroxylamine, N-(p-chlorophenyl)- (8CI)",379.15,le15,1
COc1cccc(Cl)n1,2-chloro-6-methoxypyridine,349.25,le15,1
Cc1cc(Cl)nc(N)n1,"2-Pyrimidinamine, 4-chloro-6-methyl- (9CI)",424.15,le15,1
CC(Cl)(Cl)[N+](=O)[O-],"Ethane, 1,1-dichloro-1-nitro-",304.85,le15,1
CC1OC(=O)C(C)OC1=O,"p-Dioxane-2,5-dione, 3,6-dimethyl- (8CI)",423.75,le15,1
O=NN1CCN(N=O)CC1,"Piperazine, 1,4-dinitroso-",472.55,le15,1
O=C1CC(=O)NC(=S)N1,"4,6(1H,5H)-Pyrimidinedione, dihydro-2-thioxo-",507.15,le15,1
Oc1cccc2ccccc12,1-Naphthalenol,417.15,le15,1
C=CC(=O)OCCOCC,"2-Propenoic acid, 2-ethoxyethyl ester",325.95,le15,1
CCOC(=O)CCC(C)=O,"Pentanoic acid, 4-oxo-, ethyl ester",351.0499999999999,le15,1
CC(=O)CC(=O)OC(C)C,propan-2-yl 3-oxobutanoate,342.0499999999999,le15,1
Nc1cccc2cccnc12,"Quinoline, 8-amino-",444.65,le15,1
Nc1ccc2ncccc2c1,"Quinoline, 6-amino- (8CI)",455.05,le15,1
Nc1cnc2ccccc2c1,"Quinoline, 3-amino-",440.95,le15,1
Nc1ccc2cccnc2c1,7-Quinolinamine (9CI),449.25,le15,1
Nc1ccc2ccccc2n1,"Quinoline, 2-amino-",436.75,le15,1
CCOC(=O)C(C)C(C)=O,ethyl 2-methyl-3-oxobutanoate,335.15,le15,1
Nc1cccc2ncccc12,quinolin-5-amine,444.65,le15,1
CC(=O)OCC1CCCO1,oxolan-2-ylmethyl acetate,357.5499999999999,le15,1
c1ccc(-c2ncc[nH]2)cc1,2-phenyl-1H-imidazole,453.55,le15,1
CC(=O)CCCOC(C)=O,"2-Pentanone, 5-(acetyloxy)- (9CI)",358.5499999999999,le15,1
CCCC(=O)C(=O)OCC,ethyl 2-oxopentanoate,344.5499999999999,le15,1
Nc1ccnc2ccccc12,4-Aminoquinoline,454.35,le15,1
C=C(C)C(=O)OCC(C)O,2-hydroxypropyl 2-methylprop-2-enoate,360.0499999999999,le15,1
c1ccc(-n2ccnc2)cc1,1-phenylimidazole,393.85,le15,1
Cc1cnc2ccccc2n1,"Quinoxaline, 2-methyl-",380.15,le15,1
CCC(C(C)=O)C(=O)OC,methyl 2-ethyl-3-oxobutanoate,369.25,le15,1
CCCC1OC1(CC)CO,"1-Hexanol, 2,3-epoxy-2-ethyl-",347.0499999999999,le15,1
CCCCOC(=O)C(C)C,"Isobutyric acid, butyl ester (6CI,7CI,8CI)",319.85,le15,1
CCCC(CCC)C(=O)O,"Pentanoic acid, 2-propyl-",384.15,le15,1
CCCCCCC(=O)OC,"Heptanoic acid, methyl ester",325.15,le15,1
CC(=O)OC(C)CC(C)C,"2-Pentanol, 4-methyl-, acetate",318.15,le15,1
CCCCOC(=O)CCC,"Butanoic acid, butyl ester",322.5499999999999,le15,1
CCCCCCCOC=O,heptyl formate,333.15,le15,1
CCCCCC(=O)OCC,"Hexanoic acid, ethyl ester",322.5499999999999,le15,1
CCCCCCCC(=O)O,Octanoic acid,380.529,le15,1
CCCCC(CC)C(=O)O,"Hexanoic acid, 2-ethyl-",389.75,le15,1
CCCOC(=O)CC(C)C,propyl 3-methylbutanoate,319.85,le15,1
CCOC1CCCCC1O,2-Ethoxycyclohexan-1-ol,353.5499999999999,le15,1
S=C=NCCN=C=S,"Ethane, 1,2-diisothiocyanato- (9CI)",395.15,le15,1
OCC1CCCC(CO)C1,[3-(hydroxymethyl)cyclohexyl]methanol,404.65,le15,1
C=COCCOCCCC,"Butane, 1-(2-(ethenyloxy)ethoxy)- (9CI)",315.0499999999999,le15,1
CC=CC(OCC)OCC,"1,1-diethoxybut-2-ene",312.0499999999999,le15,1
CC(C)CC(=O)OC(C)C,propan-2-yl 3-methylbutanoate,307.85,le15,1
CC(C)COC(=O)C(C)C,"Propanoic acid, 2-methyl-, 2-methylpropyl ester",307.85,le15,1
CCCCC(=O)OCCC,"Valeric acid, propyl ester (8CI)",325.5499999999999,le15,1
CCCCCCOC(C)=O,"Acetic acid, hexyl ester",310.35,le15,1
CCCC(=O)OCC(C)C,"Butanoic acid, 2-methylpropyl ester",318.75,le15,1
CCC(CC)COC(C)=O,"Acetic acid, 2-ethylbutyl ester",325.95,le15,1
CCOC(=O)CCC(C)C,ethyl 4-methylpentanoate,319.85,le15,1
CCCCCCC(=O)OC,Methylheptanoate,325.0,le15,1
NCCCN1CCOCC1,"Morpholine, 4-(3-aminopropyl)- (8CI)",371.15,le15,1
CCCNC(=O)NCCC,"1,3-dipropylurea",395.45,le15,1
CCCC(O)(CC)CCC,4-ethylheptan-4-ol,344.25,le15,1
CCCCC(O)CCCC,nonan-5-ol,352.65,le15,1
CCCCCCC(C)(C)O,2-methyloctan-2-ol,344.25,le15,1
CCC(C)(O)CCC(C)C,"3,6-dimethylheptan-3-ol",343.15,le15,1
CC(CCO)CC(C)(C)C,"3,5,5-trimethylhexan-1-ol",353.15,le15,1
CCCCC(CC)CCO,3-ethylheptan-1-ol,352.65,le15,1
CCCCCC(C)(O)CC,"3-Octanol, 3-methyl-",344.25,le15,1
CCCC(C)(O)C(C)(C)C,"2,2,3-trimethylhexan-3-ol",331.0499999999999,le15,1
CC(C)CCCC(C)(C)O,"2-Heptanol, 2,6-dimethyl-",336.15,le15,1
CC(C)CCC(O)C(C)C,"2,6-dimethylheptan-3-ol",342.95,le15,1
CCCC(C)(O)CC(C)C,"2,4-dimethylheptan-4-ol",343.15,le15,1
CCC(C)C(O)C(C)CC,"3,5-dimethylheptan-4-ol",342.95,le15,1
CCCCC(C)(O)CCC,4-methyloctan-4-ol,344.25,le15,1
CC(C)CC(O)CC(C)C,"4-Heptanol, 2,6-dimethyl-",339.15,le15,1
CCCCCCCCCO,Nonyl alcohol,370.92800000000005,le15,1
CC(C)CCCCCCO,"1-Octanol, 7-methyl-",352.65,le15,1
CC(CCN(C)C)N(C)C,"N,N,N',N',1-Pentamethyltrimethylenediamine",313.75,le15,1
NCCCCCCCCN,"octane-1,8-diamine",438.15,le15,1
CC(C)CCCC(C)NN,"Hydrazine, 1-(1,5-dimethylhexyl)-",373.35,le15,1
CC[Si](CC)(CC)CC,tetraethylsilane,299.25,le15,1
N#CC(Cl)(Cl)Cl,"Acetonitrile, trichloro-",283.65,le15,1
Oc1ccc(Cl)c(O)c1,"1,3-Benzenediol, 4-chloro-",394.75,le15,1
Oc1ccc(O)c(Cl)c1,"1,4-Benzenediol, 2-chloro-",392.85,le15,1
Oc1ccc(Cl)cc1O,"1,2-Benzenediol, 4-chloro-",388.45,le15,1
Fc1ccc(CCl)cc1,"Toluene, alpha-chloro-p-fluoro- (8CI)",338.15,le15,1
Cc1c(F)cccc1Cl,1-chloro-3-fluoro-2-methylbenzene,320.85,le15,1
C#CC(O)(/C=C/Cl)CC,(E)-1-chloro-3-ethylpent-1-en-4-yn-3-ol,341.5499999999999,le15,1
Sc1ccc(Cl)cc1,4-chlorobenzenethiol,351.75,le15,1
Sc1cccc(Cl)c1,3-chlorobenzenethiol,363.15,le15,1
Sc1ccccc1Cl,2-chlorobenzenethiol,361.45,le15,1
Nc1ncc([N+](=O)[O-])s1,"Thiazole, 2-amino-5-nitro-",435.65,le15,1
Oc1cccc2cccnc12,8-Hydroxyquinoline,416.25,le15,1
Oc1cccc2ncccc12,5-Hydroxyquinoline,474.85,le15,1
Oc1ccc2cccnc2c1,7-Hydroxyquinoline,416.22,le15,1
Oc1ccnc2ccccc12,4-Hydroxyquinoline,395.45,le15,1
O.O.[O-][n+]1cccc2ccccc21,"Quinoline, 1-oxide, dihydrate",408.35,le15,1
Oc1ccc2ncccc2c1,6-Hydroxyquinoline,416.25,le15,1
Cc1[nH]c2ccccc2c1C,"2,3-dimethyl-1H-indole",393.95,le15,1
CCC(C#N)c1ccccc1,2-phenylbutanenitrile,378.15,le15,1
N#CCCCc1ccccc1,"Butyronitrile, 4-phenyl- (8CI)",404.85,le15,1
CCCCNC(=O)OCC,ethyl N-butylcarbamate,350.65,le15,1
NCCCCCCC(=O)O,"Heptanoic acid, 7-amino-",390.65,le15,1
CC(C)N(CCO)C(C)C,"Ethanol, 2-(bis(1-methylethyl)amino)-",343.15,le15,1
CCCN(CCC)CCO,2-(dipropylamino)ethanol,338.75,le15,1
CN(CCCN)CCCN,"1,3-Propanediamine, N-(3-aminopropyl)-N-methyl-",375.95,le15,1
ClC=C(Cl)CCl,"1-Propene, 1,2,3-trichloro-",338.65,le15,1
CC(Cl)=C(Cl)Cl,"1,1,2-trichloroprop-1-ene",314.95,le15,1
C=CC(Cl)(Cl)Cl,"3,3,3-trichloroprop-1-ene",310.85,le15,1
Nc1nc(N)nc(Cl)n1,"s-Triazine, 2,4-diamino-6-chloro- (8CI)",522.05,le15,1
Nc1ccc(F)c(Cl)c1,3-chloro-4-fluoroaniline,422.15,le15,1
O=C(O)C(F)(F)C(F)F,"2,2,3,3-tetrafluoropropanoic acid",312.0499999999999,le15,1
CCOC(F)(F)C(F)F,"1-ethoxy-1,1,2,2-tetrafluoroethane",330.15,le15,1
FC(F)(F)c1ccccc1,"Toluene, alpha,alpha,alpha-trifluoro-",285.15,le15,1
O=c1ccc2ccccc2o1,2H-1-Benzopyran-2-one,435.15,le15,1
O=c1occc2ccccc12,isochromen-1-one,376.65,le15,1
CCOC(=O)C(=O)OCC,"Ethanedioic acid, 1,2-diethyl ester",349.15,le15,1
COC(=O)CCC(=O)OC,"Butanedioic acid, dimethyl ester",361.55,le15,1
CC(=O)OCCOC(C)=O,"Ethylene glycol, diacetate",355.15,le15,1
O=c1[nH]ncc2ccccc12,1(2H)-Phthalazinone,483.05,le15,1
O=C(O)CCCCC(=O)O,Hexanedioic acid,445.895,le15,1
Oc1ncnc2ccccc12,4-Hydroxyquinazoline,410.45,le15,1
CC(=O)OC(C)OC(C)=O,1-acetyloxyethyl acetate,351.35,le15,1
COC(=O)C(C)C(=O)OC,dimethyl 2-methylpropanedioate,349.25,le15,1
c1ccc(-c2nnco2)cc1,"1,3,4-Oxadiazole, 2-phenyl-",384.15,le15,1
N#Cc1ccc(C(N)=O)cc1,"Benzamide, p-cyano- (8CI)",438.75,le15,1
Fc1cccc2ccccc12,1-fluoronaphthalene,338.75,le15,1
Fc1ccc2ccccc2c1,2-fluoronaphthalene,338.5499999999999,le15,1
NC1=NC(C(=O)O)CS1,"4-Thiazolecarboxylic acid, 2-amino-4,5-dihydro-",472.45,le15,1
CC(=O)C=Cc1ccccc1,"3-Buten-2-one, 4-phenyl-",338.75,le15,1
C#CC(C)(O)c1ccccc1,"Benzenemethanol, alpha-ethynyl-alpha-methyl-",369.15,le15,1
O=C1CCCc2ccccc21,"1,2,3,4-Tetrahydronaphthalen-1-one",377.75,le15,1
CC(=O)/C=C/c1ccccc1,(E)-4-phenylbut-3-en-2-one,338.75,le15,1
Cc1ccc(C)c2occc12,"4,7-dimethyl-1-benzofuran",359.5499999999999,le15,1
CC(C=O)=Cc1ccccc1,"2-Propenal, 2-methyl-3-phenyl-",363.45,le15,1
Cc1cc2ccoc2cc1C,"5,6-dimethyl-1-benzofuran",361.85,le15,1
CCCCOC(=O)C(C)O,"Propanoic acid, 2-hydroxy-, butyl ester",344.15,le15,1
c1cncc(C2=NCCC2)c1,"Pyridine, 3-(3,4-dihydro-2H-pyrrol-5-yl)- (9CI)",374.95,le15,1
CCCOC(=O)OCCC,dipropyl carbonate,328.15,le15,1
CCOCCC(=O)OCC,"Propanoic acid, 3-ethoxy-, ethyl ester",325.35,le15,1
N#CCCNc1ccccc1,"Propanenitrile, 3-(phenylamino)-",426.05,le15,1
CN(C)c1ccc(C#N)cc1,4-(dimethylamino)benzonitrile,418.55,le15,1
CC1(CCO)CCOCO1,"m-Dioxane-4-ethanol, 4-methyl-",374.65,le15,1
COC(C)CCOC(C)=O,"1-Butanol, 3-methoxy-, acetate",329.0499999999999,le15,1
C=CC=NNc1ccccc1,"2-Propenal, phenylhydrazone (9CI)",375.25,le15,1
Cc1ccc2nc(C)[nH]c2c1,"2,6-dimethyl-1H-benzimidazole",459.764,le15,1
NCCCC[C@H](N)C(=O)O,"(2S)-2,6-diaminohexanoic acid",415.35,le15,1
NCCCCC(N)C(=O)O,DL-Lysine,415.366,le15,1
C=CC(=O)OCCSC,"2-Propenoic acid, 2-(methylthio)ethyl ester (9CI)",360.85,le15,1
C=Cc1c(C)cc(C)cc1C,"2-ethenyl-1,3,5-trimethylbenzene",344.95,le15,1
CC1CCCc2ccccc21,"1-methyl-1,2,3,4-tetrahydronaphthalene",352.25,le15,1
Cc1ccc2c(c1)CCCC2,"6-methyl-1,2,3,4-tetrahydronaphthalene",365.45,le15,1