compound,flashpoint,pure substance,smiles,source
"2,6-dimethylheptan-4-one",333.15,1.0,CC(C)CC(=O)CC(C)C,pubchem
4-methylpentan-2-yl acetate,318.15,1.0,CC(C)CC(C)OC(=O)C,pubchem
bromobenzene,324.15,1.0,C1=CC=C(C=C1)Br,pubchem
methylcyclohexane,269.15,1.0,CC1CCCCC1,pubchem
4-methylpyridine,330.15,1.0,CC1=CC=NC=C1,pubchem
chlorobenzene,297.15,1.0,C1=CC=C(C=C1)Cl,pubchem
cyclohexanamine,304.15,1.0,C1CCC(CC1)N,pubchem
cyclohexanol,341.15,1.0,C1CCC(CC1)O,pubchem
cyclohexanone,317.15,1.0,C1CCC(=O)CC1,pubchem
benzenethiol,326.15,1.0,C1=CC=C(C=C1)S,pubchem
3-methylpyridine,309.15,1.0,CC1=CN=CC=C1,pubchem
4-methylmorpholine,297.15,1.0,CN1CCOCC1,pubchem
2-methylpyridine,309.15,1.0,CC1=CC=CC=N1,pubchem
butyl 3-methylbutanoate,326.15,1.0,CCCCOC(=O)CC(C)C,pubchem
butyl butanoate,326.15,1.0,CCCCOC(=O)CCC,pubchem
dihexyl nonanedioate,477.15,1.0,CCCCCCOC(=O)CCCCCCCC(=O)OCCCCCC,pubchem
dibutyl decanedioate,451.15,1.0,CCCCOC(=O)CCCCCCCCC(=O)OCCCC,pubchem
pentanoic acid,362.15,1.0,CCCCC(=O)O,pubchem
1-ethenoxy-2-methylpropane,264.15,1.0,CC(C)COC=C,pubchem
"N',N'-dimethylpropane-1,3-diamine",289.15,1.0,CN(C)CCCN,pubchem
2-propan-2-yloxyethanol,306.15,1.0,CC(C)OCCO,pubchem
propyl acetate,287.15,1.0,CCCOC(=O)C,pubchem
propyl carbonochloridate,223.15,1.0,CCCOC(=O)Cl,pubchem
"1,3-dibromopropane",239.15,1.0,C(CBr)CBr,pubchem
1-bromobutane,291.15,1.0,CCCCBr,pubchem
pentane,224.15,1.0,CCCCC,pubchem
pent-1-ene,222.15,1.0,CCCC=C,pubchem
1-chlorobutane,266.15,1.0,CCCCCl,pubchem
1-bromo-3-chloropropane,330.15,1.0,C(CCl)CBr,pubchem
butan-1-amine,261.15,1.0,CCCCN,pubchem
butanenitrile,290.15,1.0,CCCC#N,pubchem
propanedinitrile,403.15,1.0,C(C#N)C#N,pubchem
butane-1-thiol,286.15,1.0,CCCCS,pubchem
"propane-1,3-dithiol",332.15,1.0,C(CS)CS,pubchem
2-(methylamino)ethanol,347.15,1.0,CNCCO,pubchem
2-methoxyethanol,315.15,1.0,COCCO,pubchem
dimethoxymethane,255.15,1.0,COCOC,pubchem
N-ethylethanamine,244.15,1.0,CCNCC,pubchem
ethyl formate,253.15,1.0,CCOC=O,pubchem
ethyl nitrite,238.15,1.0,CCON=O,pubchem
1H-pyrrole,312.15,1.0,C1=CNC=C1,pubchem
oxolane,259.15,1.0,C1CCOC1,pubchem
thiophene,272.15,1.0,C1=CSC=C1,pubchem
2-tert-butylperoxy-2-methylpropane,291.15,1.0,CC(C)(C)OOC(C)(C)C,pubchem
5-methylhexan-2-one,309.15,1.0,CC(C)CCC(=O)C,pubchem
"hexane-2,5-dione",352.15,1.0,CC(=O)CCC(=O)C,pubchem
"N,N,N',N'-tetramethylethane-1,2-diamine",283.15,1.0,CN(C)CCN(C)C,pubchem
2-methylpropyl acetate,290.15,1.0,CC(C)COC(=O)C,pubchem
acetyl ethaneperoxoate,318.15,1.0,CC(=O)OOC(=O)C,pubchem
N-[2-(octadecanoylamino)ethyl]octadecanamide,553.15,1.0,CCCCCCCCCCCCCCCCCC(=O)NCCNC(=O)CCCCCCCCCCCCCCCCC,pubchem
dihexyl hexanedioate,436.15,1.0,CCCCCCOC(=O)CCCCC(=O)OCCCCCC,pubchem
heptan-2-one,312.15,1.0,CCCCCC(=O)C,pubchem
2-methoxyethyl acetate,317.15,1.0,CC(=O)OCCOC,pubchem
hexane,250.15,1.0,CCCCCC,pubchem
"1,4-dichlorobutane",313.15,1.0,C(CCCl)CCl,pubchem
pentan-1-amine,280.15,1.0,CCCCCN,pubchem
pentanenitrile,314.15,1.0,CCCCC#N,pubchem
butanedinitrile,405.15,1.0,C(CC#N)C#N,pubchem
pentanal,285.15,1.0,CCCCC=O,pubchem
"butane-1,4-diol",392.15,1.0,C(CCO)CO,pubchem
"but-2-ene-1,4-diol",401.15,1.0,C(C=CCO)O,pubchem
"but-2-yne-1,4-diol",401.15,1.0,C(C#CCO)O,pubchem
pentane-1-thiol,291.15,1.0,CCCCCS,pubchem
N-methylbutan-1-amine,286.15,1.0,CCCCNC,pubchem
N-butylidenehydroxylamine,331.15,1.0,CCCC=NO,pubchem
"1,2-dimethoxyethane",273.15,1.0,COCCOC,pubchem
2-(ethylamino)ethanol,344.15,1.0,CCNCCO,pubchem
propyl formate,270.15,1.0,CCCOC=O,pubchem
1-chloro-2-ethenoxyethane,289.15,1.0,C=COCCCl,pubchem
2-ethoxyethanol,314.15,1.0,CCOCCO,pubchem
cyclohexane,253.15,1.0,C1CCCCC1,pubchem
cyclohexene,261.15,1.0,C1CCC=CC1,pubchem
"3,4-dihydro-2H-pyran",255.15,1.0,C1CC=COC1,pubchem
"1,3,5-trioxane",318.15,1.0,C1OCOCO1,pubchem
piperidine,276.15,1.0,C1CCNCC1,pubchem
morpholine,311.15,1.0,C1COCCN1,pubchem
2-methyl-N-(2-methylpropyl)propan-1-amine,302.15,1.0,CC(C)CNCC(C)C,pubchem
1-(2-hydroxypropylamino)propan-2-ol,399.15,1.0,CC(CNCC(C)O)O,pubchem
1-(2-hydroxypropoxy)propan-2-ol,411.15,1.0,CC(COCC(C)O)O,pubchem
octan-2-one,325.15,1.0,CCCCCCC(=O)C,pubchem
2-ethoxyethyl acetate,330.15,1.0,CCOCCOC(=O)C,pubchem
2-[2-(2-acetyloxyethoxy)ethoxy]ethyl acetate,447.15,1.0,CC(=O)OCCOCCOCCOC(=O)C,pubchem
hexan-1-amine,302.15,1.0,CCCCCCN,pubchem
hexan-1-ol,336.15,1.0,CCCCCCO,pubchem
"pentane-1,5-diol",402.15,1.0,C(CCO)CCO,pubchem
hexane-1-thiol,293.15,1.0,CCCCCCS,pubchem
1-ethenoxybutane,264.15,1.0,CCCCOC=C,pubchem
3-ethoxypropan-1-ol,327.15,1.0,CCOCCCO,pubchem
1-isocyanatobutane,292.15,1.0,CCCCN=C=O,pubchem
"N'-(2-aminoethyl)ethane-1,2-diamine",375.15,1.0,C(CNCCN)N,pubchem
2-(2-aminoethylamino)ethanol,375.15,1.0,C(CNCCO)N,pubchem
2-(2-hydroxyethylamino)ethanol,410.15,1.0,C(CO)NCCO,pubchem
1-propoxypropane,294.15,1.0,CCCOCCC,pubchem
1-chloro-2-(2-chloroethoxy)ethane,328.15,1.0,C(CCl)OCCCl,pubchem
2-(2-hydroxyethoxy)ethanol,416.15,1.0,C(COCCO)O,pubchem
azepane,310.15,1.0,C1CCCNCC1,pubchem
2-acetyloxyethyl acetate,369.15,1.0,CC(=O)OCCOC(=O)C,pubchem
octanoyl chloride,354.15,1.0,CCCCCCCC(=O)Cl,pubchem
oct-1-ene,294.15,1.0,CCCCCCC=C,pubchem
hexanedinitrile,366.15,1.0,C(CCC#N)CC#N,pubchem
heptan-1-ol,350.15,1.0,CCCCCCCO,pubchem
heptanal,308.15,1.0,CCCCCCC=O,pubchem
2-butoxyethanol,334.15,1.0,CCCCOCCO,pubchem
2-(2-methoxyethoxy)ethanol,366.15,1.0,COCCOCCO,pubchem
nonane,304.15,1.0,CCCCCCCCC,pubchem
1-chlorooctane,343.15,1.0,CCCCCCCCCl,pubchem
octane-1-thiol,319.15,1.0,CCCCCCCCS,pubchem
2-(2-ethoxyethoxy)ethanol,369.15,1.0,CCOCCOCCO,pubchem
1-chloro-2-(2-chloroethoxymethoxy)ethane,383.15,1.0,C(CCl)OCOCCCl,pubchem
N-butylbutan-1-amine,325.15,1.0,CCCCNCCCC,pubchem
3-(2-cyanoethylamino)propanenitrile,383.15,1.0,C(CNCCC#N)C#N,pubchem
1-methoxy-2-(2-methoxyethoxy)ethane,340.15,1.0,COCCOCCOC,pubchem
hexadecyl(trimethyl)azanium;chloride,294.15,1.0,CCCCCCCCCCCCCCCC[N+](C)(C)C.[Cl-],pubchem
trichloro(octadecyl)silane,362.15,1.0,CCCCCCCCCCCCCCCCCC[Si](Cl)(Cl)Cl,pubchem
nonanoic acid,406.15,1.0,CCCCCCCCC(=O)O,pubchem
heptyl acetate,341.15,1.0,CCCCCCCOC(=O)C,pubchem
2-butoxyethyl acetate,344.15,1.0,CCCCOCCOC(=O)C,pubchem
undecan-2-one,362.15,1.0,CCCCCCCCCC(=O)C,pubchem
2-(2-ethoxyethoxy)ethyl acetate,383.15,1.0,CCOCCOCCOC(=O)C,pubchem
2-hexoxyethanol,364.15,1.0,CCCCCCOCCO,pubchem
"1,2-bis(2-chloroethoxy)ethane",523.15,1.0,C(COCCCl)OCCCl,pubchem
2-[2-(2-hydroxyethoxy)ethoxy]ethanol,439.15,1.0,C(COCCOCCO)O,pubchem
decan-1-ol,355.15,1.0,CCCCCCCCCCO,pubchem
decanal,358.15,1.0,CCCCCCCCCC=O,pubchem
2-(2-butoxyethoxy)ethanol,351.15,1.0,CCCCOCCOCCO,pubchem
1-ethoxy-2-(2-ethoxyethoxy)ethane,327.15,1.0,CCOCCOCCOCC,pubchem
dodecane,347.15,1.0,CCCCCCCCCCCC,pubchem
dodec-1-ene,373.15,1.0,CCCCCCCCCCC=C,pubchem
undecan-1-ol,366.15,1.0,CCCCCCCCCCCO,pubchem
1-(2-butoxyethoxy)butane,358.15,1.0,CCCCOCCOCCCC,pubchem
1-methoxy-2-[2-(2-methoxyethoxy)ethoxy]ethane,384.15,1.0,COCCOCCOCCOC,pubchem
2-[2-(2-ethoxyethoxy)ethoxy]ethanol,408.15,1.0,CCOCCOCCOCCO,pubchem
1-chlorododecane,386.15,1.0,CCCCCCCCCCCCCl,pubchem
dodecan-1-ol,400.15,1.0,CCCCCCCCCCCCO,pubchem
dodecane-1-thiol,361.15,1.0,CCCCCCCCCCCCS,pubchem
2-(2-butoxyethoxy)ethyl thiocyanate,325.15,1.0,CCCCOCCOCCSC#N,pubchem
"N'-[2-[2-(2-aminoethylamino)ethylamino]ethyl]ethane-1,2-diamine",436.15,1.0,C(CNCCNCCNCCN)N,pubchem
2-(2-hexoxyethoxy)ethanol,414.15,1.0,CCCCCCOCCOCCO,pubchem
2-[2-[2-(2-hydroxyethoxy)ethoxy]ethoxy]ethanol,455.15,1.0,C(COCCOCCOCCO)O,pubchem
methyl octadecanoate,426.15,1.0,CCCCCCCCCCCCCCCCCC(=O)OC,pubchem
tridecan-1-ol,394.15,1.0,CCCCCCCCCCCCCO,pubchem
tetradecan-1-ol,414.15,1.0,CCCCCCCCCCCCCCO,pubchem
1-[2-(2-butoxyethoxy)ethoxy]butane,391.15,1.0,CCCCOCCOCCOCCCC,pubchem
octadecan-1-ol,473.15,1.0,CCCCCCCCCCCCCCCCCCO,pubchem
icosane,373.15,1.0,CCCCCCCCCCCCCCCCCCCC,pubchem
"4-(2-ethylhexyl)-4-azatricyclo[5.2.1.02,6]dec-8-ene-3,5-dione",450.15,1.0,CCCCC(CC)CN1C(=O)C2C3CC(C2C1=O)C=C3,pubchem
prop-1-ene,165.14999999999995,1.0,CC=C,pubchem
methoxymethane,269.15,1.0,COC,pubchem
2-methylprop-1-ene,197.15,1.0,CC(=C)C,pubchem
2-methylbut-3-en-2-ol,286.15,1.0,CC(C)(C=C)O,pubchem
2-methylbut-3-yn-2-ol,298.15,1.0,CC(C)(C#C)O,pubchem
trichloro(ethyl)silane,295.15,1.0,CC[Si](Cl)(Cl)Cl,pubchem
"(1,7,7-trimethyl-2-bicyclo[2.2.1]heptanyl) 2-thiocyanatoacetate",355.15,1.0,CC1(C2CCC1(C(C2)OC(=O)CSC#N)C)C,pubchem
"2,2,2-trichloro-1,1-bis(4-chlorophenyl)ethanol",297.15,1.0,C1=CC(=CC=C1C(C2=CC=C(C=C2)Cl)(C(Cl)(Cl)Cl)O)Cl,pubchem
"2,2-bis(hydroxymethyl)propane-1,3-diol",513.15,1.0,C(C(CO)(CO)CO)O,pubchem
triphenyl phosphate,493.15,1.0,C1=CC=C(C=C1)OP(=O)(OC2=CC=CC=C2)OC3=CC=CC=C3,pubchem
"3,7-dimethylocta-1,6-dien-3-yl acetate",367.15,1.0,CC(=CCCC(C)(C=C)OC(=O)C)C,pubchem
tris(2-chloroethyl) phosphate,505.15,1.0,C(CCl)OP(=O)(OCCCl)OCCCl,pubchem
"3,3,5-trimethylcyclohexan-1-ol",347.15,1.0,CC1CC(CC(C1)(C)C)O,pubchem
tripropan-2-yl phosphite,347.15,1.0,CC(C)OP(OC(C)C)OC(C)C,pubchem
"methyl 2,2-dichloroacetate",353.15,1.0,COC(=O)C(Cl)Cl,pubchem
"4,5,6,7-tetrachloro-2-benzofuran-1,3-dione",635.15,1.0,C12=C(C(=C(C(=C1Cl)Cl)Cl)Cl)C(=O)OC2=O,pubchem
1-chloro-4-[1-(4-chlorophenyl)-2-nitrobutyl]benzene,423.15,1.0,CCC(C(C1=CC=C(C=C1)Cl)C2=CC=C(C=C2)Cl)[N+](=O)[O-],pubchem
"2-aminoanthracene-9,10-dione",556.15,1.0,C1=CC=C2C(=C1)C(=O)C3=C(C2=O)C=C(C=C3)N,pubchem
"bis(2-ethylhexyl) benzene-1,2-dicarboxylate",480.15,1.0,CCCCC(CC)COC(=O)C1=CC=CC=C1C(=O)OCC(CC)CCCC,pubchem
"bis(2-methoxyethyl) benzene-1,2-dicarboxylate",483.15,1.0,COCCOC(=O)C1=CC=CC=C1C(=O)OCCOC,pubchem
"bis(2-butoxyethyl) benzene-1,2-dicarboxylate",680.15,1.0,CCCCOCCOC(=O)C1=CC=CC=C1C(=O)OCCOCCCC,pubchem
"dioctyl benzene-1,2-dicarboxylate",377.15,1.0,CCCCCCCCOC(=O)C1=CC=CC=C1C(=O)OCCCCCCCC,pubchem
"1,3-dichloro-5,5-dimethylimidazolidine-2,4-dione",447.15,1.0,CC1(C(=O)N(C(=O)N1Cl)Cl)C,pubchem
benzyl 2-hydroxybenzoate,453.15,1.0,C1=CC=C(C=C1)COC(=O)C2=CC=CC=C2O,pubchem
"1,3-dichloro-2-methylbenzene",355.15,1.0,CC1=C(C=CC=C1Cl)Cl,pubchem
"1,2,3,4,5,6-hexachlorobenzene",515.15,1.0,C1(=C(C(=C(C(=C1Cl)Cl)Cl)Cl)Cl)Cl,pubchem
"ditridecyl benzene-1,2-dicarboxylate",511.15,1.0,CCCCCCCCCCCCCOC(=O)C1=CC=CC=C1C(=O)OCCCCCCCCCCCCC,pubchem
"2-O-decyl 1-O-octyl benzene-1,2-dicarboxylate",508.15,1.0,CCCCCCCCCCOC(=O)C1=CC=CC=C1C(=O)OCCCCCCCC,pubchem
4-methyl-3-nitroaniline,430.15,1.0,CC1=C(C=C(C=C1)N)[N+](=O)[O-],pubchem
"1,2,3,4-tetrahydronaphthalene",353.15,1.0,C1CCC2=CC=CC=C2C1,pubchem
4-(4-amino-3-methoxyphenyl)-2-methoxyaniline,479.15,1.0,COC1=C(C=CC(=C1)C2=CC(=C(C=C2)N)OC)N,pubchem
4-(4-amino-3-methylphenyl)-2-methylaniline,517.15,1.0,CC1=C(C=CC(=C1)C2=CC(=C(C=C2)N)C)N,pubchem
anthracene,394.15,1.0,C1=CC=C2C=C3C=CC=CC3=CC2=C1,pubchem
2-benzyl-4-chlorophenol,461.15,1.0,C1=CC=C(C=C1)CC2=C(C=CC(=C2)Cl)O,pubchem
"2-(2,4-dichlorophenoxy)propanoic acid",477.15,1.0,CC(C(=O)O)OC1=C(C=C(C=C1)Cl)Cl,pubchem
2-(2-benzoyloxyethoxy)ethyl benzoate,505.15,1.0,C1=CC=C(C=C1)C(=O)OCCOCCOC(=O)C2=CC=CC=C2,pubchem
"dimethyl benzene-1,4-dicarboxylate",426.15,1.0,COC(=O)C1=CC=C(C=C1)C(=O)OC,pubchem
"2-(1,3-benzothiazol-2-yldisulfanyl)-1,3-benzothiazole",543.15,1.0,C1=CC=C2C(=C1)N=C(S2)SSC3=NC4=CC=CC=C4S3,pubchem
"2,4-dichlorophenol",387.15,1.0,C1=CC(=C(C=C1Cl)Cl)O,pubchem
cyclopentanone,303.15,1.0,C1CCC(=O)C1,pubchem
2-tert-butyl-4-methoxyphenol,429.15,1.0,CC(C)(C)C1=C(C=CC(=C1)OC)O,pubchem
"1-methyl-2,4-dinitrobenzene",480.15,1.0,CC1=C(C=C(C=C1)[N+](=O)[O-])[N+](=O)[O-],pubchem
3-ethoxy-4-hydroxybenzaldehyde,418.15,1.0,CCOC1=C(C=CC(=C1)C=O)O,pubchem
"N,N-diethylethanamine",266.15,1.0,CCN(CC)CC,pubchem
trimethyl phosphite,301.15,1.0,COP(OC)OC,pubchem
"bicyclo[2.2.1]hepta-2,5-diene",252.15,1.0,C1C2C=CC1C=C2,pubchem
1-chloro-3-nitrobenzene,400.15,1.0,C1=CC(=CC(=C1)Cl)[N+](=O)[O-],pubchem
2-chloro-4-nitroaniline,478.15,1.0,C1=CC(=C(C=C1[N+](=O)[O-])Cl)N,pubchem
"dimethyl benzene-1,2-dicarboxylate",419.15,1.0,COC(=O)C1=CC=CC=C1C(=O)OC,pubchem
"bis(prop-2-enyl) benzene-1,2-dicarboxylate",383.15,1.0,C=CCOC(=O)C1=CC=CC=C1C(=O)OCC=C,pubchem
"dipentyl benzene-1,2-dicarboxylate",454.15,1.0,CCCCCOC(=O)C1=CC=CC=C1C(=O)OCCCCC,pubchem
methyl 2-aminobenzoate,377.15,1.0,COC(=O)C1=CC=CC=C1N,pubchem
naphthalen-1-amine,430.15,1.0,C1=CC=C2C(=C1)C=CC=C2N,pubchem
"1,2-diethylbenzene",330.15,1.0,CCC1=CC=CC=C1CC,pubchem
naphthalen-2-ol,426.15,1.0,C1=CC=C2C=C(C=CC2=C1)O,pubchem
butan-2-ylbenzene,325.15,1.0,CCC(C)C1=CC=CC=C1,pubchem
"dipropyl pyridine-2,5-dicarboxylate",366.15,1.0,CCCOC(=O)C1=CN=C(C=C1)C(=O)OCCC,pubchem
2-ethylhexanoic acid,400.15,1.0,CCCCC(CC)C(=O)O,pubchem
butyl benzoate,380.15,1.0,CCCCOC(=O)C1=CC=CC=C1,pubchem
methyl 2-cyanoprop-2-enoate,352.15,1.0,COC(=O)C(=C)C#N,pubchem
"zinc;N,N-dimethylcarbamodithioate",366.15,1.0,CN(C)C(=S)[S-].CN(C)C(=S)[S-].[Zn+2],pubchem
2-methylbutan-1-ol,323.15,1.0,CCC(C)CO,pubchem
"2,4-di(nonyl)phenol",400.15,1.0,CCCCCCCCCC1=CC(=C(C=C1)O)CCCCCCCCC,pubchem
butyl 2-hydroxypropanoate,344.15,1.0,CCCCOC(=O)C(C)O,pubchem
2-[ethyl(2-hydroxyethyl)amino]ethanol,371.15,1.0,CCN(CCO)CCO,pubchem
trisodium;2-[2-[bis(carboxylatomethyl)amino]ethyl-(2-hydroxyethyl)amino]acetate,373.15,1.0,C(CN(CC(=O)[O-])CC(=O)[O-])N(CCO)CC(=O)[O-].[Na+].[Na+].[Na+],pubchem
tris(2-chloroethyl) phosphite,411.15,1.0,C(CCl)OP(OCCCl)OCCCl,pubchem
benzyl acetate,364.15,1.0,CC(=O)OCC1=CC=CC=C1,pubchem
2-phenylacetonitrile,375.15,1.0,C1=CC=C(C=C1)CC#N,pubchem
2-piperazin-1-ylethanamine,366.15,1.0,C1CN(CCN1)CCN,pubchem
N-[4-(2-chloroacetyl)phenyl]acetamide,383.15,1.0,CC(=O)NC1=CC=C(C=C1)C(=O)CCl,pubchem
1-methoxy-4-prop-2-enylbenzene,354.15,1.0,COC1=CC=C(C=C1)CC=C,pubchem
5-ethenyl-2-methylpyridine,347.15,1.0,CC1=NC=C(C=C1)C=C,pubchem
ethyl prop-2-enoate,282.15,1.0,CCOC(=O)C=C,pubchem
dibutyl butanedioate,408.15,1.0,CCCCOC(=O)CCC(=O)OCCCC,pubchem
"3,7-dimethylocta-2,6-dienal",375.15,1.0,CC(=CCCC(=CC=O)C)C,pubchem
butyl prop-2-enoate,322.15,1.0,CCCCOC(=O)C=C,pubchem
trichloro(propyl)silane,310.15,1.0,CCC[Si](Cl)(Cl)Cl,pubchem
"2,4,4-trimethylpentane-2-thiol",319.15,1.0,CC(C)(C)CC(C)(C)S,pubchem
butanoyl chloride,295.15,1.0,CCCC(=O)Cl,pubchem
ethyl acetate,269.15,1.0,CCOC(=O)C,pubchem
4-methylpent-3-en-2-one,296.15,1.0,CC(=CC(=O)C)C,pubchem
ethyl 3-oxobutanoate,330.15,1.0,CCOC(=O)CC(=O)C,pubchem
aniline;hydrochloride,466.15,1.0,C1=CC=C(C=C1)N.Cl,pubchem
hexyl 2-methylprop-2-enoate,355.15,1.0,CCCCCCOC(=O)C(=C)C,pubchem
N-(2-hydroxyethyl)acetamide,450.15,1.0,CC(=O)NCCO,pubchem
"1,3-dichloropropane",294.15,1.0,C(CCl)CCl,pubchem
cyclopentene,239.15,1.0,C1CC=CC1,pubchem
hexanoic acid,377.15,1.0,CCCCCC(=O)O,pubchem
oxane,253.15,1.0,C1CCOCC1,pubchem
heptane,269.15,1.0,CCCCCCC,pubchem
N-propylpropan-1-amine,290.15,1.0,CCCNCCC,pubchem
hexyl acetate,310.15,1.0,CCCCCCOC(=O)C,pubchem
1-butoxybutane,298.15,1.0,CCCCOCCCC,pubchem
nonan-1-ol,347.15,1.0,CCCCCCCCCO,pubchem
decane-1-thiol,371.15,1.0,CCCCCCCCCCS,pubchem
N-hexylhexan-1-amine,368.15,1.0,CCCCCCNCCCCCC,pubchem
2-[2-(2-butoxyethoxy)ethoxy]ethanol,416.15,1.0,CCCCOCCOCCOCCO,pubchem
hexadecan-1-amine,414.15,1.0,CCCCCCCCCCCCCCCCN,pubchem
"2,2,4-trimethylpentane-1,3-diol",386.15,1.0,CC(C)C(C(C)(C)CO)O,pubchem
"2,2,4-trimethyl-1H-quinoline",374.15,1.0,CC1=CC(NC2=CC=CC=C12)(C)C,pubchem
dichloro-methyl-phenylsilane,301.15,1.0,C[Si](C1=CC=CC=C1)(Cl)Cl,pubchem
tris(butylsulfanyl)phosphane,419.15,1.0,CCCCSP(SCCCC)SCCCC,pubchem
4-methoxyphenol,405.15,1.0,COC1=CC=C(C=C1)O,pubchem
"1,4-dimethoxybenzene",361.15,1.0,COC1=CC=C(C=C1)OC,pubchem
aziridine,262.15,1.0,C1CN1,pubchem
4-ethoxyaniline,389.15,1.0,CCOC1=CC=C(C=C1)N,pubchem
3-aminopropan-1-ol,352.15,1.0,C(CN)CO,pubchem
fluoranthene,471.15,1.0,C1=CC=C2C(=C1)C3=CC=CC4=C3C2=CC=C4,pubchem
acenaphthylene,395.15,1.0,C1=CC2=C3C(=C1)C=CC3=CC=C2,pubchem
1-benzofuran,329.15,1.0,C1=CC=C2C(=C1)C=CO2,pubchem
7-oxabicyclo[4.1.0]heptane,354.15,1.0,C1CCC2C(C1)O2,pubchem
"1H-1,2,4-triazole",443.15,1.0,C1=NC=NN1,pubchem
cycloheptane,279.15,1.0,C1CCCCCC1,pubchem
bis(2-ethylhexyl) hydrogen phosphate,469.15,1.0,CCCCC(CC)COP(=O)(O)OCC(CC)CCCC,pubchem
N-methyl-1-phenylpropan-2-amine;hydrochloride,282.15,1.0,CC(CC1=CC=CC=C1)NC.Cl,pubchem
tris(2-ethylhexyl) phosphite,444.15,1.0,CCCCC(CC)COP(OCC(CC)CCCC)OCC(CC)CCCC,pubchem
hydrazine,325.15,1.0,NN,pubchem
"1,2-dichloro-4-(trifluoromethyl)benzene",338.15,1.0,C1=CC(=C(C=C1C(F)(F)F)Cl)Cl,pubchem
methyl trifluoromethanesulfonate,311.15,1.0,COS(=O)(=O)C(F)(F)F,pubchem
2-fluoroaniline,333.15,1.0,C1=CC=C(C(=C1)N)F,pubchem
1-fluoro-4-methylbenzene,314.15,1.0,CC1=CC=C(C=C1)F,pubchem
1-fluoro-3-methylbenzene,282.15,1.0,CC1=CC(=CC=C1)F,pubchem
ethylsulfanylethane,263.15,1.0,CCSCC,pubchem
"2,4-difluoroaniline",336.15,1.0,C1=CC(=C(C=C1F)F)N,pubchem
4-fluoroaniline,347.15,1.0,C1=CC(=CC=C1N)F,pubchem
2-fluoroethanol,304.15,1.0,C(CF)O,pubchem
1-nitro-2-(trifluoromethyl)benzene,369.15,1.0,C1=CC=C(C(=C1)C(F)(F)F)[N+](=O)[O-],pubchem
2-fluorobenzoyl chloride,355.15,1.0,C1=CC=C(C(=C1)C(=O)Cl)F,pubchem
6-methylhept-5-en-2-one,330.15,1.0,CC(=CCCC(=O)C)C,pubchem
cyanamide,414.15,1.0,C(#N)N,pubchem
1-bromo-4-fluorobenzene,333.15,1.0,C1=CC(=CC=C1F)Br,pubchem
fluorobenzene,258.15,1.0,C1=CC=C(C=C1)F,pubchem
pyridin-3-amine,463.15,1.0,C1=CC(=CN=C1)N,pubchem
pentyl nitrite,283.15,1.0,CCCCCON=O,pubchem
"3,3-dimethylbutan-2-ol",351.15,1.0,CC(C(C)(C)C)O,pubchem
"(1S,2R,4R)-1,7,7-trimethylbicyclo[2.2.1]heptan-2-ol",339.15,1.0,CC1(C2CCC1(C(C2)O)C)C,pubchem
prop-2-ynoic acid,331.15,1.0,C#CC(=O)O,pubchem
"2,6,6-trimethylbicyclo[3.1.1]heptane",313.15,1.0,CC1CCC2CC1C2(C)C,pubchem
3-methyl-2-pent-2-enylcyclopent-2-en-1-one,380.15,1.0,CCC=CCC1=C(CCC1=O)C,pubchem
"InChI=1S/C4H4O2/c5-4-2-1-3-6-4/h1-2H,3H2",374.15,1.0,C1C=CC(=O)O1,pubchem
2-methyl-5-propan-2-ylphenol,373.15,1.0,CC1=C(C=C(C=C1)C(C)C)O,pubchem
benzyl carbonochloridate,381.15,1.0,C1=CC=C(C=C1)COC(=O)Cl,pubchem
oxepan-2-one,400.15,1.0,C1CCC(=O)OCC1,pubchem
nonan-5-one,333.15,1.0,CCCCC(=O)CCCC,pubchem
2-(fluoromethyl)oxirane,277.15,1.0,C1C(O1)CF,pubchem
but-2-yne,253.15,1.0,CC#CC,pubchem
oxetane,245.15,1.0,C1COC1,pubchem
3-methylbutanoic acid,343.15,1.0,CC(C)CC(=O)O,pubchem
"2,6-dimethylhepta-2,5-dien-4-one",358.15,1.0,CC(=CC(=O)C=C(C)C)C,pubchem
pyridin-2-amine,365.15,1.0,C1=CC=NC(=C1)N,pubchem
"propane-1,3-diol",447.15,1.0,C(CO)CO,pubchem
"1,3-dioxane",275.15,1.0,C1COCOC1,pubchem
1-chloro-2-(2-chloroethylsulfanyl)ethane,378.15,1.0,C(CCl)SCCCl,pubchem
acetyl bromide,348.15,1.0,CC(=O)Br,pubchem
2-bromo-2-methylpropane,257.15,1.0,CC(C)(C)Br,pubchem
"(1R,2S,4S)-1,7,7-trimethylbicyclo[2.2.1]heptan-2-ol",339.15,1.0,CC1(C2CCC1(C(C2)O)C)C,pubchem
1-chloro-2-methylpropane,263.15,1.0,CC(C)CCl,pubchem
1-chloro-2-methylprop-1-ene,272.15,1.0,CC(=CCl)C,pubchem
2-methylprop-2-en-1-ol,306.15,1.0,CC(=C)CO,pubchem
butane-2-thiol,250.15,1.0,CCC(C)S,pubchem
"(1R,4aR,4bR,10aR)-1,4a-dimethyl-7-propan-2-yl-2,3,4,4b,5,6,10,10a-octahydrophenanthrene-1-carboxylic acid",460.15,1.0,CC(C)C1=CC2=CCC3C(C2CC1)(CCCC3(C)C(=O)O)C,pubchem
"1,2,3-trimethylbenzene",317.15,1.0,CC1=C(C(=CC=C1)C)C,pubchem
"1,2,3,5-tetramethylbenzene",336.15,1.0,CC1=CC(=C(C(=C1)C)C)C,pubchem
"1,2-dinitrobenzene",423.15,1.0,C1=CC=C(C(=C1)[N+](=O)[O-])[N+](=O)[O-],pubchem
2-methylbenzonitrile,357.15,1.0,CC1=CC=CC=C1C#N,pubchem
2-methylbenzaldehyde,340.15,1.0,CC1=CC=CC=C1C=O,pubchem
"3,4-dihydro-2H-naphthalen-1-one",402.15,1.0,C1CC2=CC=CC=C2C(=O)C1,pubchem
2-chloro-1-phenylethanone,391.15,1.0,C1=CC=C(C=C1)C(=O)CCl,pubchem
2-hydroxy-2-phenylacetonitrile,355.15,1.0,C1=CC=C(C=C1)C(C#N)O,pubchem
"3,5-dimethyl-1,3,5-thiadiazinane-2-thione",366.15,1.0,CN1CN(C(=S)SC1)C,pubchem
2-methylfuran,243.15,1.0,CC1=CC=CO1,pubchem
(2S)-N-methyl-1-phenylpropan-2-amine,282.15,1.0,CC(CC1=CC=CC=C1)NC,pubchem
"2,3-di(octanoyloxy)propyl octanoate",450.15,1.0,CCCCCCCC(=O)OCC(COC(=O)CCCCCCC)OC(=O)CCCCCCC,pubchem
pentyl butanoate,330.15,1.0,CCCCCOC(=O)CCC,pubchem
2-bromoethanol,314.15,1.0,C(CBr)O,pubchem
1-chloropropane,255.15,1.0,CCCCl,pubchem
"1,2-dichloroethene",277.15,1.0,C(=CCl)Cl,pubchem
methoxyethane,236.15,1.0,CCOC,pubchem
"2,2,4-trimethylpentane",261.15,1.0,CC(C)CC(C)(C)C,pubchem
tert-butyl acetate,295.15,1.0,CC(=O)OC(C)(C)C,pubchem
"2,2,4,4,6,6,8,8,10,10,12,12-dodecamethyl-1,3,5,7,9,11-hexaoxa-2,4,6,8,10,12-hexasilacyclododecane",364.15,1.0,C[Si]1(O[Si](O[Si](O[Si](O[Si](O[Si](O1)(C)C)(C)C)(C)C)(C)C)(C)C)C,pubchem