compound,flashpoint,pure substance,smiles,source
"2-Benzoxazolinone, 5-chloro-3-methyl-",404.75,1.0,Cn1c(=O)oc2ccc(Cl)cc21,le15
"Benzeneethanamine, 4-chloro-alpha,alpha-dimethyl-",400.15,1.0,CC(C)(N)Cc1ccc(Cl)cc1,le15
trichloro(chloromethyl)silane,342.5499999999999,1.0,ClC[Si](Cl)(Cl)Cl,le15
"Propane, 1-iodo-2-methyl-",285.15,1.0,CC(C)CI,le15
2-iodo-2-methylpropane,280.95,1.0,CC(C)(C)I,le15
"Phenol, pentafluoro-",345.15,1.0,Oc1c(F)c(F)c(F)c(F)c1F,le15
"Phenol, 2,4-dinitro-",415.95,1.0,O=[N+]([O-])c1ccc(O)c([N+](=O)[O-])c1,le15
"Phenol, 2,3-dinitro-",424.35,1.0,O=[N+]([O-])c1cccc(O)c1[N+](=O)[O-],le15
"Phenol, 2,5-dinitro-",414.65,1.0,O=[N+]([O-])c1ccc([N+](=O)[O-])c(O)c1,le15
"Phenol, 2,6-dinitro-",377.95,1.0,O=[N+]([O-])c1cccc([N+](=O)[O-])c1O,le15
"Furan, 2-nitro-5-(2-nitroethenyl)-",420.45,1.0,O=[N+]([O-])C=Cc1ccc([N+](=O)[O-])o1,le15
"Phenol, 3,4-dinitro-",467.25,1.0,O=[N+]([O-])c1ccc(O)cc1[N+](=O)[O-],le15
"ethyl 4,4,4-trifluoro-3-oxobutanoate",302.0499999999999,1.0,CCOC(=O)CC(=O)C(F)(F)F,le15
"Phosphorofluoridic acid, bis(1-methylethyl) ester",337.65,1.0,CC(C)OP(=O)(F)OC(C)C,le15
"Dibenzo(b,e)(1,4)dioxin",388.85,1.0,c1ccc2c(c1)Oc1ccccc1O2,le15
"p-Benzoquinone, 2-phenyl- (8CI)",398.35,1.0,O=C1C=CC(=O)C(c2ccccc2)=C1,le15
"Benzenemethanol, alpha-phenyl-",413.95,1.0,OC(c1ccccc1)c1ccccc1,le15
"p-Cresol, alpha-phenyl- (8CI)",427.35,1.0,Oc1ccc(Cc2ccccc2)cc1,le15
phenoxymethylbenzene,383.95,1.0,c1ccc(COc2ccccc2)cc1,le15
p-Phenylbenzyl alcohol,428.05,1.0,OCc1ccc(-c2ccccc2)cc1,le15
2-benzylphenol,420.45,1.0,Oc1ccccc1Cc1ccccc1,le15
1-methyl-3-phenoxybenzene,383.95,1.0,Cc1cccc(Oc2ccccc2)c1,le15
1-methyl-2-phenoxybenzene,380.05,1.0,Cc1ccccc1Oc1ccccc1,le15
"(1,1'-Biphenyl)-4,4'-diamine",476.65,1.0,Nc1ccc(-c2ccc(N)cc2)cc1,le15
"1,4-Benzenediamine, N-phenyl-",470.95,1.0,Nc1ccc(Nc2ccccc2)cc1,le15
"Hydrazine, 1,1-diphenyl-",453.65,1.0,NN(c1ccccc1)c1ccccc1,le15
"2-N-phenylbenzene-1,2-diamine",454.75,1.0,Nc1ccccc1Nc1ccccc1,le15
"Pyridine, 4,4'-(1,2-ethanediyl)bis-",390.35,1.0,c1cc(CCc2ccncc2)ccn1,le15
"1,2-Diphenylhydrazine (9CI)",360.85,1.0,c1ccc(NNc2ccccc2)cc1,le15
Dibenzothiophene,443.15,1.0,c1ccc2c(c1)sc1ccccc12,le15
2-butylnaphthalene,405.25,1.0,CCCCc1ccc2ccccc2c1,le15
2-tert-butylnaphthalene,394.75,1.0,CC(C)(C)c1ccc2ccccc2c1,le15
1-tert-butylnaphthalene,394.75,1.0,CC(C)(C)c1cccc2ccccc12,le15
1-butylnaphthalene,404.55,1.0,CCCCc1cccc2ccccc12,le15
"2-Propenoic acid, 2-ethylhexyl ester",352.54999999999984,1.0,C=CC(=O)OCC(CC)CCCC,le15
"6-Octen-1-ol, 3,7-dimethyl-, formate",365.35,1.0,CC(C)=CCCC(C)CCOC=O,le15
"Octanoic acid, 2-propenyl ester",368.15,1.0,C=CCOC(=O)CCCCCCC,le15
10-Undecenoic acid,418.965,1.0,C=CCCCCCCCCC(=O)O,le15
"Undecanal, 2-methyl-",366.45,1.0,CCCCCCCCCC(C)C=O,le15
Lauraldehyde (8CI),375.15,1.0,CCCCCCCCCCCC=O,le15
2-Dodecanone,354.35,1.0,CCCCCCCCCCC(C)=O,le15
"2,6,8-trimethylnonan-4-one",336.25,1.0,CC(C)CC(=O)CC(C)CC(C)C,le15
"1,3,5-Triazine, 2,4,6-trichloro-",487.55,1.0,Clc1nc(Cl)nc(Cl)n1,le15
5-n-Butylnonane,338.0499999999999,1.0,CCCCC(CCCC)CCCC,le15
"Ethane, 2-chloro-2-(difluoromethoxy)-1,1,1-trifluoro-",321.65,1.0,FC(F)OC(Cl)C(F)(F)F,le15
"6-Benzoxazolol, 2-amino-5-chloro- (8CI)(9CI)",450.85,1.0,Nc1nc2cc(Cl)c(O)cc2o1,le15
2-phenoxypropanoyl chloride,361.45,1.0,CC(Oc1ccccc1)C(=O)Cl,le15
ethyl 4-chlorobenzoate,380.35,1.0,CCOC(=O)c1ccc(Cl)cc1,le15
ethyl 3-chlorobenzoate,388.35,1.0,CCOC(=O)c1cccc(Cl)c1,le15
4-chloro-5-methyl-2-propan-2-ylphenol,382.65,1.0,Cc1cc(O)c(C(C)C)cc1Cl,le15
chloromethyl-dimethyl-phenylsilane,364.25,1.0,C[Si](C)(CCl)c1ccccc1,le15
"Acetamide, 2-iodo-",406.65,1.0,NC(=O)CI,le15
benzoyl bromide,362.85,1.0,O=C(Br)c1ccccc1,le15
"Benzaldehyde, 4-bromo-",382.05,1.0,O=Cc1ccc(Br)cc1,le15
"Benzaldehyde, 2-bromo-",369.35,1.0,O=Cc1ccccc1Br,le15
"Benzene, (2-bromoethyl)-",362.55,1.0,BrCCc1ccccc1,le15
1-(bromomethyl)-4-methylbenzene,370.95,1.0,Cc1ccc(CBr)cc1,le15
"1-bromo-3,5-dimethylbenzene",360.35,1.0,Cc1cc(C)cc(Br)c1,le15
"2-bromo-1,3-dimethylbenzene",347.04999999999984,1.0,Cc1cccc(C)c1Br,le15
"1-bromo-2,3-dimethylbenzene",357.15,1.0,Cc1cccc(Br)c1C,le15
"1-bromo-2,4-dimethylbenzene",354.75,1.0,Cc1ccc(Br)c(C)c1,le15
alpha-Methylbenzyl bromide,353.35,1.0,CC(Br)c1ccccc1,le15
1-(bromomethyl)-3-methylbenzene,355.15,1.0,Cc1cccc(CBr)c1,le15
"Benzene, 1-bromo-4-ethyl-",344.35,1.0,CCc1ccc(Br)cc1,le15
1-bromo-2-ethylbenzene,344.15,1.0,CCc1ccccc1Br,le15
1-(bromomethyl)-2-methylbenzene,355.15,1.0,Cc1ccccc1CBr,le15
"2-bromo-1,4-dimethylbenzene",352.15,1.0,Cc1ccc(C)c(Br)c1,le15
"4-bromo-1,2-dimethylbenzene",358.95,1.0,Cc1ccc(Br)cc1C,le15
"1H-Imidazole-1-acetic acid, 2-methyl-5-nitro-",514.75,1.0,Cc1ncc([N+](=O)[O-])n1CC(=O)O,le15
"Furo(2,3-b)quinolin-4(9H)-one",429.85,1.0,O=c1c2ccccc2[nH]c2occc12,le15
"Phenol, m-anilino- (8CI)",420.55,1.0,Oc1cccc(Nc2ccccc2)c1,le15
"Phenol, 4-(phenylamino)-",419.35,1.0,Oc1ccc(Nc2ccccc2)cc1,le15
"Benzenamine, 4-phenoxy-",428.95,1.0,Nc1ccc(Oc2ccccc2)cc1,le15
"(1,1'-Biphenyl)-4-ol, 3-amino-",442.25,1.0,Nc1cc(-c2ccccc2)ccc1O,le15
2-phenoxyaniline,386.15,1.0,Nc1ccccc1Oc1ccccc1,le15
"(1,1'-Biphenyl)-3-ol, 4-amino-",438.75,1.0,Nc1ccc(-c2ccccc2)cc1O,le15
2-(1-Naphthyl)acetamide,481.35,1.0,NC(=O)Cc1cccc2ccccc12,le15
"Isothiocyanic acid, 1-naphthyl ester",440.35,1.0,S=C=Nc1cccc2ccccc12,le15
"2-Propenoic acid, 2-methyl-, 2-(diethylamino)ethyl ester",349.85,1.0,C=C(C)C(=O)OCCN(CC)CC,le15
"1-Butanamine, N,N-dibutyl-",336.45,1.0,CCCCN(CCCC)CCCC,le15
"1-Hexanamine, N-hexyl-",368.15,1.0,CCCCCCNCCCCCC,le15
"1-Propanamine, 2-methyl-N,N-bis(2-methylpropyl)-",330.35,1.0,CC(C)CN(CC(C)C)CC(C)C,le15
Tributylamine,345.0,1.0,CCCCN(CCCC)CCCC,le15
2-bromobutanoyl chloride,321.95,1.0,CCC(Br)C(=O)Cl,le15
"Silanamine, 1-ethenyl-N-(ethenyldimethylsilyl)-1,1-dimethyl-",325.25,1.0,C=C[Si](C)(C)N[Si](C)(C)C=C,le15
"Benzoyl chloride, 3-nitro-",385.15,1.0,O=C(Cl)c1cccc([N+](=O)[O-])c1,le15
"Benzaldehyde, 2-chloro-5-nitro-",402.55,1.0,O=Cc1cc([N+](=O)[O-])ccc1Cl,le15
"Benzoyl chloride, 4-nitro-",394.95,1.0,O=C(Cl)c1ccc([N+](=O)[O-])cc1,le15
2-Chloro-6-nitrobenzaldehyde,407.65,1.0,O=Cc1c(Cl)cccc1[N+](=O)[O-],le15
"Carbamic acid, methyl-, 2-chlorophenyl ester",380.45,1.0,CNC(=O)Oc1ccccc1Cl,le15
"Acetamide, N-(4-chlorophenyl)-N-hydroxy- (9CI)",422.15,1.0,CC(=O)N(O)c1ccc(Cl)cc1,le15
"1,1,1,2-tetrachloro-2-fluoroethane",299.5499999999999,1.0,FC(Cl)C(Cl)(Cl)Cl,le15
"1,1,2,2-tetrachloro-1-fluoroethane",298.25,1.0,FC(Cl)(Cl)C(Cl)Cl,le15
"1,2,3,4,5,6-hexafluorobenzene",283.15,1.0,Fc1c(F)c(F)c(F)c(F)c1F,le15
2-bromo-4-methylaniline,375.05,1.0,Cc1ccc(N)c(Br)c1,le15
4-bromo-3-methylaniline,374.35,1.0,Cc1cc(N)ccc1Br,le15
"Benzenamine, 3-bromo-4-methyl- (9CI)",383.15,1.0,Cc1ccc(N)cc1Br,le15
"Benzene, 1-fluoro-2,4-dinitro-",405.95,1.0,O=[N+]([O-])c1ccc(F)c([N+](=O)[O-])c1,le15
"2,2,3,3-tetrafluoropropyl prop-2-enoate",307.85,1.0,C=CC(=O)OCC(F)(F)C(F)F,le15
"1H-Benzimidazole, 2-(trifluoromethyl)- (9CI)",385.85,1.0,FC(F)(F)c1nc2ccccc2[nH]1,le15
"Phosphonic acid, phenyl-, O,O-dimethyl ester",390.45,1.0,COP(=O)(OC)c1ccccc1,le15
"7H-Furo(3,2-g)(1)benzopyran-7-one",446.25,1.0,O=c1ccc2cc3ccoc3cc2o1,le15
"2H-Furo(2,3-h)(1)benzopyran-2-one",446.25,1.0,O=c1ccc2ccc3occc3c2o1,le15
"7-Oxabicyclo(2.2.1)heptane-2,3-dicarboxylic acid",463.65,1.0,O=C(O)C1C2CCC(O2)C1C(=O)O,le15
"1,3,5,7-Tetraazabicyclo(3.3.1)nonane, 3,7-dinitroso-",504.25,1.0,O=NN1CN2CN(C1)CN(N=O)C2,le15
"(1,1'-Biphenyl)-4,4'-diol",449.25,1.0,Oc1ccc(-c2ccc(O)cc2)cc1,le15
"Phenol, p-phenoxy- (8CI)",414.55,1.0,Oc1ccc(Oc2ccccc2)cc1,le15
"(1,1'-Biphenyl)-2,5-diol",465.45,1.0,Oc1ccc(O)c(-c2ccccc2)c1,le15
methyl naphthalene-2-carboxylate,418.95,1.0,COC(=O)c1ccc2ccccc2c1,le15
"2(1H)-Pyridone, 1-(m-aminophenyl)-",483.85,1.0,Nc1cccc(-n2ccccc2=O)c1,le15
"diethyl cyclopropane-1,1-dicarboxylate",359.85,1.0,CCOC(=O)C1(C(=O)OCC)CC1,le15
diethyl 2-methylidenebutanedioate,381.15,1.0,C=C(CC(=O)OCC)C(=O)OCC,le15
"Hexanedioic acid, ethenyl methyl ester (9CI)",378.15,1.0,C=COC(=O)CCCCC(=O)OC,le15
diethyl (E)-pent-2-enedioate,379.85,1.0,CCOC(=O)/C=C/CC(=O)OCC,le15
"Benzenesulfonic acid, ethyl ester",398.65,1.0,CCOS(=O)(=O)c1ccccc1,le15
"Phosphorodithioic acid, O,O-diethyl ester",355.95,1.0,CCOP(=S)([S-])OCC,le15
"Benzenesulfonamide, 4-amino-N-methyl- (9CI)",444.15,1.0,CNS(=O)(=O)c1ccc(N)cc1,le15
"Cyclohexaneacetic acid, alpha-ethyl-1-hydroxy-",443.25,1.0,CCC(C(=O)O)C1(O)CCCCC1,le15
"Decanoic acid, 9-oxo-",444.95,1.0,CC(=O)CCCCCCCC(=O)O,le15
3-methylbutanoyl 3-methylbutanoate,364.45,1.0,CC(C)CC(=O)OC(=O)CC(C)C,le15
"2,2-dimethylpropanoyl 2,2-dimethylpropanoate",330.15,1.0,CC(C)(C)C(=O)OC(=O)C(C)(C)C,le15
"ethyl 2,2-diethyl-3-oxobutanoate",354.54999999999984,1.0,CCOC(=O)C(CC)(CC)C(C)=O,le15
ethyl 2-acetylhexanoate,362.25,1.0,CCCCC(C(C)=O)C(=O)OCC,le15
pentanoyl pentanoate,374.25,1.0,CCCCC(=O)OC(=O)CCCC,le15
"Benzene, 1,1'-thiobis-",401.55,1.0,c1ccc(Sc2ccccc2)cc1,le15
"1,2,3,4,5,6,7,8-octahydroanthracene",409.55,1.0,c1c2c(cc3c1CCCC3)CCCC2,le15
"1,2,3,4,5,6,7,8-octahydrophenanthrene",405.35,1.0,c1cc2c(c3c1CCCC3)CCCC2,le15
"Decanoic acid, methyl ester",363.15,1.0,CCCCCCCCCC(=O)OC,le15
Undecanoic acid,401.35,1.0,CCCCCCCCCCC(=O)O,le15
"Nonanoic acid, ethyl ester",367.55,1.0,CCCCCCCCC(=O)OCC,le15
octyl propanoate,365.15,1.0,CCCCCCCCOC(=O)CC,le15
"Hexanoic acid, pentyl ester",361.05,1.0,CCCCCOC(=O)CCCCC,le15
"Octanoic acid, propyl ester",361.05,1.0,CCCCCCCC(=O)OCCC,le15
hexyl pentanoate,361.05,1.0,CCCCCCOC(=O)CCCC,le15
"Hexanoic acid, 3-methylbutyl ester",358.15,1.0,CCCCCC(=O)OCCC(C)C,le15
"Propanoic acid, 2,2-dimethyl-, hexyl ester",349.85,1.0,CCCCCCOC(=O)C(C)(C)C,le15
decyl formate,373.05,1.0,CCCCCCCCCCOC=O,le15
butyl heptanoate,361.05,1.0,CCCCCCC(=O)OCCCC,le15
heptyl butanoate,363.75,1.0,CCCCCCCOC(=O)CCC,le15
2-methylpropyl heptanoate,356.04999999999984,1.0,CCCCCCC(=O)OCC(C)C,le15
"Propane, 1,2-epoxy-3-((2-ethylhexyl)oxy)-",369.85,1.0,CCCCC(CC)COCC1CO1,le15
"4-Nonanol, 2,6,8-trimethyl-",367.45,1.0,CC(C)CC(C)CC(O)CC(C)C,le15
dodecan-2-ol,370.95,1.0,CCCCCCCCCCC(C)O,le15
1dodecanol,400.0,1.0,CCCCCCCCCCCCO,le15
"1,3-Propanediamine, N,N-dibutyl-",376.15,1.0,CCCCN(CCCC)CCCN,le15
"Disiloxane, 1,3-diethenyl-1,1,3,3-tetramethyl-",297.15,1.0,C=C[Si](C)(C)O[Si](C)(C)C=C,le15
"Acetic acid, (4-chlorophenoxy)-",417.55,1.0,O=C(O)COc1ccc(Cl)cc1,le15
"4-(Chloromethyl)-1,2-dimethoxybenzene",371.75,1.0,COc1ccc(CCl)cc1OC,le15
"Thiourea, (3-chlorophenyl)- (9CI)",406.35,1.0,NC(=S)Nc1cccc(Cl)c1,le15
"Urea, 1-(o-chlorophenyl)-2-thio-",404.25,1.0,NC(=S)Nc1ccccc1Cl,le15
2-carbonochloridoyloxyethyl carbonochloridate,367.05,1.0,O=C(Cl)OCCOC(=O)Cl,le15
1-bromo-4-methoxybenzene,369.798,1.0,COc1ccc(Br)cc1,le15
4-Bromobenzyl alcohol,388.85,1.0,OCc1ccc(Br)cc1,le15
1-bromo-3-methoxybenzene,366.45,1.0,COc1cccc(Br)c1,le15
1-bromo-2-methoxybenzene,369.15,1.0,COc1ccccc1Br,le15
"p-Cresol, 2-bromo-",356.04999999999984,1.0,Cc1ccc(O)c(Br)c1,le15
"3H-1,2-Dithiole-3-one, 4,5-dichloro-",370.95,1.0,O=c1ssc(Cl)c1Cl,le15
"Ethane, 1,2-bis(2-chloroethoxy)-",394.15,1.0,ClCCOCCOCCCl,le15
"1,1-dichloro-2,2-diethoxyethane",333.15,1.0,CCOC(OCC)C(Cl)Cl,le15
"Isocyanic acid, (m-trifluoromethylphenyl) ester",331.15,1.0,O=C=Nc1cccc(C(F)(F)F)c1,le15
4-(trifluoromethoxy)benzonitrile,355.15,1.0,N#Cc1ccc(OC(F)(F)F)cc1,le15
"Isocyanic acid, (alpha,alpha,alpha-trifluoro-o-tolyl) ester",342.15,1.0,O=C=Nc1ccccc1C(F)(F)F,le15
2-(Hydroxymethyl)-5-nitro-1H-imidazole-1-ethanol,514.3499999999998,1.0,O=[N+]([O-])c1cnc(CO)n1CCO,le15
"Acetamide, N-(5-nitro-2-thiazolyl)-",410.65,1.0,CC(=O)Nc1ncc([N+](=O)[O-])s1,le15
"Naphthalene, 2-methyl-1-nitro-",423.55,1.0,Cc1ccc2ccccc2c1[N+](=O)[O-],le15
"1H-Pyrrole-2,5-dione, 1-(4-methylphenyl)- (9CI)",427.35,1.0,Cc1ccc(N2C(=O)C=CC2=O)cc1,le15
N-Hydroxy-N-formyl-2-aminonaphthalene,456.65,1.0,O=CN(O)c1ccc2ccccc2c1,le15
"1H-Pyrrole-2,5-dione, 1-(2-methylphenyl)- (9CI)",412.45,1.0,Cc1ccccc1N1C(=O)C=CC1=O,le15
"6-Phenyl-1,3,5-triazine-2,4-diyldiamine",558.95,1.0,Nc1nc(N)nc(-c2ccccc2)n1,le15
"(1,1'-Biphenyl)-4-amine, 4'-fluoro- (9CI)",430.05,1.0,Nc1ccc(-c2ccc(F)cc2)cc1,le15
"Phenol, 2-amino-4-(methylsulfonyl)-",490.75,1.0,CS(=O)(=O)c1ccc(O)c(N)c1,le15
"Cyclohexylamine, N-benzylidene- (6CI,7CI,8CI)",397.61300000000006,1.0,C(=NC1CCCCC1)c1ccccc1,le15
"Ethanol, 2,2'-(cyclohexylimino)bis-",449.35,1.0,OCCN(CCO)C1CCCCC1,le15
"1H-Azepine-1-carbothioic acid, hexahydro-, S-ethyl ester",395.75,1.0,CCSC(=O)N1CCCCCC1,le15
"1-Propanamine, 3-((2-ethylhexyl)oxy)-",375.95,1.0,CCCCC(CC)COCCCN,le15
"1,3-Propanediamine, N'-(3-(dimethylamino)propyl)-N,N-dimethyl-",371.45,1.0,CN(C)CCCNCCCN(C)C,le15
bromomethyl-chloro-dimethylsilane,314.25,1.0,C[Si](C)(Cl)CBr,le15
"Phenol, 4-chloro-5-methyl-2-nitro-",394.25,1.0,Cc1cc(O)c([N+](=O)[O-])cc1Cl,le15
"1,3,5-Triazine-2,4-diamine, 6-chloro-N-(1-methylethyl)-",462.55,1.0,CC(C)Nc1nc(N)nc(Cl)n1,le15
"Ethane, 1,2-dibromo-",285.75,1.0,BrCCBr,le15
"Isocyanic acid, 3,4-dichlorophenyl ester",383.15,1.0,O=C=Nc1ccc(Cl)c(Cl)c1,le15
"3,5-Dichloro-4-hydroxybenzonitrile",382.15,1.0,N#Cc1cc(Cl)c(O)c(Cl)c1,le15
"2-Naphthalenecarboxylic acid, 3-hydroxy-",463.55,1.0,O=C(O)c1cc2ccccc2cc1O,le15
"Isocyanic acid, m-phenylenedimethylene ester",392.25,1.0,O=C=NCc1cccc(CN=C=O)c1,le15
"Isocyanic acid, p-xylylene ester",393.05,1.0,O=C=NCc1ccc(CN=C=O)cc1,le15
"2,4-Imidazolidinedione, 1,3-bis(hydroxymethyl)-5,5-dimethyl-",410.65,1.0,CC1(C)C(=O)N(CO)C(=O)N1CO,le15
"1(3H)-Isobenzofuranone, 3-butylidene-",386.15,1.0,CCCC=C1OC(=O)c2ccccc21,le15
"2-Propenoic acid, 3-phenyl-, 2-propenyl ester",436.65,1.0,C=CCOC(=O)C=Cc1ccccc1,le15
"3H-Pyrazol-3-one, 1,2-dihydro-1,5-dimethyl-2-phenyl-",387.95,1.0,Cc1cc(=O)n(-c2ccccc2)n1C,le15
"3H-Pyrazol-3-one, 2,4-dihydro-5-methyl-2-(4-methylphenyl)-",447.75,1.0,CC1=NN(c2ccc(C)cc2)C(=O)C1,le15
Nonanedioic acid,465.25,1.0,O=C(O)CCCCCCCC(=O)O,le15
diethyl pentanedioate,369.25,1.0,CCOC(=O)CCCC(=O)OCC,le15
"diethyl 2,2-dimethylpropanedioate",344.25,1.0,CCOC(=O)C(C)(C)C(=O)OCC,le15
"Malonic acid, ethyl-, diethyl ester (8CI)",361.15,1.0,CCOC(=O)C(CC)C(=O)OCC,le15
diethyl 2-methylbutanedioate,370.45,1.0,CCOC(=O)CC(C)C(=O)OCC,le15
DiethylGlutarate,369.0,1.0,CCOC(=O)CCCC(=O)OCC,le15
phenyl(thiophen-2-yl)methanone,412.85,1.0,O=C(c1ccccc1)c1cccs1,le15
"Propanenitrile, 3-(ethyl(3-methylphenyl)amino)-",418.25,1.0,CCN(CCC#N)c1cccc(C)c1,le15
"Propanenitrile, 3-(trichlorosilyl)-",358.35,1.0,N#CCC[Si](Cl)(Cl)Cl,le15
"Phenol, 2-amino-6-chloro-4-nitro-",443.95,1.0,Nc1cc([N+](=O)[O-])cc(Cl)c1O,le15
"Propanedinitrile, ((2-chlorophenyl)methylene)-",421.15,1.0,N#CC(C#N)=Cc1ccccc1Cl,le15
"Phosphorochloridothioic acid, O,O-diethyl ester",348.95,1.0,CCOP(=S)(Cl)OCC,le15
"1,1'-Biphenyl, 2-chloro- (9CI)",389.05,1.0,Clc1ccccc1-c1ccccc1,le15
"1,1'-Biphenyl, 3-chloro-",402.65,1.0,Clc1cccc(-c2ccccc2)c1,le15
"1,1'-Biphenyl, 4-chloro- (9CI)",400.15,1.0,Clc1ccc(-c2ccccc2)cc1,le15
"1,4-Benzenediol, 2-bromo-",395.25,1.0,Oc1ccc(O)c(Br)c1,le15
Chloro(phenyl)acetyl chloride,377.55,1.0,O=C(Cl)C(Cl)c1ccccc1,le15
"Acetophenone, 2',4'-dichloro- (8CI)",374.05,1.0,CC(=O)c1ccc(Cl)cc1Cl,le15
"Thiophene, 3,4-dichlorotetrahydro-, 1,1-dioxide (8CI)(9CI)",469.15,1.0,O=S1(=O)CC(Cl)C(Cl)C1,le15
4-bromobenzenethiol,366.85,1.0,Sc1ccc(Br)cc1,le15
"2-Naphthalenol, 1-nitro- (9CI)",417.45,1.0,O=[N+]([O-])c1c(O)ccc2ccccc12,le15
"Quinaldic acid, 4-hydroxy- (8CI)",443.65,1.0,O=C(O)c1cc(O)c2ccccc2n1,le15
"Glutamic acid, N-acetyl- (6CI,7CI)",526.8499999999998,1.0,CC(=O)N[C@@H](CCC(=O)O)C(=O)O,le15
3-(Indol-3-yl)propionic acid,284.85,1.0,O=C(O)CCc1c[nH]c2ccccc12,le15
"Benzeneacetic acid, alpha-cyano-, ethyl ester",410.65,1.0,CCOC(=O)C(C#N)c1ccccc1,le15
"1,3,5-Triazin-2(1H)-one, tetrahydro-1,3-bis(hydroxymethyl)-5-ethyl-",444.55,1.0,CCN1CN(CO)C(=O)N(CO)C1,le15
phenyl(piperidin-1-yl)methanone,418.15,1.0,O=C(c1ccccc1)N1CCCCC1,le15
"Acetamide, N,N-dibutyl-2-fluoro-",391.45,1.0,CCCCN(CCCC)C(=O)CF,le15
"L-Alanine, 3-((3-methyl-2-butenyl)thio)-",425.75,1.0,CC(C)=CCSC[C@H](N)C(=O)O,le15
"2,2-diethoxy-N,N-diethylethanamine",338.15,1.0,CCOC(CN(CC)CC)OCC,le15
"1,2-Ethanediamine, N-(2-aminoethyl)-N'-(2-((2-aminoethyl)amino)ethyl)-",458.15,1.0,NCCNCCNCCNCCN,le15
"Benzamide, 2,6-dichloro-",388.15,1.0,NC(=O)c1c(Cl)cccc1Cl,le15
3-(trifluoromethyl)benzoic acid,376.05,1.0,O=C(O)c1cccc(C(F)(F)F)c1,le15
"1,4-Naphthalenedione, 5,8-dihydroxy- (9CI)",542.3499999999998,1.0,O=C1C=CC(=O)c2c(O)ccc(O)c21,le15
"2H-1-Benzopyran-3-carboxylic acid, 2-oxo-",435.85,1.0,O=C(O)c1cc2ccccc2oc1=O,le15
"Quinoline, 4-nitro-, 1-oxide",461.35,1.0,O=[N+]([O-])c1cc[n+]([O-])c2ccccc12,le15
"8-Quinolinol, 5-nitro-",480.35,1.0,O=[N+]([O-])c1ccc(O)c2ncccc12,le15
"3-Buten-2-one, 4-(3,4-(methylenedioxy)phenyl)- (6CI,7CI,8CI)",420.75,1.0,CC(=O)C=Cc1ccc2c(c1)OCO2,le15
Ethyl2-benzofurancarboxylate,392.65,1.0,CCOC(=O)c1cc2ccccc2o1,le15
2-(2-acetyloxyethoxy)ethyl acetate,383.15,1.0,CC(=O)OCCOCCOC(C)=O,le15
"1,4-Phthalazinedione, 2,3-dihydro-, dihydrazone (9CI)",619.05,1.0,NN=c1[nH][nH]c(=NN)c2ccccc12,le15
"1-Penten-3-one, 1-(4-methoxyphenyl)- (9CI)",424.65,1.0,CCC(=O)C=Cc1ccc(OC)cc1,le15
"2-Propenoic acid, 2-methyl-, 2-phenylethyl ester",430.65,1.0,C=C(C)C(=O)OCCc1ccccc1,le15
"2-Buten-1-ol, 3-methyl-, benzoate",398.25,1.0,CC(C)=CCOC(=O)c1ccccc1,le15
"2-Propenoic acid, 3-phenyl-, propyl ester",429.25,1.0,CCCOC(=O)C=Cc1ccccc1,le15
Dipropylene glycol monomethylether acetate,364.65,1.0,COC(C)COC(C)COC(C)=O,le15
"3-Pyrazolidinone, 4,4-dimethyl-1-phenyl-",468.15,1.0,CC1(C)CN(c2ccccc2)NC1=O,le15
"Benzenepropanal, alpha-methyl-4-(1-methylethyl)-",389.85,1.0,CC(C=O)Cc1ccc(C(C)C)cc1,le15
"Phenol, 2-cyclohexyl-4-methyl-",389.85,1.0,Cc1ccc(O)c(C2CCCCC2)c1,le15
"1-Heptanone, 1-phenyl-",384.35,1.0,CCCCCCC(=O)c1ccccc1,le15
"Ethanol, 2-(2-(hexyloxy)ethoxy)-",413.15,1.0,CCCCCCOCCOCCO,le15
1-(dipropoxymethoxy)propane,345.15,1.0,CCCOC(OCCC)OCCC,le15
2-[di(propan-2-yloxy)methoxy]propane,315.15,1.0,CC(C)OC(OC(C)C)OC(C)C,le15
"1,4-ditert-butylbenzene",370.05,1.0,CC(C)(C)c1ccc(C(C)(C)C)cc1,le15
"Ethanol, 2-(octylthio)-",350.15,1.0,CCCCCCCCSCCO,le15
1-chloro-2-iodoethane,310.25,1.0,ClCCI,le15
naphthalene-2-carbonyl chloride,414.35,1.0,O=C(Cl)c1ccc2ccccc2c1,le15
decanoyl chloride,379.25,1.0,CCCCCCCCCC(=O)Cl,le15
"Benzoic acid, 2,6-dichloro-",407.65,1.0,O=C(O)c1c(Cl)cccc1Cl,le15
"Benzoic acid, 2,3-dichloro-",412.55,1.0,O=C(O)c1cccc(Cl)c1Cl,le15
"Benzoic acid, 2,5-dichloro-",408.95,1.0,O=C(O)c1cc(Cl)ccc1Cl,le15
"Benzoic acid, 2,4-dichloro-",414.15,1.0,O=C(O)c1ccc(Cl)cc1Cl,le15
"Benzoic acid, 3,4-dichloro-",419.15,1.0,O=C(O)c1ccc(Cl)c(Cl)c1,le15
"Salicylaldehyde, 3,5-dichloro- (8CI)",370.05,1.0,O=Cc1cc(Cl)cc(Cl)c1O,le15
"Benzoic acid, 3,5-dichloro-",413.85,1.0,O=C(O)c1cc(Cl)cc(Cl)c1,le15
"2,4-dichloro-1-ethoxybenzene",354.04999999999984,1.0,CCOc1ccc(Cl)cc1Cl,le15
"Toluene, alpha,alpha,alpha-trifluoro-m-nitro- (8CI)",360.15,1.0,O=[N+]([O-])c1cccc(C(F)(F)F)c1,le15
"2-Nitro-alpha,alpha,alpha-trifluorotoluene",368.75,1.0,O=[N+]([O-])c1ccccc1C(F)(F)F,le15
2-bromoethylcyclohexane,354.75,1.0,BrCCC1CCCCC1,le15
"Glycine, N,N-bis(carboxymethyl)-",528.25,1.0,O=C(O)CN(CC(=O)O)CC(=O)O,le15
"1H-Indole-3-acetic acid, 5-hydroxy-",527.55,1.0,O=C(O)Cc1c[nH]c2ccc(O)cc12,le15
"Butanamide, N-(2-methylphenyl)-3-oxo-",416.15,1.0,CC(=O)CC(=O)Nc1ccccc1C,le15
"6-methyl-7,8-dihydro-5H-[1,3]dioxolo[4,5-g]isoquinoline",396.15,1.0,CN1CCc2cc3c(cc2C1)OCO3,le15
"2-Propenamide, N-(2-hydroxyethyl)-3-phenyl-",492.65,1.0,O=C(C=Cc1ccccc1)NCCO,le15
"Pyridine, 3-(1-nitroso-2-piperidinyl)-, (S)- (9CI)",456.95,1.0,O=NN1CCCC[C@H]1c1cccnc1,le15
"Imidodicarbonimidic diamide, N-(2-methylphenyl)-",475.75,1.0,Cc1ccccc1NC(=N)NC(=N)N,le15
N-butyl-N-phenylacetamide,414.15,1.0,CCCCN(C(C)=O)c1ccccc1,le15
"Benzamide, N,N-diethyl-3-methyl-",428.15,1.0,CCN(CC)C(=O)c1cccc(C)c1,le15
"Benzeneacetamide, N,N-diethyl- (9CI)",407.45,1.0,CCN(CC)C(=O)Cc1ccccc1,le15
"Benzamide, N,N-diethyl-2-methyl-",412.95,1.0,CCN(CC)C(=O)c1ccccc1C,le15
"Benzamide, N,N-diethyl-4-methyl-",413.95,1.0,CCN(CC)C(=O)c1ccc(C)cc1,le15
"2-Propanol, 1,1',1''-nitrilotris-",440.15,1.0,CC(O)CN(CC(C)O)CC(C)O,le15
2-amino-4-butylsulfanylbutanoic acid,429.95,1.0,CCCCSCCC(N)C(=O)O,le15
"1-Propanamine, 3-(diethoxymethylsilyl)-",348.75,1.0,CCOC(OCC)[SiH2]CCCN,le15
"ethyl 2,2,2-trichloroacetate",338.15,1.0,CCOC(=O)C(Cl)(Cl)Cl,le15