,compound,flashpoint,pure substance,smiles,source
9875,"Propanedioic acid, butyl-, diethyl ester",366.15,1,CCCCC(C(=O)OCC)C(=O)OCC,le15
9876,dibutyl propanedioate,390.55,1,CCCCOC(=O)CC(=O)OCCCC,le15
9877,"Heptanedioic acid, diethyl ester",390.55,1,CCOC(=O)CCCCCC(=O)OCC,le15
9878,"1,1,2,3,3-pentachloropropane",353.05,1,ClC(Cl)C(Cl)C(Cl)Cl,le15
9879,"Quinazoline, 4-((2-(dimethylamino)ethyl)amino)-",452.85,1,CN(C)CCNc1ncnc2ccccc12,le15
9880,thianthrene,443.95,1,c1ccc2c(c1)Sc1ccccc1S2,le15
9881,"Octanal, 2-(phenylmethylene)-",413.65,1,CCCCCCC(C=O)=Cc1ccccc1,le15
9882,tridecane-1-thiol,385.55,1,CCCCCCCCCCCCCS,le15
9883,"Acetic acid, (4-chloro-2-hydroxymethylphenoxy)-",463.65,1,O=C(O)COc1ccc(Cl)cc1CO,le15
9884,3-Chlorobenzophenone,451.45,1,O=C(c1ccccc1)c1cccc(Cl)c1,le15
9885,"Benzophenone, 4-chloro- (8CI)",449.25,1,O=C(c1ccccc1)c1ccc(Cl)cc1,le15
9886,"Urea, 3-(chloro-2-norbornyl)-1,1-dimethyl-",468.05,1,CN(C)C(=O)NC1CC2CCC1(Cl)C2,le15
9887,"Urea, N'-(chlorobicyclo(2.2.1)hept-2-yl)-N,N-dimethyl-",468.05,1,CN(C)C(=O)NC1CC2CCC1(Cl)C2,le15
9888,"2,3,5,6-tetrachloropyridine",461.15,1,Clc1cc(Cl)c(Cl)nc1Cl,le15
9889,"5,6-dichloro-2-benzofuran-1,3-dione",417.95,1,O=C1OC(=O)c2cc(Cl)c(Cl)cc21,le15
9890,"Arsonic acid, (4-aminophenyl)-",546.55,1,Nc1ccc([As](=O)(O)O)cc1,le15
9891,"4-bromo-1,2-dimethoxybenzene",382.15,1,COc1ccc(Br)cc1OC,le15
9892,"Propanedioic acid, (acetylamino)-, diethyl ester",418.35,1,CCOC(=O)C(NC(C)=O)C(=O)OCC,le15
9893,"Acetamide, 2-fluoro-N-methyl-N-1-naphthalenyl- (9CI)",436.65,1,CN(C(=O)CF)c1cccc2ccccc12,le15
9894,Pyren-1-ylamine,519.35,1,Nc1ccc2ccc3cccc4ccc1c2c34,le15
9895,2-Aminopyrene,523.75,1,Nc1cc2ccc3cccc4ccc(c1)c2c34,le15
9896,Fluoranthen-3-ylamine,519.35,1,Nc1ccc2c3c(cccc13)-c1ccccc1-2,le15
9897,8-Aminofluoranthene,523.75,1,Nc1ccc2c(c1)-c1cccc3cccc-2c13,le15
9898,"2,6-Piperidinedione, 3-ethyl-3-phenyl-",434.95,1,CCC1(c2ccccc2)CCC(=O)NC1=O,le15
9899,"Quinoline, 6-ethoxy-1,2-dihydro-2,2,4-trimethyl-",410.95,1,CCOc1ccc2c(c1)C(C)=CC(C)(C)N2,le15
9900,"Propionitrile, 3-(triethoxysilyl)- (8CI)",378.45,1,CCO[Si](CCC#N)(OCC)OCC,le15
9901,"Pyrrolidine, 1-(1-(phenylmethyl)butyl)- (9CI)",396.45,1,CCCC(Cc1ccccc1)N1CCCC1,le15
9902,"Carbamothioic acid, bis(2-methylpropyl)-, S-ethyl ester",396.45,1,CCSC(=O)N(CC(C)C)CC(C)C,le15
9903,"Benzenamine, 2-chloro-4,6-dinitro-",454.55,1,Nc1c(Cl)cc([N+](=O)[O-])cc1[N+](=O)[O-],le15
9904,"Aniline, 4-chloro-2,6-dinitro- (8CI)",444.65,1,Nc1c([N+](=O)[O-])cc(Cl)cc1[N+](=O)[O-],le15
9905,trichloromethanesulfonyl chloride,336.85,1,O=S(=O)(Cl)C(Cl)(Cl)Cl,le15
9906,1-iodo-4-methylbenzene,359.45,1,Cc1ccc(I)cc1,le15
9907,1iodo3methylbenzene,355.0,1,Cc1cccc(I)c1,le15
9908,"Propanamide, N-(3,4-dichlorophenyl)-",450.65,1,CCC(=O)Nc1ccc(Cl)c(Cl)c1,le15
9909,"1,2,4,5-Benzenetetracarboxylic 1,2:4,5-dianhydride (8CI)",456.65,1,O=c1oc(=O)c2cc3c(=O)oc(=O)c3cc12,le15
9910,"Benzenamine, N,N-bis(2-chloroethyl)- (9CI)",410.85,1,ClCCN(CCCl)c1ccccc1,le15
9911,"Phosphoric acid, triallyl ester (8CI)",393.25,1,C=CCOP(=O)(OCC=C)OCC=C,le15
9912,Ethyl .alpha.-acetylcinnamate,385.05,1,CCOC(=O)C(=Cc1ccccc1)C(C)=O,le15
9913,"4,6(1H,5H)-Pyrimidinedione, 5-ethyldihydro-5-phenyl-",501.35,1,CCC1(c2ccccc2)C(=O)NCNC1=O,le15
9914,"1,3-Propanediol, 2-methyl-2-propyl-, dicarbamate",502.85,1,CCCC(C)(COC(N)=O)COC(N)=O,le15
9915,benzenesulfonylbenzene,499.95,1,O=S(=O)(c1ccccc1)c1ccccc1,le15
9916,"Phenol, 4,4'-thiobis-",492.85,1,Oc1ccc(Sc2ccc(O)cc2)cc1,le15
9917,"Phosphonodithioic acid, methyl-, O-methyl S-phenyl ester",403.35,1,COP(C)(=S)Sc1ccccc1,le15
9918,"Butanoic acid, 3-methyl-, 3-phenyl-2-propenyl ester",401.45,1,CC(C)CC(=O)OCC=Cc1ccccc1,le15
9919,trichloro(dichloromethyl)silane,353.05,1,ClC(Cl)[Si](Cl)(Cl)Cl,le15
9920,Diphenyl disulphide,450.95,1,c1ccc(SSc2ccccc2)cc1,le15
9921,"Butane, 1,1'-(oxybis(2,1-ethanediyloxy))bis-",390.35,1,CCCCOCCOCCOCCCC,le15
9922,"Benzhydrol, 4-chloro- (8CI)",439.95,1,OC(c1ccccc1)c1ccc(Cl)cc1,le15
9923,"Phenol, 4-chloro-2-(phenylmethyl)-",432.35,1,Oc1ccc(Cl)cc1Cc1ccccc1,le15
9924,"Methane, dibromonitro-",319.25,1,O=[N+]([O-])C(Br)Br,le15
9925,"1,3-Dichloro-2,4,5,6-tetrafluorobenzene",437.15,1,Fc1c(F)c(Cl)c(F)c(Cl)c1F,le15
9926,"Benzenamine, 4-iodo-",389.45,1,Nc1ccc(I)cc1,le15
9927,"Benzenamine, 2-iodo-",385.45,1,Nc1ccccc1I,le15
9928,"Urea, 1-(3,4-dichlorophenyl)-3-methyl- (6CI,7CI,8CI)",405.55,1,CNC(=O)Nc1ccc(Cl)c(Cl)c1,le15
9929,"Pyrimidine, 4,6-dimethyl-2-(5-nitro-2-furyl)-",388.85,1,Cc1cc(C)nc(-c2ccc([N+](=O)[O-])o2)n1,le15
9930,"beta-Alanine, N-(2,4-dihydroxy-3,3-dimethyl-1-oxobutyl)-, (R)- (9CI)",560.45,1,CC(C)(CO)[C@@H](O)C(=O)NCCC(=O)O,le15
9931,"1-Naphthalenamine, N-phenyl-",463.35,1,c1ccc(Nc2cccc3ccccc23)cc1,le15
9932,"2-Naphthalenamine, N-phenyl-",482.35,1,c1ccc(Nc2ccc3ccccc3c2)cc1,le15
9933,"Carbamic acid, cyclopropyl(phenylmethyl)-, ethyl ester",422.95,1,CCOC(=O)N(Cc1ccccc1)C1CC1,le15
9934,"Benzoic acid, 2-amino-, cyclohexyl ester",465.45,1,Nc1ccccc1C(=O)OC1CCCCC1,le15
9935,"2,2',2''-(Hexahydro-1,3,5-triazine-1,3,5-triyl)triethanol",493.25,1,OCCN1CN(CCO)CN(CCO)C1,le15
9936,2-bromobenzoyl chloride,380.15,1,O=C(Cl)c1ccccc1Br,le15
9937,4-bromobenzoyl chloride,376.15,1,O=C(Cl)c1ccc(Br)cc1,le15
9938,"butyl 2,2,2-trichloroacetate",346.05,1,CCCCOC(=O)C(Cl)(Cl)Cl,le15
9939,"Cyclotrisilazane, 2,2,4,4,6,6-hexamethyl-",332.15,1,C[Si]1(C)N[Si](C)(C)N[Si](C)(C)N1,le15
9940,trichloro(hexyl)silane,353.45,1,CCCCCC[Si](Cl)(Cl)Cl,le15
9941,"Benzenamine, 4-(4-chlorophenoxy)-",438.45,1,Nc1ccc(Oc2ccc(Cl)cc2)cc1,le15
9942,"Phenol, 4-iodo-",385.55,1,Oc1ccc(I)cc1,le15
9943,"Carbanilic acid, 3,4-dichloro-, methyl ester",379.55,1,COC(=O)Nc1ccc(Cl)c(Cl)c1,le15
9944,"Acetamide, 2-(2,4-dichlorophenoxy)-",470.05,1,NC(=O)COc1ccc(Cl)cc1Cl,le15
9945,8-Hydroxy-4-(hydroxyacetyl)-1H-2-benzopyran-1-one,472.05,1,O=C(CO)c1coc(=O)c2c(O)cccc12,le15
9946,"(1,1'-Biphenyl)-4,4'-diamine, 3,3'-difluoro- (9CI)",425.35,1,Nc1ccc(-c2ccc(N)c(F)c2)cc1F,le15
9947,"Pyrimidine, 2-((3,4,4-trifluoro-3-butenyl)thio)-",393.55,1,FC(F)=C(F)CCSc1ncccn1,le15
9948,"Tryptophan, 5-hydroxy-, L-",541.85,1,N[C@@H](Cc1c[nH]c2ccc(O)cc12)C(=O)O,le15
9949,"1,1,1,2,2-pentachloro-2-fluoroethane",313.95,1,FC(Cl)(Cl)C(Cl)(Cl)Cl,le15
9950,"Furan, 2,5-diphenyl-",437.45,1,c1ccc(-c2ccc(-c3ccccc3)o2)cc1,le15
9951,ethyl 3-oxo-5-phenylpentanoate,405.45,1,CCOC(=O)CC(=O)CCc1ccccc1,le15
9952,"Propanoic acid, 2,2-dimethyl-, 2-oxo-2-phenylethyl ester (9CI)",404.65,1,CC(C)(C)C(=O)OCC(=O)c1ccccc1,le15
9953,"Propane, 1,1,3,3-tetraethoxy- (9CI)",315.35,1,CCOC(CC(OCC)OCC)OCC,le15
9954,"4H-1,3-Thiazine-2-amine, N-(2,6-dimethylphenyl)-5,6-dihydro- (9CI)",429.05,1,Cc1cccc(C)c1NC1=NCCCS1,le15
9955,"Phenol, 2,6-bis(1,1-dimethylethyl)-4-methyl-",391.55,1,Cc1cc(C(C)(C)C)c(O)c(C(C)(C)C)c1,le15
9956,"2,4-ditert-butyl-6-methylphenol",396.15,1,Cc1cc(C(C)(C)C)cc(C(C)(C)C)c1O,le15
9957,"1,4-Benzenediamine, N,N'-bis(1-methylpropyl)-",465.75,1,CCC(C)Nc1ccc(NC(C)CC)cc1,le15
9958,"Benzimidazole, 4-chloro-2-(trifluoromethyl)-",409.05,1,FC(F)(F)c1nc2cccc(Cl)c2[nH]1,le15
9959,"Benzimidazole, 5-chloro-2-(trifluoromethyl)-",409.05,1,FC(F)(F)c1nc2ccc(Cl)cc2[nH]1,le15
9960,bromo(iodo)methane,306.95,1,BrCI,le15
9961,"Phosphoric acid, 2,2-dichloroethenyl dimethyl ester",287.85,1,COP(=O)(OC)OC=C(Cl)Cl,le15
9962,"Acetic acid, (2,4-dichlorophenoxy)-",435.95,1,O=C(O)COc1ccc(Cl)cc1Cl,le15
9963,"Benzoic acid, 3,6-dichloro-2-methoxy-",424.15,1,COc1c(Cl)ccc(Cl)c1C(=O)O,le15
9964,"Thiourea, (2,5-dichlorophenyl)- (9CI)",418.95,1,NC(=S)Nc1cc(Cl)ccc1Cl,le15
9965,"Decane, 1-bromo-",367.594,1,CCCCCCCCCCBr,le15
9966,"2,5-diphenyl-1,3-oxazole",435.45,1,c1ccc(-c2cnc(-c3ccccc3)o2)cc1,le15
9967,"Carbamic acid, methyl-, 2,3-dihydro-2,2-dimethyl-7-benzofuranyl ester",416.45,1,CNC(=O)Oc1cccc2c1OC(C)(C)C2,le15
9968,"2-Oxazolidinone, 5-((3,5-dimethylphenoxy)methyl)-",501.35,1,Cc1cc(C)cc(OCC2CNC(=O)O2)c1,le15
9969,"Butanamide, N-(4-ethoxyphenyl)-3-oxo-",479.95,1,CCOc1ccc(NC(=O)CC(C)=O)cc1,le15
9970,"Carbamic acid, dimethyl-, benzo(b)thien-4-yl ester",434.55,1,CN(C)C(=O)Oc1cccc2sccc12,le15
9971,"Benzamide, N-(1-methylethyl)-4-((2-methylhydrazino)methyl)- (9CI)",422.05,1,CNNCc1ccc(C(=O)NC(C)C)cc1,le15
9972,"Propylamine, 3-(triethoxysilyl)- (8CI)",377.55,1,CCO[Si](CCCN)(OCC)OCC,le15
9973,"o-Cresol, 4-bromo-6-chloro-",380.55,1,Cc1cc(Br)cc(Cl)c1O,le15
9974,"1,1,1-trichloro-2,2-diethoxyethane",275.95,1,CCOC(OCC)C(Cl)(Cl)Cl,le15
9975,"Benzenesulfonyl chloride, p-nitro- (8CI)",438.45,1,O=[N+]([O-])c1ccc(S(=O)(=O)Cl)cc1,le15
9976,"3(2H)-Pyridazinone, 5-amino-4-chloro-2-phenyl-",415.75,1,Nc1cnn(-c2ccccc2)c(=O)c1Cl,le15
9977,"Thiophene, 2,3,4,5-tetrachloro-",386.15,1,Clc1sc(Cl)c(Cl)c1Cl,le15
9978,1-fluoro-2-iodobenzene,344.15,1,Fc1ccccc1I,le15
9979,1-fluoro-4-iodobenzene,341.15,1,Fc1ccc(I)cc1,le15
9980,"3,3,4,4,5,5-hexafluorooxane-2,6-dione",276.45,1,O=C1OC(=O)C(F)(F)C(F)(F)C1(F)F,le15
9981,"1,3,5-Triazine, hexahydro-1,3,5-trinitro-",678.75,1,O=[N+]([O-])N1CN([N+](=O)[O-])CN([N+](=O)[O-])C1,le15
9982,"2-Furanacrylic acid, alpha-cyano-5-nitro-, methyl ester",451.75,1,COC(=O)C(C#N)=Cc1ccc([N+](=O)[O-])o1,le15
9983,"1H-Indene-1,3(2H)-dione, 2-phenyl-",481.15,1,O=C1c2ccccc2C(=O)C1c1ccccc1,le15
9984,"Anthraquinone, 2-methyl- (8CI)",482.15,1,Cc1ccc2c(c1)C(=O)c1ccccc1C2=O,le15
9985,"1,2-Benzenedicarboxylic acid, diethyl ester",428.95,1,CCOC(=O)c1ccccc1C(=O)OCC,le15
9986,"Oxirane, 2,2'-(1,3-phenylenebis(oxymethylene))bis-",386.15,1,c1cc(OCC2CO2)cc(OCC2CO2)c1,le15
9987,"4,5-dimethoxy-6-prop-2-enyl-1,3-benzodioxole",378.85,1,C=CCc1cc2c(c(OC)c1OC)OCO2,le15
9988,"4,7-dimethoxy-5-prop-2-enyl-1,3-benzodioxole",390.35,1,C=CCc1cc(OC)c2c(c1OC)OCO2,le15
9989,"diethyl benzene-1,3-dicarboxylate",430.85,1,CCOC(=O)c1cccc(C(=O)OCC)c1,le15
9990,"Hexanedioic acid, di-2-propynyl ester (9CI)",419.75,1,C#CCOC(=O)CCCCC(=O)OCC#C,le15
9991,Diethylphthalate,433.0,1,CCOC(=O)c1ccccc1C(=O)OCC,le15
9992,1-(p-Toluenesulphonyl)imidazole,474.35,1,Cc1ccc(S(=O)(=O)n2ccnc2)cc1,le15
9993,Bis(2-(2-methoxyethoxy)ethyl) ether,413.75,1,COCCOCCOCCOCCOC,le15
9994,"Urea, N,N-dimethyl-N'-(octahydro-4,7-methano-1H-inden-5-yl)-",466.35,1,CN(C)C(=O)NC1CC2CC1C1CCCC21,le15
9995,"1,2-Ethanediamine, N-(3-(trimethoxysilyl)propyl)-",381.25,1,CO[Si](CCCNCCN)(OC)OC,le15
9996,"2,6,10-Dodecatrien-1-ol, 3,7,11-trimethyl-",385.65,1,CC(C)=CCCC(C)=CCCC(C)=CCO,le15
9997,hexadec-1-yne,401.12699999999995,1,C#CCCCCCCCCCCCCCC,le15
9998,(3-cyclohexyl-2-methylpropyl)cyclohexane,399.85,1,CC(CC1CCCCC1)CC1CCCCC1,le15
9999,4-cyclohexylbutylcyclohexane,402.05,1,C1CCC(CCCCC2CCCCC2)CC1,le15
10000,1-cyclohexylbutylcyclohexane,399.25,1,CCCC(C1CCCCC1)C1CCCCC1,le15
10001,1-bromonaphthalen-2-ol,416.65,1,Oc1ccc2ccccc2c1Br,le15
10002,"Biphenyl, 4,4'-dichloro- (8CI)",418.35,1,Clc1ccc(-c2ccc(Cl)cc2)cc1,le15
10003,"1,1'-Biphenyl, 3,3'-dichloro-",423.65,1,Clc1cccc(-c2cccc(Cl)c2)c1,le15
10004,"Butyric acid, 4,4,4-trinitro- (8CI)",429.55,1,O=C(O)CCC([N+](=O)[O-])([N+](=O)[O-])[N+](=O)[O-],le15
10005,2-Bromooctanoic acid,397.15,1,CCCCCCC(Br)C(=O)O,le15
10006,"Hexanoic acid, 2-bromo-, ethyl ester",364.55,1,CCCCC(Br)C(=O)OCC,le15
10007,"9,10-Anthracenedione, 2-amino-",556.15,1,Nc1ccc2c(c1)C(=O)c1ccccc1C2=O,le15
10008,"Phenanthrene, 9-nitro-",480.65,1,O=[N+]([O-])c1cc2ccccc2c2ccccc12,le15
10009,"Anthracene, 2-nitro-",487.85,1,O=[N+]([O-])c1ccc2cc3ccccc3cc2c1,le15
10010,"9,10-Anthracenedione, 1-amino-",508.15,1,Nc1cccc2c1C(=O)c1ccccc1C2=O,le15
10011,"4H-3,1-Benzoxazin-4-one, 2-phenyl-",436.15,1,O=c1oc(-c2ccccc2)nc2ccccc12,le15
10012,"Acetamide, N-9H-fluoren-2-yl-",550.35,1,CC(=O)Nc1ccc2c(c1)Cc1ccccc1-2,le15
10013,"Benzamide, N,N-diethyl-4-hydroxy-3-methoxy-",469.75,1,CCN(CC)C(=O)c1ccc(O)c(OC)c1,le15
10014,"Arsine oxide, dichloro(2-chlorovinyl)-",384.55,1,O=[As](Cl)(Cl)C=CCl,le15
10015,"Benzothiazole, 2-(butylthio)-",432.75,1,CCCCSc1nc2ccccc2s1,le15
10016,"4-bromo-3-chloro-3,4,4-trifluorobut-1-ene",294.25,1,C=CC(F)(Cl)C(F)(F)Br,le15
10017,"Ethanone, 2-chloro-1-(2,4-dichlorophenyl)-",385.15,1,O=C(CCl)c1ccc(Cl)cc1Cl,le15
10018,"Carbamic acid, (3-chlorophenyl)-, 1-methyl-2-propynyl ester (9CI)",390.25,1,C#CC(C)OC(=O)Nc1cccc(Cl)c1,le15
10019,"Carbamodithioic acid, diethyl-, 2-chloro-2-propenyl ester (9CI)",386.75,1,C=C(Cl)CSC(=S)N(CC)CC,le15
10020,"1,2-dibromo-1,1-difluoroethane",282.65,1,FC(F)(Br)CBr,le15
10021,"2-Butenoic acid, 3-((dimethoxyphosphinyl)oxy)-, methyl ester, (E)-",388.25,1,COC(=O)/C=C(\C)OP(=O)(OC)OC,le15
10022,"Glycine, N-(4-nitrobenzoyl)-",548.15,1,O=C(O)CNC(=O)c1ccc([N+](=O)[O-])cc1,le15
10023,"9,10-Anthracenedione, 1-hydroxy-",491.95,1,O=C1c2ccccc2C(=O)c2c(O)cccc21,le15
10024,"4-[cyclopropyl(hydroxy)methylidene]-3,5-dioxocyclohexane-1-carboxylic",523.85,1,O=C1CC(C(=O)O)CC(=O)C1=C(O)C1CC1,le15
10025,"Benzenebutanoic acid, alpha,2-diamino-3-hydroxy-gamma-oxo- (9CI)",541.05,1,Nc1c(O)cccc1C(=O)CC(N)C(=O)O,le15
10026,tripropan-2-yl phosphate,375.55,1,CC(C)OP(=O)(OC(C)C)OC(C)C,le15
10027,"Chalcone, 4'-hydroxy- (8CI)",452.25,1,O=C(C=Cc1ccccc1)c1ccc(O)cc1,le15
10028,"Phosphoric acid, tripropyl ester",394.45,1,CCCOP(=O)(OCCC)OCCC,le15
10029,"1H-Benzimidazol-5-amine, 2-(4-aminophenyl)-",590.75,1,Nc1ccc(-c2nc3cc(N)ccc3[nH]2)cc1,le15
10030,"2-Propanol, 1-butoxy-3-phenoxy-",436.25,1,CCCCOCC(O)COc1ccccc1,le15
10031,decylcyclohexane,400.65,1,CCCCCCCCCCC1CCCCC1,le15
10032,1hexadecene,405.0,1,C=CCCCCCCCCCCCCCC,le15
10033,"Toluene, o-bromo-alpha,alpha,alpha-trifluoro-",324.85,1,FC(F)(F)c1ccccc1Br,le15
10034,1-bromo-3-(trifluoromethyl)benzene,316.45,1,FC(F)(F)c1cccc(Br)c1,le15
10035,1-bromo-4-(trifluoromethyl)benzene,322.039,1,FC(F)(F)c1ccc(Br)cc1,le15
10036,"Pyrimidine, 4,6-dichloro-2-phenyl-",392.05,1,Clc1cc(Cl)nc(-c2ccccc2)n1,le15
10037,"Naphthalene, 1,4-bis(chloromethyl)-",460.35,1,ClCc1ccc(CCl)c2ccccc12,le15
10038,"2-Oxazolidinone, 3-(((5-nitro-2-furanyl)methylene)amino)-",440.65,1,O=C1OCCN1N=Cc1ccc([N+](=O)[O-])o1,le15
10039,"Benzamide, 2-methyl-3,5-dinitro-",407.15,1,Cc1c(C(N)=O)cc([N+](=O)[O-])cc1[N+](=O)[O-],le15
10040,"9H-Fluoren-9-one, 2-nitro-",488.25,1,O=C1c2ccccc2-c2ccc([N+](=O)[O-])cc21,le15
10041,1-Nitrophenazine,490.65,1,O=[N+]([O-])c1cccc2nc3ccccc3nc12,le15
10042,"Tyrosine, 3-carboxy-, DL-",520.15,1,NC(Cc1ccc(O)c(C(=O)O)c1)C(=O)O,le15
10043,"Benzene, 1-nitro-4-(2-phenylethenyl)- (9CI)",446.25,1,O=[N+]([O-])c1ccc(C=Cc2ccccc2)cc1,le15
10044,"Benzoic acid, 2-((phenylmethylene)amino)- (9CI)",493.65,1,O=C(O)c1ccccc1N=Cc1ccccc1,le15
10045,"Phenanthrene, 9,10-dihydro-2-nitro-",459.05,1,O=[N+]([O-])c1ccc2c(c1)CCc1ccccc1-2,le15
10046,"1,2-Propanediol, 3-(2-methylphenoxy)-, 1-carbamate (9CI)",505.95,1,Cc1ccccc1OCC(O)COC(N)=O,le15
10047,"1H-Purin-6-amine, N-(phenylmethyl)-",547.15,1,c1ccc(CNc2[nH]cnc3ncnc2-3)cc1,le15
10048,"9H-Purin-6-amine, 9-(phenylmethyl)- (9CI)",522.15,1,Nc1ncnc2c1ncn2Cc1ccccc1,le15
10049,"Benzenamine, 4-(2-(4-methoxyphenyl)ethenyl)-",488.55,1,COc1ccc(C=Cc2ccc(N)cc2)cc1,le15
10050,"Benzenamine, N,N-dimethyl-4-(phenylazo)-",451.35,1,CN(C)c1ccc(N=Nc2ccccc2)cc1,le15
10051,"1-Triazene, 1-(1,1'-biphenyl)-4-yl-3,3-dimethyl- (9CI)",433.65,1,CN(C)N=Nc1ccc(-c2ccccc2)cc1,le15
10052,"1,3,5-Triazine-2,4-diamine, 6-methoxy-N,N'-bis(1-methylethyl)-",444.05,1,COc1nc(NC(C)C)nc(NC(C)C)n1,le15
10053,"Phenol, 3,5-dimethyl-4-(methylthio)-, methylcarbamate (9CI)",414.85,1,CNC(=O)Oc1cc(C)c(SC)c(C)c1,le15
10054,"Benzenemethanamine, alpha-methyl-N-(1-phenylethyl)- (9CI)",410.35,1,CC(NC(C)c1ccccc1)c1ccccc1,le15
10055,"Benzoic acid, 2,3,6-trichloro-",423.25,1,O=C(O)c1c(Cl)ccc(Cl)c1Cl,le15
10056,"5-Chloro-alpha,alpha,alpha-trifluoro-2-nitrotoluene",367.05,1,O=[N+]([O-])c1ccc(Cl)cc1C(F)(F)F,le15
10057,"Toluene, 4-chloro-alpha,alpha,alpha-trifluoro-3-nitro- (8CI)",374.81699999999995,1,O=[N+]([O-])c1cc(C(F)(F)F)ccc1Cl,le15
10058,1-chloro-4-nitro-2-(trifluoromethyl)benzene,371.15,1,O=[N+]([O-])c1ccc(Cl)c(C(F)(F)F)c1,le15
10059,"Acetamide, 2-chloro-N-(2,6-diethylphenyl)-",450.25,1,CCc1cccc(CC)c1NC(=O)CCl,le15
10060,"Imidazole, 4,5-dibromo- (7CI,8CI)",461.95,1,Brc1nc[nH]c1Br,le15
10061,"1-bromo-2,4-dichlorobenzene",379.85,1,Clc1ccc(Br)c(Cl)c1,le15
10062,"2-bromo-1,3-dichlorobenzene",384.45,1,Clc1cccc(Cl)c1Br,le15
10063,"1-bromo-3,5-dichlorobenzene",377.05,1,Clc1cc(Cl)cc(Br)c1,le15
10064,"1-bromo-2,3-dichlorobenzene",381.85,1,Clc1cccc(Br)c1Cl,le15
10065,"2-bromo-1,4-dichlorobenzene",379.55,1,Clc1ccc(Cl)c(Br)c1,le15
10066,"4-bromo-1,2-dichlorobenzene",377.25,1,Clc1ccc(Br)cc1Cl,le15
10067,"Phenol, 2-(1-methylethyl)-4,6-dinitro- (9CI)",400.65,1,CC(C)c1cc([N+](=O)[O-])cc([N+](=O)[O-])c1O,le15
10068,"Tyrosine, 3-nitro-, L- (8CI)",487.95,1,N[C@@H](Cc1ccc(O)c([N+](=O)[O-])c1)C(=O)O,le15
10069,benzoyl benzoate,441.55,1,O=C(OC(=O)c1ccccc1)c1ccccc1,le15
10070,"9(10H)-Anthracenone, 1,8-dihydroxy- (9CI)",521.75,1,O=C1c2c(O)cccc2Cc2cccc(O)c21,le15
10071,"methyl 3,4,5-trimethoxybenzoate",388.35,1,COC(=O)c1cc(OC)c(OC)c(OC)c1,le15
10072,"9H-Fluoren-2-amine, 7-nitro- (9CI)",504.15,1,Nc1ccc2c(c1)Cc1cc([N+](=O)[O-])ccc1-2,le15
10073,"2-Propen-1-one, 1-(4-fluorophenyl)-3-phenyl- (9CI)",433.45,1,O=C(C=Cc1ccccc1)c1ccc(F)cc1,le15
10074,"2-Propen-1-one, 3-(4-fluorophenyl)-1-phenyl- (9CI)",430.45,1,O=C(C=Cc1ccc(F)cc1)c1ccccc1,le15
10075,"Benzoic acid, 2-phenylethyl ester",433.85,1,O=C(OCCc1ccccc1)c1ccccc1,le15
10076,"Acetic acid, phenyl-, p-tolyl ester (6CI,7CI,8CI)",395.45,1,Cc1ccc(OC(=O)Cc2ccccc2)cc1,le15
10077,"Benzeneacetic acid, phenylmethyl ester",528.45,1,O=C(Cc1ccccc1)OCc1ccccc1,le15
10078,"Propane, 1-(2-biphenylyloxy)-2,3-epoxy- (6CI,7CI,8CI)",410.45,1,c1ccc(-c2ccccc2OCC2CO2)cc1,le15
10079,"Propane, 1-(4-biphenyloxy)-2,3-epoxy- (7CI,8CI)",430.75,1,c1ccc(-c2ccc(OCC3CO3)cc2)cc1,le15
10080,"1-Propanone, 2-methyl-1,2-di-3-pyridinyl-",462.45,1,CC(C)(C(=O)c1cccnc1)c1cccnc1,le15
10081,"Acetamide, N-(4'-amino(1,1'-biphenyl)-4-yl)- (9CI)",508.45,1,CC(=O)Nc1ccc(-c2ccc(N)cc2)cc1,le15
10082,"Benzenemethanamide, N-nitroso-N-(phenylmethyl)- (9CI)",481.55,1,O=NN(Cc1ccccc1)C(=O)c1ccccc1,le15
10083,"Phosphorothioic acid, S-tert-butyl O,O-diethyl ester",383.35,1,CCOP(=O)(OCC)SC(C)(C)C,le15
10084,"1,4-Benzenediamine, N-(1-methylethyl)-N'-phenyl-",504.05,1,CC(C)Nc1ccc(Nc2ccccc2)cc1,le15
10085,"o-Toluidine, 4,4'-methylenedi- (8CI)",512.05,1,Cc1cc(Cc2ccc(N)c(C)c2)ccc1N,le15
10086,"2-Propenoic acid, 2-methyl-, decyl ester",387.85,1,C=C(C)C(=O)OCCCCCCCCCC,le15
10087,"Benzene, 1,2,4-trichloro-5-nitro-",402.85,1,O=[N+]([O-])c1cc(Cl)c(Cl)cc1Cl,le15
10088,pentadecan-8-one,356.25,1,CCCCCCCC(=O)CCCCCCC,le15
10089,pentadecan-2-one,357.05,1,CCCCCCCCCCCCCC(C)=O,le15
10090,"Nonane, 2,2,4,4,6,8,8-heptamethyl-",368.75,1,CC(CC(C)(C)C)CC(C)(C)CC(C)(C)C,le15
10091,"2,2,4,4,6,6,8-heptamethylnonane",383.35,1,CC(C)CC(C)(C)CC(C)(C)CC(C)(C)C,le15
10092,"1,4-Cyclohexadiene-1,2-dicarbonitrile, 4,5-dichloro-3,6-dioxo-",409.45,1,N#CC1=C(C#N)C(=O)C(Cl)=C(Cl)C1=O,le15
10093,"1,4-Naphthalenedione, 2,3-dichloro-",400.65,1,O=C1C(Cl)=C(Cl)C(=O)c2ccccc21,le15
10094,"1,2,3-Propanetriol, trinitrate",285.15,1,O=[N+]([O-])OCC(CO[N+](=O)[O-])O[N+](=O)[O-],le15
10095,"Benzene, 2-methyl-1,3,5-trinitro-",440.25,1,Cc1c([N+](=O)[O-])cc([N+](=O)[O-])cc1[N+](=O)[O-],le15
10096,"1-methyl-2,3,4-trinitrobenzene",504.65,1,Cc1ccc([N+](=O)[O-])c([N+](=O)[O-])c1[N+](=O)[O-],le15
10097,"Diazene, (4-nitrophenyl)phenyl- (9CI)",464.55,1,O=[N+]([O-])c1ccc(N=Nc2ccccc2)cc1,le15
10098,"Benzeneacetamide, alpha-hydroxy-alpha-phenyl- (9CI)",489.75,1,NC(=O)C(O)(c1ccccc1)c1ccccc1,le15
10099,N-(4-Phenoxyphenyl)acetamide,475.35,1,CC(=O)Nc1ccc(Oc2ccccc2)cc1,le15
10100,"Benzenamine, 2-methoxy-4-(phenylazo)- (9CI)",468.15,1,COc1cc(N=Nc2ccccc2)ccc1N,le15
10101,"Benzenamine, 4-(1-methylethoxy)-N-phenyl-",420.55,1,CC(C)Oc1ccc(Nc2ccccc2)cc1,le15
10102,"1,3,5-Triazine-2,4-diamine, N-ethyl-N'-(1-methylethyl)-6-(methylthio)-",466.65,1,CCNc1nc(NC(C)C)nc(SC)n1,le15
10103,"Phenol, 2,3,4-trichloro-6-methoxy-",403.05,1,COc1cc(Cl)c(Cl)c(Cl)c1O,le15
10104,"1-Pentanamine, N,N-dipentyl-",370.95,1,CCCCCN(CCCCC)CCCCC,le15
10105,"3-methyl-N,N-bis(3-methylbutyl)butan-1-amine",357.25,1,CC(C)CCN(CCC(C)C)CCC(C)C,le15
10106,1-Pentadecanamine,402.45,1,CCCCCCCCCCCCCCCN,le15
10107,"Benzonitrile, 4-chloro-3,5-dinitro-",424.35,1,N#Cc1cc([N+](=O)[O-])c(Cl)c([N+](=O)[O-])c1,le15