,compound,flashpoint,pure substance,smiles,source
4106,Ethylene glycol,384.15,1,OCCO,hazardous materials
4107,Ethyl ether,228.15,1,CCOCC,hazardous materials
4108,Ethyl formate,253.15,1,CCOC=O,hazardous materials
4109,2-Ethyl hexanol,357.15,1,CCCCC(CC)CO,hazardous materials
4110,Ethyl lactate,319.15,1,CCOC(=O)C(C)O,hazardous materials
4111,Ethyl methyl ether,236.15,1,CCOC,hazardous materials
4112,N-Ethylmorpholine,305.15,1,CCN1CCOCC1,hazardous materials
4113,Ethyl nitrite,238.15,1,CCON=O,hazardous materials
4114,Ethyl oxalate,349.15,1,CCOC(=O)C(=O)[O-],hazardous materials
4115,Ethyl propionate,285.15,1,CCOC(=O)CC,hazardous materials
4116,2-Ethyl-3-propyl acrolein,341.15,1,CCCC=C(C=O)CC,hazardous materials
4117,Ethyl silicate,325.15,1,CCO[Si]([O-])([O-])[O-],hazardous materials
4118,Formamide,428.15,1,NC=O,hazardous materials
4119,Formic acid,342.15,1,O=CO,hazardous materials
4120,Furfural,333.15,1,O=Cc1ccco1,hazardous materials
4121,Furfuryl alcohol,348.15,1,OCc1ccco1,hazardous materials
4122,Glycerol,433.15,1,OCC(O)CO,hazardous materials
4123,Heptane,269.15,1,CCCCCCC,hazardous materials
4124,n-Heptylamine,327.15,1,CCCCCCCN,hazardous materials
4125,Hexachlorobenzene,515.15,1,Clc1c(Cl)c(Cl)c(Cl)c(Cl)c1Cl,hazardous materials
4126,"2,4-Hexadienal ",341.15,1,CC=CC=CC=O,hazardous materials
4127,"1,4-Hexadiene ",252.15,1,C=CCC=CC,hazardous materials
4128,Hexane,251.15,1,CCCCCC,hazardous materials
4129,n-Hexanol,333.15,1,CCCCCCO,hazardous materials
4130,sec-Hexyl acetate,318.15,1,CCCCC(C)OC(C)=O,hazardous materials
4131,Hexyl amine,302.15,1,CCCCCCN,hazardous materials
4132,Hydrazine,311.15,1,NN,hazardous materials
4133,Hydrocyanic acid,255.15,1,C#N,hazardous materials
4134,Hydroquinone monomethyl ether,404.15,1,COc1ccc(O)cc1,hazardous materials
4135,Hydroxylamine,402.15,1,NO,hazardous materials
4136,Isoprene,219.15,1,C=CC(=C)C,hazardous materials
4137,Lactonitrile,350.15,1,CC(O)C#N,hazardous materials
4138,Maleic anhydride,375.15,1,O=C1C=CC(=O)O1,hazardous materials
4139,"p-Mentha-1,8-diene ",318.15,1,C=C(C)C1CC=C(C)CC1,hazardous materials
4140,2-Mercaptoethanol,347.15,1,OCCS,hazardous materials
4141,Mesityl oxide,304.15,1,CC(=O)C=C(C)C,hazardous materials
4142,Methyl acetate,264.15,1,COC(C)=O,hazardous materials
4143,Methyl acrylate,270.15,1,C=CC(=O)OC,hazardous materials
4144,Methyl alcohol,285.15,1,CO,hazardous materials
4145,Methyl amyl alcohol,314.15,1,CCCCC(C)O,hazardous materials
4146,N-Methylbutylamine,286.15,1,CCCCNC,hazardous materials
4147,Methyl butyl ketone,308.15,1,CCCCC(C)=O,hazardous materials
4148,Methyl butyrate,287.15,1,CCCC(=O)OC,hazardous materials
4149,Methyl chloroformate,285.15,1,COC(=O)Cl,hazardous materials
4150,Methyl cyclohexane,269.15,1,CC1CCCCC1,hazardous materials
4151,2-Methyl cyclohexanone,321.15,1,CC1CCCCC1=O,hazardous materials
4152,4-Methyl cyclohexene,272.15,1,CC1CC=CCC1,hazardous materials
4153,Methyl ether,232.15,1,COC,hazardous materials
4154,Methyl ethyl ether,236.15,1,CCOC,hazardous materials
4155,Methyl ethyl ketone,266.15,1,CCC(C)=O,hazardous materials
4156,Methyl formate,254.15,1,COC=O,hazardous materials
4157,2-Methyl furan,243.15,1,Cc1ccco1,hazardous materials
4158,Methyl isobutyl ketone,296.15,1,CC(=O)CC(C)C,hazardous materials
4159,Methyl isobutyrate,286.15,1,COC(=O)C(C)C,hazardous materials
4160,Methyl methacrylate,283.15,1,C=C(C)C(=O)OC,hazardous materials
4161,Methyl-n-Propyl ketone,280.15,1,CCCC(C)=O,hazardous materials
4162,Methyl salicylate,374.15,1,COC(=O)c1ccccc1O,hazardous materials
4163,Methyl vinyl ether,222.15,1,C=COC,hazardous materials
4164,Monomethylamine,263.15,1,CN,hazardous materials
4165,Morpholine,311.15,1,C1COCCN1,hazardous materials
4166,Naphthalene,352.15,1,c1ccc2ccccc2c1,hazardous materials
4167,2-Naphthol,426.15,1,Oc1ccc2ccccc2c1,hazardous materials
4168,1-Naphthylamine,430.15,1,Nc1cccc2ccccc12,hazardous materials
4169,o-Nitroaniline,441.15,1,Nc1ccccc1[N+](=O)[O-],hazardous materials
4170,p-Nitroaniline,472.15,1,Nc1ccc([N+](=O)[O-])cc1,hazardous materials
4171,Nitrobenzene,361.15,1,O=[N+]([O-])c1ccccc1,hazardous materials
4172,o-Nitrobiphenyl,416.15,1,O=[N+]([O-])c1ccccc1-c1ccccc1,hazardous materials
4173,Nitroethane,311.15,1,CC[N+](=O)[O-],hazardous materials
4174,Nitromethane,308.15,1,C[N+](=O)[O-],hazardous materials
4175,alpha-Nitronaphthalene,437.15,1,O=[N+]([O-])c1cccc2ccccc12,hazardous materials
4176,1-Nitropropane,322.15,1,CCC[N+](=O)[O-],hazardous materials
4177,2-Nitropropane,312.15,1,CC(C)[N+](=O)[O-],hazardous materials
4178,m-Nitrotoluene,379.15,1,Cc1cccc([N+](=O)[O-])c1,hazardous materials
4179,o-Nitrotoluene,379.15,1,Cc1ccccc1[N+](=O)[O-],hazardous materials
4180,p-Nitrotoluene,379.15,1,Cc1ccc([N+](=O)[O-])cc1,hazardous materials
4181,Nonyl phenol,414.15,1,CCCCCCCCCc1ccccc1O,hazardous materials
4182,Octane,286.15,1,CCCCCCCC,hazardous materials
4183,Octanoic acid,405.15,1,CCCCCCCC(=O)O,hazardous materials
4184,1-Octanol,354.15,1,CCCCCCCCO,hazardous materials
4185,2-Octanol,361.15,1,CCCCCCC(C)O,hazardous materials
4186,Oleic acid,462.15,1,CCCCCCCC/C=C\CCCCCCCC(=O)O,hazardous materials
4187,n-Pentane,224.15,1,CCCCC,hazardous materials
4188,iso-Pentane,222.15,1,CCC(C)C,hazardous materials
4189,"1,5-Pentanediol ",408.15,1,OCCCCCO,hazardous materials
4190,"2,4-Pentanedione ",314.15,1,CC(=O)CC(C)=O,hazardous materials
4191,2-Pentanol,312.15,1,CCCC(C)O,hazardous materials
4192,Phenol,352.15,1,Oc1ccccc1,hazardous materials
4193,Phenyl acetate,353.15,1,CC(=O)Oc1ccccc1,hazardous materials
4194,p-Phenylenediamine,429.15,1,Nc1ccc(N)cc1,hazardous materials
4195,Phenylethanolamine,425.15,1,NCC(O)c1ccccc1,hazardous materials
4196,Phenyl ether,369.15,1,c1ccc(Oc2ccccc2)cc1,hazardous materials
4197,Phenylhydrazine,362.15,1,NNc1ccccc1,hazardous materials
4198,o-Phenyl phenol,397.15,1,Oc1ccccc1-c1ccccc1,hazardous materials
4199,Phorone,358.15,1,CC(C)=CC(=O)C=C(C)C,hazardous materials
4200,Phthalic anhydride,424.15,1,O=C1OC(=O)c2ccccc21,hazardous materials
4201,2-Picoline,312.15,1,Cc1ccccn1,hazardous materials
4202,4-Picoline,330.15,1,Cc1ccncc1,hazardous materials
4203,Picric acid,423.15,1,O=[N+]([O-])c1cc([N+](=O)[O-])c(O)c([N+](=O)[O-])c1,hazardous materials
4204,2-Pinene,306.15,1,CC1=CCC2CC1C2(C)C,hazardous materials
4205,Piperidine,289.15,1,C1CCNCC1,hazardous materials
4206,Piperylene,230.15,1,C=CC=CC,hazardous materials
4207,"1,3-Propanediamine ",297.15,1,NCCCN,hazardous materials
4208,"1,2-Propanediol ",372.15,1,CC(O)CO,hazardous materials
4209,Propargyl alcohol,309.15,1,C#CCO,hazardous materials
4210,Propargyl bromide,283.15,1,C#CCBr,hazardous materials
4211,iso-Propenyl acetate,289.15,1,C=C(C)OC(C)=O,hazardous materials
4212,Propionaldehyde,264.15,1,CCC=O,hazardous materials
4213,Propionic acid,327.15,1,CCC(=O)O,hazardous materials
4214,Propionitrile,275.15,1,CCC#N,hazardous materials
4215,Propionyl chloride,285.15,1,CCC(=O)Cl,hazardous materials
4216,iso-Propyl acetate,277.15,1,CC(=O)OC(C)C,hazardous materials
4217,n-Propyl acetate,287.15,1,CCCOC(C)=O,hazardous materials
4218,n-Propyl alcohol,288.15,1,CCCO,hazardous materials
4219,iso-Propyl alcohol,285.15,1,CC(C)O,hazardous materials
4220,Propylamine,236.15,1,CCCN,hazardous materials
4221,iso-Propylamine,236.15,1,CC(C)N,hazardous materials
4222,Propyl benzene,303.15,1,CCCc1ccccc1,hazardous materials
4223,iso-Propyl benzoate,372.15,1,CC(C)OC(=O)c1ccccc1,hazardous materials
4224,Propylene,165.15,1,C=CC,hazardous materials
4225,Propylene carbonate,408.15,1,CC1COC(=O)O1,hazardous materials
4226,iso-Propyl ether,245.15,1,CC(C)OC(C)C,hazardous materials
4227,n-Propyl formate,270.15,1,CCCOC=O,hazardous materials
4228,iso-Propyl formate,267.15,1,CC(C)OC=O,hazardous materials
4229,Propyl nitrate,293.15,1,CCCO[N+](=O)[O-],hazardous materials
4230,Pyridine,293.15,1,c1ccncc1,hazardous materials
4231,Pyrrolidine,276.15,1,C1CCNC1,hazardous materials
4232,Pyruvic acid,276.15,1,CC(=O)C(=O)O,hazardous materials
4233,Resorcinol,400.15,1,Oc1cccc(O)c1,hazardous materials
4234,Salicylaldehyde,351.15,1,O=Cc1ccccc1O,hazardous materials
4235,Salicylic acid,430.15,1,O=C(O)c1ccccc1O,hazardous materials
4236,Stearic acid,469.15,1,CCCCCCCCCCCCCCCCCC(=O)O,hazardous materials
4237,Styrene,304.15,1,C=Cc1ccccc1,hazardous materials
4238,Succinonitrile,405.15,1,N#CCCC#N,hazardous materials
4239,Sulphur,480.15,1,[S],hazardous materials
4240,Sulphur monochloride,391.15,1,[S]Cl,hazardous materials
4241,m-Terphenyl,408.15,1,c1ccc(-c2cccc(-c3ccccc3)c2)cc1,hazardous materials
4242,o-Terphenyl,436.15,1,c1ccc(-c2ccccc2-c2ccccc2)cc1,hazardous materials
4243,"1,2,4,5-Tetrachlorobenzene ",428.15,1,Clc1cc(Cl)c(Cl)cc1Cl,hazardous materials
4244,Tetradecane,373.15,1,CCCCCCCCCCCCCC,hazardous materials
4245,Tetraethylenepentamine,436.15,1,NCCNCCNCCNCCN,hazardous materials
4246,Tetraethyl lead,366.15,1,CC[Pb](CC)(CC)CC,hazardous materials
4247,Tetrahydrofuran,259.15,1,C1CCOC1,hazardous materials
4248,Tetrahydronaphthalene,344.15,1,c1ccc2c(c1)CCCC2,hazardous materials
4249,"2,2'-Thiodiethanol ",433.15,1,OCCSCCO,hazardous materials
4250,Thiophene,272.15,1,c1ccsc1,hazardous materials
4251,Toluene,277.55,1,Cc1ccccc1,hazardous materials
4252,m-Toluidine,359.15,1,Cc1cccc(N)c1,hazardous materials
4253,o-Toluidine,358.15,1,Cc1ccccc1N,hazardous materials
4254,p-Toluidine,360.15,1,Cc1ccc(N)cc1,hazardous materials
4255,Triamylamine,375.15,1,CCCCCN(CCCCC)CCCCC,hazardous materials
4256,Tri-n-butyl amine,359.15,1,CCCCN(CCCC)CCCC,hazardous materials
4257,Tributyl phosphate,419.15,1,CCCCOP(=O)(OCCCC)OCCCC,hazardous materials
4258,"1,2,4-Trichlorobenzene ",372.15,1,Clc1ccc(Cl)c(Cl)c1,hazardous materials
4259,"1,2,3-Trichloropropane ",355.15,1,ClCC(Cl)CCl,hazardous materials
4260,Tridecanol,394.15,1,CCCCCCCCCCCCCO,hazardous materials
4261,Triethanolamine,452.15,1,OCCN(CCO)CCO,hazardous materials
4262,Triethylene glycol,450.15,1,OCCOCCOCCO,hazardous materials
4263,Triethylene-tetramine,408.15,1,NCCNCCNCCN,hazardous materials
4264,Trimethyl amine,266.15,1,CN(C)C,hazardous materials
4265,"2,2,4-Trimethyl pentane ",261.15,1,CC(C)CC(C)(C)C,hazardous materials
4266,"2,4,4-Trimethyl-2-pentene ",275.15,1,CC(C)=CC(C)(C)C,hazardous materials
4267,"1,3,5-Trioxane ",318.15,1,C1OCOCO1,hazardous materials
4268,Triphenyl phosphate,493.15,1,O=P(Oc1ccccc1)(Oc1ccccc1)Oc1ccccc1,hazardous materials
4269,Triphenyl phosphine,453.15,1,c1ccc(P(c2ccccc2)c2ccccc2)cc1,hazardous materials
4270,Tripropylamine,314.15,1,CCCN(CCC)CCC,hazardous materials
4271,Tritolyl phosphate,498.15,1,Cc1ccccc1OP(=O)(Oc1ccccc1C)Oc1ccccc1C,hazardous materials
4272,Valeraldehyde,285.15,1,CCCCC=O,hazardous materials
4273,Valeric acid,369.15,1,CCCCC(=O)O,hazardous materials
4274,Vinyl acetate,265.15,1,C=COC(C)=O,hazardous materials
4275,Vinyl chloride,195.15,1,C=CCl,hazardous materials
4276,Vinylidene chloride,258.15,1,C=C(Cl)Cl,hazardous materials
4277,m-Xylene,302.15,1,Cc1cccc(C)c1,hazardous materials
4278,o-Xylene,305.15,1,Cc1ccccc1C,hazardous materials
4279,p-Xylene,300.15,1,Cc1ccc(C)cc1,hazardous materials
4280,Xylidine,370.15,1,Cc1cccc(N)c1C,hazardous materials
4281,Ethylene,137.15,1,C=C,le15
4282,Ethane,138.0,1,CC,le15
4283,Methylamine,211.0,1,CN,le15
4284,Methanol,284.26099999999997,1,CO,le15
4285,1propyne,185.15,1,C#CC,le15
4286,Acetonitrile,275.15,1,CC#N,le15
4287,Cyanamide,274.35,1,N#CN,le15
4288,Propene,165.15,1,C=CC,le15
4289,Cyclopropane,178.0,1,C1CC1,le15
4290,Propene,165.0,1,C=CC,le15
4291,propane,169.15,1,CCC,le15
4292,Formamide,448.15,1,NC=O,le15
4293,Monoethylamine,256.15,1,CCN,le15
4294,Dimethylamine,255.0,1,CNC,le15
4295,Ethylamine,256.0,1,CCN,le15
4296,Formicacid,342.0,1,O=CO,le15
4297,"Hydrazine, methyl-",294.15,1,CNN,le15
4298,Methyl hydroperoxide,274.25,1,COO,le15
4299,Methanethiol,255.0,1,CS,le15
4300,Propiononitrile,279.15,1,CCC#N,le15
4301,2propyn1ol,306.0,1,C#CCO,le15
4302,2-aminoacetonitrile,326.25,1,N#CCN,le15
4303,(Z)-but-2-ene,200.35,1,C/C=C\C,le15
4304,1butene,193.0,1,C=CCC,le15
4305,Cyclobutane,208.0,1,C1CCC1,le15
4306,Isobutene,197.0,1,C=C(C)C,le15
4307,"Acetonitrile, hydroxy-",329.25,1,N#CCO,le15
4308,Cyclopropanamine,274.15,1,NC1CC1,le15
4309,2-Propen-1-amine,245.15,1,C=CCN,le15
4310,Cyclopropylamine,248.0,1,NC1CC1,le15
4311,Trimethylene oxide (8CI),253.15,1,C1COC1,le15
4312,2propene1ol,294.0,1,C=CCO,le15
4313,PropyleneOxide,236.0,1,CC1CO1,le15
4314,"Acetaldehyde, oxime",313.15,1,CC=NO,le15
4315,propylamine,247.0,1,CCCN,le15
4316,Trimethylamine,267.0,1,CN(C)C,le15
4317,Hydrazinecarboxaldehyde,385.15,1,NNC=O,le15
4318,Isopropyl alcohol,284.817,1,CC(C)O,le15
4319,"Hydrazine, 1,1-dimethyl-",274.25,1,CN(C)N,le15
4320,Ethylene sulfide,283.15,1,C1CS1,le15
4321,"Methane, nitro-",308.15,1,C[N+](=O)[O-],le15
4322,"Ethanol, 2-amino-",366.45,1,NCCO,le15
4323,carbonic acid,442.95,1,O=C(O)O,le15
4324,"Hydroperoxide, ethyl",284.45,1,CCOO,le15
4325,Ethylene glycol,381.35,1,OCCO,le15
4326,"Ethylene, chloro-",255.35,1,C=CCl,le15
4327,"Ethanol, 2-fluoro-",304.25,1,OCCF,le15
4328,"2-Propenenitrile, 2-methyl-",285.15,1,C=C(C)C#N,le15
4329,"Isocrotononitrile (6CI,7CI)",293.15,1,C/C=C\C#N,le15
4330,2-Butenenitrile,289.15,1,CC=CC#N,le15
4331,Methacrylonitrile,274.0,1,C=C(C)C#N,le15
4332,Pyrrole,306.0,1,c1cc[nH]c1,le15
4333,but-3-yn-2-one,272.15,1,C#CC(C)=O,le15
4334,Furan,238.0,1,c1ccoc1,le15
4335,1H-Imidazole,418.15,1,c1c[nH]cn1,le15
4336,1pentyne,239.0,1,C#CCCC,le15
4337,2pentyne,243.0,1,CC#CCC,le15
4338,Cyclopentene,273.0,1,C1=CCCC1,le15
4339,"1,2-oxazole",282.05,1,c1cnoc1,le15
4340,"1,3-oxazole",292.039,1,c1cocn1,le15
4341,2H-triazole,380.15,1,c1cn[nH]n1,le15
4342,"1H-1,2,4-Triazole",412.25,1,c1nc[nH]n1,le15
4343,"Propanenitrile, 2-methyl-",281.15,1,CC(C)C#N,le15
4344,Butanenitrile,289.15,1,CCCC#N,le15
4345,"2,5-dihydro-1H-pyrrole",278.95,1,C1=CCNC1,le15
4346,"2-Propyn-1-amine, N-methyl-",273.75,1,C#CCNC,le15
4347,2-Propynoic acid,332.05,1,C#CC(=O)O,le15
4348,"2-Propenal, 2-methyl-",258.15,1,C=C(C)C=O,le15
4349,But-2-yn-1-ol,324.15,1,CC#CCO,le15
4350,But-3-yn-1-ol,309.15,1,C#CCCO,le15
4351,ethynoxyethane,282.15,1,C#COCC,le15
4352,cyclobutanone,283.15,1,O=C1CCC1,le15
4353,"2,3-dihydrofuran",249.15,1,C1=COCC1,le15
4354,"2,5-dihydrofuran",256.45,1,C1=CCOC1,le15
4355,Crotonaldehyde,282.05,1,C/C=C/C=O,le15
4356,1-Butyn-3-ol,298.75,1,C#CC(C)O,le15
4357,2butenal,286.0,1,CC=CC=O,le15
4358,Cyclobutanone,283.0,1,O=C1CCC1,le15
4359,"Cyanamide, dimethyl-",331.45,1,CN(C)C#N,le15
4360,"Propanenitrile, 3-amino-",339.65,1,N#CCCN,le15
4361,1-Pentene,245.15,1,C=CCCC,le15
4362,2methyl1butene,239.0,1,C=C(C)CC,le15
4363,2methyl2butene,228.0,1,CC=C(C)C,le15
4364,3methyl1butene,217.0,1,C=CC(C)C,le15
4365,2-Propenamide,352.15,1,C=CC(N)=O,le15
4366,2-methoxyacetonitrile,304.85,1,COCC#N,le15
4367,"2-Propenal, oxime",303.714,1,C=CC=NO,le15
4368,3hydroxypropanenitrile,402.0,1,N#CCCO,le15
4369,Pyrrolidine,275.928,1,C1CCNC1,le15
4370,N-methylprop-2-en-1-amine,244.85,1,C=CCNC,le15
4371,Cyclobutylamine,269.0,1,NC1CCC1,le15
4372,Propiolactone,343.15,1,O=C1CCO1,le15
4373,"Formic acid, ethenyl ester",289.15,1,C=COC=O,le15
4374,2-Propenoic acid,341.15,1,C=CC(=O)O,le15
4375,"Butane, 1,2-epoxy-",251.15,1,CCC1CO1,le15
4376,"Furan, tetrahydro-",252.15,1,C1CCOC1,le15
4377,Isopropenyl methyl ether,244.15,1,C=C(C)OC,le15
4378,"2-Propen-1-ol, 2-methyl-",306.15,1,C=C(C)CO,le15
4379,"Propane, 1,2-epoxy-2-methyl-",273.75,1,CC1(C)CO1,le15
4380,3-methoxyprop-1-ene,250.15,1,C=CCOC,le15
4381,"(2R,3S)-2,3-dimethyloxirane",251.45,1,C[C@@H]1O[C@@H]1C,le15
4382,cyclobutanol,294.15,1,OC1CCC1,le15
4383,2-Buten-1-ol,310.15,1,CC=CCO,le15
4384,"Propanal, 2-methyl-",249.15,1,CC(C)C=O,le15
4385,Methyl ethyl ketone,282.15,1,CCC(C)=O,le15
4386,3-Buten-2-ol,289.85,1,C=CC(C)O,le15
4387,3-Buten-1-ol,305.35,1,C=CCCO,le15
4388,2methyl1propanal,248.0,1,CC(C)C=O,le15
4389,3butene2ol,293.0,1,C=CC(C)O,le15
4390,"Butane, 2-methyl-",222.15,1,CCC(C)C,le15
4391,Isopentane,216.0,1,CCC(C)C,le15
4392,1-nitroethene,296.35,1,C=C[N+](=O)[O-],le15
4393,Propionamide,358.05,1,CCC(N)=O,le15
4394,"2-Propanone, oxime",318.35,1,CC(C)=NO,le15
4395,"Guanidine, methyl-",331.25,1,CNC(=N)N,le15
4396,"Thiocyanic acid, methyl ester",311.15,1,CSC#N,le15
4397,2methyl2propenal,258.0,1,C=C(C)C=O,le15
4398,"2-Propanamine, 2-methyl-",264.15,1,CC(C)(C)N,le15
4399,"2-Butanamine, (S)- (9CI)",254.15,1,CC[C@H](C)N,le15
4400,"Ethanamine, N,N-dimethyl-",237.15,1,CCN(C)C,le15
4401,sec-Butylamine,254.15,1,CCC(C)N,le15
4402,secButylamine,254.0,1,CCC(C)N,le15
4403,tertButylamine,264.0,1,CC(C)(C)N,le15
4404,"Acetic acid, 2-oxo-",377.05,1,O=CC(=O)O,le15
4405,"2-Propanone, 1-hydroxy-",329.15,1,CC(=O)CO,le15
4406,"1-Propanol, 2,3-epoxy-",344.15,1,OCC1CO1,le15
4407,"Methanamine, N-methyl-N-nitroso-",334.15,1,CN(C)N=O,le15
4408,methylurea,296.25,1,CNC(N)=O,le15
4409,"Acetic acid, hydrazide",375.75,1,CC(=O)NN,le15
4410,"Diazene, dimethyl-, 1-oxide (9CI)",282.55,1,CN=[N+](C)[O-],le15
4411,"Ethane, 1,1'-oxybis-",228.15,1,CCOCC,le15
4412,Butyl alcohol,308.15,1,CCCCO,le15
4413,"1-Propanol, 2-methyl-",300.928,1,CC(C)CO,le15
4414,1-deuteriooxybutane,308.15,1,[2H]OCCCC,le15
4415,2methyl1propanol,301.0,1,CC(C)CO,le15
4416,secbutanol,299.0,1,CCC(C)O,le15
4417,tertbutylalcohol,284.15,1,CC(C)(C)O,le15
4418,Trimethylenediamine,322.05,1,NCCCN,le15
4419,"N'-methylethane-1,2-diamine",314.25,1,CNCCN,le15
4420,prop-2-ene-1-thiol,291.15,1,C=CCS,le15
4421,"Propane, 1,2-epithio-",283.15,1,CC1CS1,le15
4422,3-chloroprop-1-yne,292.05,1,C#CCCl,le15
4423,ethyl nitrite,288.15,1,CCON=O,le15
4424,"Acetamide, N-hydroxy- (9CI)",400.75,1,CC(=O)NO,le15
4425,"Carbamic acid, methyl ester",378.35,1,COC(N)=O,le15
4426,"2-Propanol, 1-amino-",347.05,1,CC(O)CN,le15
4427,"Ethanamine, 2-methoxy-",282.55,1,COCCN,le15
4428,"Acetonitrile, chloro-",320.95,1,N#CCCl,le15
4429,"Acetic acid, hydroxy-",401.85,1,O=C(O)CO,le15
4430,Ethaneperoxoic acid,314.15,1,CC(=O)OO,le15
4431,"Methanamine, N-nitro- (9CI)",320.75,1,CN[N+](=O)[O-],le15
4432,propanoyl fluoride,276.35,1,CCC(=O)F,le15
4433,2-(fluoromethyl)oxirane,277.15,1,FCC1CO1,le15
4434,"Ethanol, 2-methoxy-",319.25,1,COCCO,le15
4435,"propane-1,3-diol",352.55,1,OCCCO,le15
4436,N-(2-Hydroxyethyl)hydrazine,347.05,1,NNCCO,le15
4437,ethanethioic S-acid,284.25,1,CC(=O)S,le15
4438,"Urea, thio- (8CI)",339.95,1,NC(N)=S,le15
4439,methylsulfanylethane,258.15,1,CCSC,le15
4440,2-Propanethiol,239.15,1,CC(C)S,le15
4441,3chloropropene,244.0,1,C=CCCl,le15
4442,"Acetamide, 2-fluoro-",383.55,1,NC(=O)CF,le15
4443,"2-Butenedinitrile, (E)- (9CI)",355.75,1,N#C/C=C/C#N,le15
4444,3-fluoropropan-1-ol,311.65,1,OCCCF,le15
4445,"hexa-2,4-diyne",285.45,1,CC#CC#CC,le15
4446,Sulfinylbis-methane (9CI),358.15,1,CS(C)=O,le15
4447,DimethylSulfoxide,361.0,1,CS(C)=O,le15
4448,1chloropropane,255.0,1,CCCCl,le15
4449,2chloropropane,241.0,1,CC(C)Cl,le15
4450,"(2Z)-penta-2,4-dienenitrile",312.25,1,C=C/C=C\C#N,le15
4451,carbamoyl chloride,308.75,1,NC(=O)Cl,le15
4452,methylphosphonous acid,343.35,1,CP(O)O,le15
4453,pyridazine,358.15,1,c1ccnnc1,le15
4454,Pyrazine,328.15,1,c1cnccn1,le15
4455,Butanedinitrile,414.25,1,N#CCCC#N,le15
4456,Pyrimidine,304.0,1,c1cncnc1,le15
4457,"cyclohexa-1,4-diene",267.15,1,C1=CCC=CC1,le15
4458,Methylcyclopentadiene,299.0,1,CC1=CC=CC1,le15
4459,"Ether, chloromethyl methyl",288.15,1,COCCl,le15
4460,"1,3,5-triazine",304.25,1,c1ncncn1,le15
4461,"1H-Pyrrole, 1-methyl-",289.15,1,Cn1cccc1,le15
4462,pent-4-enenitrile,319.35,1,C=CCCC#N,le15
4463,2-methyl-1H-pyrrole,320.35,1,Cc1ccc[nH]1,le15
4464,cyclobutanecarbonitrile,317.45,1,N#CC1CCC1,le15
4465,3-methyl-1H-pyrrole,320.35,1,Cc1cc[nH]c1,le15
4466,3-Pentenenitrile,313.15,1,CC=CCC#N,le15
4467,1methylpyrrole,288.0,1,Cn1cccc1,le15
4468,Difluoroethanol,273.55,1,CC(O)(F)F,le15
4469,3-methylfuran,251.15,1,Cc1ccoc1,le15
4470,cyclopent-2-en-1-one,315.15,1,O=C1C=CCC1,le15
4471,Pent-2-en-4-yn-1-ol,337.35,1,C#CC=CCO,le15
4472,2methylfuran,251.15,1,Cc1ccco1,le15
4473,1-methylimidazole,365.15,1,Cn1ccnc1,le15
4474,"1H-Imidazole, 4-methyl-",414.75,1,Cc1c[nH]cn1,le15
4475,"Pyrazole, 3-methyl-",366.15,1,Cc1cc[nH]n1,le15
4476,"1H-Imidazole, 2-methyl-",418.05,1,Cc1ncc[nH]1,le15
4477,1-methylpyrazole,308.15,1,Cn1cccn1,le15
4478,"1H-Pyrazole, 4-methyl-",369.25,1,Cc1cn[nH]c1,le15