,compound,flashpoint,pure substance,smiles,source
1878,cyclononane,316.0,1,C1CCCCCCCC1,carroll11
1879,butylcyclohexane,321.0,1,C(CCC)C1CCCCC1,carroll11
1880,trans-decalin,326.0,1,C1CCC[C@@H]2CCCC[C@@H]12,carroll11
1881,cis-decalin,330.0,1,C1CCC[C@@H]2CCCC[C@H]12,carroll11
1882,cyclodecane,332.0,1,C1CCCCCCCCC1,carroll11
1883,pentylcyclohexane,336.0,1,C(CCCC)C1CCCCC1,carroll11
1884,bicyclohexyl,365.0,1,C1(CCCCC1)C1CCCCC1,carroll11
1885,"2,2,4,4,6,8,8-heptamethylnonane",368.0,1,CC(C)(CC(CC(CC(C)(C)C)C)(C)C)C,carroll11
1886,1-pentene,222.0,1,C=CCCC,carroll11
1887,1-hexene,247.0,1,C=CCCCC,carroll11
1888,1-heptene,264.0,1,C=CCCCCC,carroll11
1889,1-nonene,298.0,1,C=CCCCCCCC,carroll11
1890,1-decene,311.0,1,C=CCCCCCCCC,carroll11
1891,1-undecene,327.0,1,C=CCCCCCCCCC,carroll11
1892,1-dodecene,346.0,1,C=CCCCCCCCCCC,carroll11
1893,1-tridecene,365.0,1,C=CCCCCCCCCCCC,carroll11
1894,1-tetradecene,370.0,1,C=CCCCCCCCCCCCC,carroll11
1895,1-pentadecene,386.0,1,C=CCCCCCCCCCCCCC,carroll11
1896,1-hexadecene,402.0,1,C=CCCCCCCCCCCCCCC,carroll11
1897,1-heptadecene,414.0,1,C=CCCCCCCCCCCCCCCC,carroll11
1898,1-octadecene,427.0,1,C=CCCCCCCCCCCCCCCCC,carroll11
1899,cis-2-pentene,227.0,1,C\C=C/CC,carroll11
1900,trans-2-pentene,228.0,1,C\C=C\CC,carroll11
1901,cis-3-hexene,248.0,1,CC\C=C/CC,carroll11
1902,trans-3-hexene,248.0,1,CC\C=C\CC,carroll11
1903,trans-2-hexene,248.0,1,C\C=C\CCC,carroll11
1904,cis-2-hexene,248.0,1,C\C=C/CCC,carroll11
1905,cis-3-heptene,264.0,1,CC\C=C/CCC,carroll11
1906,trans-3-heptene,266.0,1,CC\C=C\CCC,carroll11
1907,trans-2-heptene,267.0,1,C\C=C\CCCC,carroll11
1908,cis-2-heptene,267.0,1,C\C=C/CCCC,carroll11
1909,trans-4-octene,281.0,1,CCC\C=C\CCC,carroll11
1910,trans-3-octene,282.0,1,CC\C=C\CCCC,carroll11
1911,cis-4-octene,290.0,1,CCC\C=C/CCC,carroll11
1912,cis-3-octene,287.0,1,CC\C=C/CCCC,carroll11
1913,trans-2-octene,287.0,1,C\C=C\CCCCC,carroll11
1914,2-methyl-1-butene,226.0,1,CC(=C)CC,carroll11
1915,2-methyl-2-butene,228.0,1,CC(C)=CC,carroll11
1916,cyclopentene,243.0,1,C1=CCCC1,carroll11
1917,4-methyl-1-pentene,241.0,1,CC(CC=C)C,carroll11
1918,3-methyl-1-pentene,240.0,1,CC(C=C)CC,carroll11
1919,cis-4-methyl-2-pentene,240.0,1,CC(\C=C/C)C,carroll11
1920,trans-4-methyl-2-pentene,246.0,1,CC(/C=C/C)C,carroll11
1921,2-methyl-1-pentene,246.0,1,CC(=C)CCC,carroll11
1922,2-ethyl-1-butene,247.0,1,C(C)C(=C)CC,carroll11
1923,"2,3-dimethyl-2-butene",253.0,1,CC(C)=C(C)C,carroll11
1924,methylenecyclopentane,255.0,1,C=C1CCCC1,carroll11
1925,1-methylcyclopentene,254.0,1,CC1=CCCC1,carroll11
1926,"2,3,3-trimethyl-1-butene",256.0,1,CC(=C)C(C)(C)C,carroll11
1927,cyclohexene,256.0,1,C1=CCCCC1,carroll11
1928,3-methyl-1-hexene,255.0,1,CC(C=C)CCC,carroll11
1929,"2,3-dimethyl-1-pentene",256.0,1,CC(=C)C(CC)C,carroll11
1930,3-ethyl-1-pentene,256.0,1,C(C)C(C=C)CC,carroll11
1931,5-methyl-1-hexene,263.0,1,CC(CCC=C)C,carroll11
1932,4-methyl-1-hexene,258.0,1,CC(CC=C)CC,carroll11
1933,2-methyl-1-hexene,265.0,1,CC(=C)CCCC,carroll11
1934,2-ethyl-1-pentene,263.0,1,C(C)C(=C)CCC,carroll11
1935,3-ethyl-2-pentene,267.0,1,C(C)C(=CC)CC,carroll11
1936,2-norbornene,259.0,1,C12C=CC(CC1)C2,carroll11
1937,"2,4,4-trimethyl-1-pentene",269.0,1,CC(=C)CC(C)(C)C,carroll11
1938,4-methylcyclohexene,272.0,1,CC1CC=CCC1,carroll11
1939,methylenecyclohexane,271.0,1,C=C1CCCCC1,carroll11
1940,3-methylcyclohexene,270.0,1,CC1C=CCCC1,carroll11
1941,"2,4,4-trimethyl-2-pentene",272.0,1,CC(C)=CC(C)(C)C,carroll11
1942,1-methylcyclohexene,272.0,1,CC1=CCCCC1,carroll11
1943,3-ethyl-1-hexene,274.0,1,C(C)C(C=C)CCC,carroll11
1944,4-methyl-1-heptene,275.0,1,CC(CC=C)CCC,carroll11
1945,2-methyl-1-heptene,283.0,1,CC(=C)CCCCC,carroll11
1946,2-methyl-2-heptene,282.0,1,CC(C)=CCCCC,carroll11
1947,allylcyclopentane,285.0,1,C(C=C)C1CCCC1,carroll11
1948,vinylcyclohexane,294.0,1,C(=C)C1CCCCC1,carroll11
1949,7-methyl-1-octene,291.0,1,CC(CCCCC=C)C,carroll11
1950,2-carene,311.0,1,C12C=C(CCC1C2(C)C)C,carroll11
1951,isoprene,225.0,1,C=CC(C)=C,carroll11
1952,"2,3-dimethyl-1,3-butadiene",251.0,1,CC(=C)C(=C)C,carroll11
1953,"4-methyl-1,3-pentadiene",255.0,1,CC(=CC=C)C,carroll11
1954,"1,6-heptadiene",263.0,1,C=CCCCC=C,carroll11
1955,"1,7-octadiene",278.0,1,C=CCCCCC=C,carroll11
1956,"2,5-dimethyl-2,4-hexadiene",297.0,1,CC(C)=CC=C(C)C,carroll11
1957,"1,8-nonadiene",299.0,1,C=CCCCCCC=C,carroll11
1958,"1,3-cyclohexadiene",257.0,1,C1=CC=CCC1,carroll11
1959,"1,4-cyclohexadiene",262.0,1,C1=CCC=CC1,carroll11
1960,4-vinyl-1-cyclohexene,289.0,1,C(=C)C1CC=CCC1,carroll11
1961,"1,5-cyclooctadiene",308.0,1,C1=CCCC=CCC1,carroll11
1962,"2,5-norbornadiene",262.0,1,C12C=CC(C=C1)C2,carroll11
1963,5-ethylidene-2-norbornene,302.0,1,C(C)=C1C2C=CC(C1)C2,carroll11
1964,"1,3,5,7-cyclooctatetraene",295.0,1,C1=CC=CC=CC=C1,carroll11
1965,1-pentyne,239.0,1,C#CCCC,carroll11
1966,1-hexyne,253.0,1,C#CCCCC,carroll11
1967,1-heptyne,271.0,1,C#CCCCCC,carroll11
1968,1-octyne,289.0,1,C#CCCCCCC,carroll11
1969,1-nonyne,306.0,1,C#CCCCCCCC,carroll11
1970,1-decyne,321.0,1,C#CCCCCCCCC,carroll11
1971,1-undecyne,338.0,1,C#CCCCCCCCCC,carroll11
1972,1-dodecyne,352.0,1,C#CCCCCCCCCCC,carroll11
1973,1-tridecyne,366.0,1,C#CCCCCCCCCCCC,carroll11
1974,2-pentyne,243.0,1,CC#CCC,carroll11
1975,2-hexyne,263.0,1,CC#CCCC,carroll11
1976,2-heptyne,281.0,1,CC#CCCCC,carroll11
1977,2-octyne,297.0,1,CC#CCCCCC,carroll11
1978,2-nonyne,312.0,1,CC#CCCCCCC,carroll11
1979,2-decyne,326.0,1,CC#CCCCCCCC,carroll11
1980,2-dodecyne,351.0,1,CC#CCCCCCCCCC,carroll11
1981,3-hexyne,259.0,1,CCC#CCC,carroll11
1982,3-heptyne,278.0,1,CCC#CCCC,carroll11
1983,3-nonyne,311.0,1,CCC#CCCCCC,carroll11
1984,4-nonyne,308.0,1,CCCC#CCCCC,carroll11
1985,4-octyne,291.0,1,CCCC#CCCC,carroll11
1986,3-decyne,325.0,1,CCC#CCCCCCC,carroll11
1987,4-decyne,325.0,1,CCCC#CCCCCC,carroll11
1988,4-undecyne,339.0,1,CCCC#CCCCCCC,carroll11
1989,5-undecyne,339.0,1,CCCCC#CCCCCC,carroll11
1990,"3,3-dimethyl-1-butyne",239.0,1,CC(C#C)(C)C,carroll11
1991,4-methyl-1-pentyne,249.0,1,CC(CC#C)C,carroll11
1992,"4,4-dimethyl-2-pentyne",263.0,1,CC(C#CC)(C)C,carroll11
1993,5-methyl-1-hexyne,266.0,1,CC(CCC#C)C,carroll11
1994,"1,6-heptadiyne",282.0,1,C#CCCCC#C,carroll11
1995,"1,7-octadiyne",296.0,1,C#CCCCCC#C,carroll11
1996,"1,8-nonadiyne",315.0,1,C#CCCCCCC#C,carroll11
1997,benzene,262.0,1,C1=CC=CC=C1,carroll11
1998,toluene,280.0,1,CC1=CC=CC=C1,carroll11
1999,ethylbenzene,294.0,1,C(C)C1=CC=CC=C1,carroll11
2000,propylbenzene,303.0,1,C(CC)C1=CC=CC=C1,carroll11
2001,butylbenzene,323.0,1,C(CCC)C1=CC=CC=C1,carroll11
2002,pentylbenzene,339.0,1,C(CCCC)C1=CC=CC=C1,carroll11
2003,hexylbenzene,356.0,1,C(CCCCC)C1=CC=CC=C1,carroll11
2004,heptylbenzene,368.0,1,C(CCCCCC)C1=CC=CC=C1,carroll11
2005,octylbenzene,380.0,1,C(CCCCCCC)C1=CC=CC=C1,carroll11
2006,nonylbenzene,390.0,1,C(CCCCCCCC)C1=CC=CC=C1,carroll11
2007,undecylbenzene,417.0,1,C(CCCCCCCCCC)C1=CC=CC=C1,carroll11
2008,p-xylene,298.0,1,C1(=CC=C(C=C1)C)C,carroll11
2009,m-xylene,298.0,1,C1(=CC(=CC=C1)C)C,carroll11
2010,o-xylene,303.0,1,C=1(C(=CC=CC1)C)C,carroll11
2011,cumene,304.0,1,C1(=CC=CC=C1)C(C)C,carroll11
2012,p-ethyltoluene,309.0,1,C(C)C1=CC=C(C)C=C1,carroll11
2013,m-ethyltoluene,311.0,1,C(C)C=1C=C(C)C=CC1,carroll11
2014,o-ethyltoluene,312.0,1,C(C)C1=C(C)C=CC=C1,carroll11
2015,"1,3,5-trimethylbenzene",317.0,1,CC1=CC(=CC(=C1)C)C,carroll11
2016,"1,2,4-trimethylbenzene",319.0,1,CC1=C(C=C(C=C1)C)C,carroll11
2017,tert-butylbenzene,317.0,1,C(C)(C)(C)C1=CC=CC=C1,carroll11
2018,isobutylbenzene,323.0,1,C(C(C)C)C1=CC=CC=C1,carroll11
2019,m-isopropyltoluene,320.0,1,C(C)(C)C=1C=C(C)C=CC1,carroll11
2020,"1,2,3-trimethylbenzene",324.0,1,CC1=C(C(=CC=C1)C)C,carroll11
2021,p-isopropyltoluene,320.0,1,C(C)(C)C1=CC=C(C)C=C1,carroll11
2022,o-isopropyltoluene,323.0,1,C(C)(C)C1=C(C)C=CC=C1,carroll11
2023,m-diethylbenzene,324.0,1,C(C)C1=CC(=CC=C1)CC,carroll11
2024,m-propyltoluene,325.0,1,C(CC)C=1C=C(C)C=CC1,carroll11
2025,p-diethylbenzene,328.0,1,C(C)C1=CC=C(C=C1)CC,carroll11
2026,o-diethylbenzene,328.0,1,C(C)C1=C(C=CC=C1)CC,carroll11
2027,neopentylbenzene,323.0,1,C(C(C)(C)C)C1=CC=CC=C1,carroll11
2028,"2-ethyl-1,4-dimethylbenzene",329.0,1,C(C)C1=C(C=CC(=C1)C)C,carroll11
2029,"1-ethyl-2,4-dimethylbenzene",330.0,1,C(C)C1=C(C=C(C=C1)C)C,carroll11
2030,"4-ethyl-1,2-dimethylbenzene",331.0,1,C(C)C1=CC(=C(C=C1)C)C,carroll11
2031,1-ethyl-3-isopropylbenzene,336.0,1,C(C)C1=CC(=CC=C1)C(C)C,carroll11
2032,"1-ethyl-2,3-dimethylbenzene",338.0,1,C(C)C1=C(C(=CC=C1)C)C,carroll11
2033,1-phenyl-2-methylbutane,337.0,1,C1(=CC=CC=C1)CC(CC)C,carroll11
2034,isopentylbenzene,335.0,1,C(CC(C)C)C1=CC=CC=C1,carroll11
2035,"1,2,3,5-tetramethylbenzene",336.0,1,CC1=C(C(=CC(=C1)C)C)C,carroll11
2036,"1,3-diisopropylbenzene",349.0,1,C(C)(C)C1=CC(=CC=C1)C(C)C,carroll11
2037,"1,2,3,4-tetramethylbenzene",341.0,1,CC1=C(C(=C(C=C1)C)C)C,carroll11
2038,2-phenyl-2-methylbutane,332.0,1,C1(=CC=CC=C1)C(C)(CC)C,carroll11
2039,"1,2-dimethyl-3-propylbenzene",345.0,1,CC1=C(C(=CC=C1)CCC)C,carroll11
2040,"1,4-diisopropylbenzene",349.0,1,C(C)(C)C1=CC=C(C=C1)C(C)C,carroll11
2041,"1,2,3,4-tetrahydronaphthalene",344.0,1,C1CCCC2=CC=CC=C12,carroll11
2042,cyclohexylbenzene,371.0,1,C1(CCCCC1)C1=CC=CC=C1,carroll11
2043,(1-methylheptyl)benzene,373.0,1,CC(CCCCCC)C1=CC=CC=C1,carroll11
2044,diphenylmethane,400.0,1,C1(=CC=CC=C1)CC1=CC=CC=C1,carroll11
2045,ethylformate,254.0,1,C(C)OC=O,carroll11
2046,propylformate,270.0,1,C(CC)OC=O,carroll11
2047,butylformate,291.0,1,C(CCC)OC=O,carroll11
2048,pentylformate,299.0,1,C(CCCC)OC=O,carroll11
2049,hexylformate,317.0,1,C(CCCCC)OC=O,carroll11
2050,heptylformate,333.0,1,C(CCCCCC)OC=O,carroll11
2051,octylformate,342.0,1,C(CCCCCCC)OC=O,carroll11
2052,nonylformate,361.0,1,C(CCCCCCCC)OC=O,carroll11
2053,decylformate,373.0,1,C(CCCCCCCCC)OC=O,carroll11
2054,isopropylformate,259.0,1,C(C)(C)OC=O,carroll11
2055,tert-butylformate,264.0,1,C(C)(C)(C)OC=O,carroll11
2056,isopentylformate,295.0,1,C(CC(C)C)OC=O,carroll11
2057,isobutylformate,277.0,1,C(C(C)C)OC=O,carroll11
2058,cyclohexylformate,324.0,1,C1(CCCCC1)C(=O)[O-],carroll11
2059,methylacetate,260.0,1,COC(C)=O,carroll11
2060,ethylacetate,269.0,1,C(C)OC(C)=O,carroll11
2061,propylacetate,283.0,1,C(CC)OC(C)=O,carroll11
2062,butylacetate,298.0,1,C(CCC)OC(C)=O,carroll11
2063,pentylacetate,312.0,1,C(CCCC)OC(C)=O,carroll11
2064,hexylacetate,328.0,1,C(CCCCC)OC(C)=O,carroll11
2065,heptylacetate,340.0,1,C(CCCCCC)OC(C)=O,carroll11
2066,octylacetate,355.0,1,C(CCCCCCC)OC(C)=O,carroll11
2067,nonylacetate,364.0,1,C(CCCCCCCC)OC(C)=O,carroll11
2068,decylacetate,377.0,1,C(CCCCCCCCC)OC(C)=O,carroll11
2069,undecylacetate,384.0,1,C(CCCCCCCCCC)OC(C)=O,carroll11
2070,dodecylacetate,393.0,1,C(CCCCCCCCCCC)OC(C)=O,carroll11
2071,isopropylacetate,275.0,1,C(C)(C)OC(C)=O,carroll11
2072,tert-butylacetate,277.0,1,C(C)(C)(C)OC(C)=O,carroll11
2073,sec-butylacetate,289.0,1,C(C)(CC)OC(C)=O,carroll11
2074,isobutylacetate,291.0,1,C(C(C)C)OC(C)=O,carroll11
2075,2-pentylacetate,305.0,1,C(CCCC)CC(=O)[O-],carroll11
2076,isopentylacetate,309.0,1,C(CC(C)C)OC(C)=O,carroll11
2077,tert-pentylacetate,298.0,1,C(C)(C)(CC)OC(C)=O,carroll11
2078,cyclohexylacetate,331.0,1,C1(CCCCC1)CC(=O)[O-],carroll11
2079,cyclodecylacetate,379.0,1,C1(CCCCCCCCC1)CC(=O)[O-],carroll11
2080,methylpropanoate,271.0,1,COC(CC)=O,carroll11
2081,ethylpropanoate,285.0,1,C(C)OC(CC)=O,carroll11
2082,tert-butylpropanoate,293.0,1,C(C)(C)(C)OC(CC)=O,carroll11
2083,propylpropanoate,295.0,1,C(CC)OC(CC)=O,carroll11
2084,butylpropanoate,311.0,1,C(CCC)OC(CC)=O,carroll11
2085,isopentylpropanoate,319.0,1,C(CC(C)C)OC(CC)=O,carroll11
2086,pentylpropanoate,326.0,1,C(CCCC)OC(CC)=O,carroll11
2087,hexylpropanoate,338.0,1,C(CCCCC)OC(CC)=O,carroll11
2088,cyclohexylpropanoate,341.0,1,C1(CCCCC1)OC(CC)=O,carroll11
2089,ethylbutanoate,293.0,1,C(C)OC(CCC)=O,carroll11
2090,isopropylbutanoate,297.0,1,C(C)(C)OC(CCC)=O,carroll11
2091,propylbutanoate,308.0,1,C(CC)OC(CCC)=O,carroll11
2092,isobutylbutanoate,319.0,1,C(C(C)C)OC(CCC)=O,carroll11
2093,butylbutanoate,322.0,1,C(CCC)OC(CCC)=O,carroll11
2094,isopentylbutanoate,332.0,1,C(CC(C)C)OC(CCC)=O,carroll11
2095,methylpentanoate,295.0,1,COC(CCCC)=O,carroll11
2096,ethylpentanoate,308.0,1,C(C)OC(CCCC)=O,carroll11
2097,methylhexanoate,314.0,1,COC(CCCCC)=O,carroll11
2098,methylheptanoate,325.0,1,COC(CCCCCC)=O,carroll11
2099,methyloctanoate,342.0,1,COC(CCCCCCC)=O,carroll11
2100,methyl2-methylpropanoate,276.0,1,COC(C(C)C)=O,carroll11
2101,ethyl2-methylpropanoate,286.0,1,C(C)OC(C(C)C)=O,carroll11
2102,methylcyclopropanecarboxylate,291.0,1,COC(=O)C1CC1,carroll11
2103,propyl2-methylpropanoate,303.0,1,C(CC)OC(C(C)C)=O,carroll11
2104,isobutyl2-methylpropanoate,311.0,1,C(C(C)C)OC(C(C)C)=O,carroll11
2105,methylcyclohexanecarboxylate,333.0,1,COC(=O)C1CCCCC1,carroll11
2106,4-methyl-4-vinylbutyrolactone,348.0,1,CC1(CCC(=O)O1)C=C,carroll11
2107,isopropylmethylether,226.0,1,C(C)(C)OC,carroll11
2108,diethylether,233.0,1,C(C)OCC,carroll11
2109,propyleneoxide,236.0,1,C1C(C)O1,carroll11
2110,tert-butylmethylether,245.0,1,C(C)(C)(C)OC,carroll11
2111,isobutylmethylether,244.0,1,C(C(C)C)OC,carroll11
2112,2-methoxybutane,244.0,1,COC(C)CC,carroll11
2113,ethylpropylether,248.0,1,C(C)OCCC,carroll11
2114,tetrahydrofuran,252.0,1,O1CCCC1,carroll11
2115,diisopropylether,245.0,1,C(C)(C)OC(C)C,carroll11
2116,butylmethylether,263.0,1,C(CCC)OC,carroll11
2117,2-methyltetrahydrofuran,261.0,1,CC1OCCC1,carroll11
2118,methyltert-pentylether,266.0,1,COC(C)(C)CC,carroll11
2119,butylethylether,268.0,1,C(CCC)OCC,carroll11
2120,cyclopentylmethylether,272.0,1,C1(CCCC1)OC,carroll11
2121,di-sec-butylether,288.0,1,C(C)(CC)OC(C)CC,carroll11
2122,cyclohexeneoxide,297.0,1,C12C(CCCC1)O2,carroll11
2123,cyclohexylmethylether,294.0,1,C1(CCCCC1)OC,carroll11
2124,dibutylether,298.0,1,C(CCC)OCCCC,carroll11
2125,diisopentylether,319.0,1,C(CC(C)C)OCCC(C)C,carroll11
2126,dipentylether,330.0,1,C(CCCC)OCCCCC,carroll11
2127,diethoxymethane,268.0,1,C(C)OCOCC,carroll11
2128,"1,1-dimethoxyethane",256.0,1,COC(C)OC,carroll11
2129,"1,2-dimethoxyethane",271.0,1,COCCOC,carroll11
2130,isopropylglycidylether,306.0,1,C(C)(C)OCC1CO1,carroll11
2131,triethoxymethane,308.0,1,C(C)OC(OCC)OCC,carroll11
2132,"1,3-dioxolane",267.0,1,O1COCC1,carroll11
2133,"2-methyl-1,3-dioxolane",271.0,1,CC1OCCO1,carroll11
2134,"1,4-dioxane",284.0,1,O1CCOCC1,carroll11
2135,propanal,246.0,1,C(CC)=O,carroll11
2136,butanal,266.0,1,C(CCC)=O,carroll11
2137,pentanal,281.0,1,C(CCCC)=O,carroll11
2138,hexanal,298.0,1,C(CCCCC)=O,carroll11
2139,heptanal,313.0,1,C(CCCCCC)=O,carroll11
2140,octanal,324.0,1,C(CCCCCCC)=O,carroll11
2141,nonanal,336.0,1,C(CCCCCCCC)=O,carroll11
2142,decanal,356.0,1,C(CCCCCCCCC)=O,carroll11
2143,undecanal,368.0,1,C(CCCCCCCCCC)=O,carroll11
2144,dodecanal,375.0,1,C(CCCCCCCCCCC)=O,carroll11
2145,2-methylpropanal,254.0,1,CC(C=O)C,carroll11
2146,acetone,253.0,1,CC(=O)C,carroll11
2147,2-butanone,266.0,1,CC(CC)=O,carroll11
2148,2-heptanone,312.0,1,CC(CCCCC)=O,carroll11
2149,2-octanone,329.0,1,CC(CCCCCC)=O,carroll11
2150,2-nonanone,341.0,1,CC(CCCCCCC)=O,carroll11
2151,2-decanone,358.0,1,CC(CCCCCCCC)=O,carroll11
2152,2-undecanone,362.0,1,CC(CCCCCCCCC)=O,carroll11
2153,2-dodecanone,381.0,1,CC(CCCCCCCCCC)=O,carroll11
2154,3-pentanone,280.0,1,CCC(CC)=O,carroll11
2155,3-hexanone,296.0,1,CCC(CCC)=O,carroll11
2156,3-heptanone,311.0,1,CCC(CCCC)=O,carroll11
2157,3-octanone,324.0,1,CCC(CCCCC)=O,carroll11
2158,3-nonanone,336.0,1,CCC(CCCCCC)=O,carroll11
2159,3-undecanone,362.0,1,CCC(CCCCCCCC)=O,carroll11
2160,3-methyl-2-butanone,272.0,1,CC(C(C)=O)C,carroll11
2161,cyclobutanone,283.0,1,C1(CCC1)=O,carroll11
2162,pinacolone,278.0,1,CC(C(C)(C)C)=O,carroll11
2163,cyclopropylmethylketone,286.0,1,C1(CC1)C(=O)C,carroll11
2164,2-methyl-3-pentanone,289.0,1,CC(C)C(CC)=O,carroll11
2165,4-methyl-2-pentanone,287.0,1,CC(CC(C)=O)C,carroll11
2166,2-ethylbutanal,294.0,1,C(C)C(C=O)CC,carroll11
2167,3-methyl-2-pentanone,285.0,1,CC(C(C)=O)CC,carroll11
2168,cyclopentanone,299.0,1,C1(CCCC1)=O,carroll11
2169,3-ethylcyclopentanone,319.0,1,C(C)C1CC(CC1)=O,carroll11
2170,"trans-3,4-dimethylcyclopentanone",314.0,1,C[C@@H]1CC(C[C@H]1C)=O,carroll11
2171,2-butylcyclopentanone,341.0,1,C(CCC)C1C(CCC1)=O,carroll11
2172,3-methylcyclopentanone,307.0,1,CC1CC(CC1)=O,carroll11
2173,2-methylcyclopentanone,299.0,1,CC1C(CCC1)=O,carroll11
2174,2-pentylcyclopentanone,351.0,1,C(CCCC)C1C(CCC1)=O,carroll11
2175,"trans-2,4-dimethylcyclopentanone",315.0,1,C[C@@H]1C(C[C@H](C1)C)=O,carroll11
2176,"2,2-dimethylcyclopentanone",306.0,1,CC1(C(CCC1)=O)C,carroll11
2177,2-cyclopentylcyclopentanone,363.0,1,C1(CCCC1)C1C(CCC1)=O,carroll11
2178,"2,4,4-trimethylcyclopentanone",316.0,1,CC1C(CC(C1)(C)C)=O,carroll11
2179,3-tert-butylcyclopentanone,337.0,1,C(C)(C)(C)C1CC(CC1)=O,carroll11
2180,cyclopentanecarboxaldehyde,301.0,1,C1(CCCC1)C=O,carroll11
2181,5-methyl-2-hexanone,309.0,1,CC(CCC(C)=O)C,carroll11
2182,cyclohexanone,316.0,1,C1(CCCCC1)=O,carroll11
2183,2-methoxycyclohexanone,342.0,1,COC1C(CCCC1)=O,carroll11
2184,3-methylcyclohexanone,321.0,1,CC1CC(CCC1)=O,carroll11
2185,2-ethylcyclohexanone,332.0,1,C(C)C1C(CCCC1)=O,carroll11
2186,2-isopropylcyclohexanone,338.0,1,C(C)(C)C1C(CCCC1)=O,carroll11
2187,2-methylcyclohexanone,319.0,1,CC1C(CCCC1)=O,carroll11
2188,4-methylcyclohexanone,321.0,1,CC1CCC(CC1)=O,carroll11
2189,4-ethylcyclohexanone,336.0,1,C(C)C1CCC(CC1)=O,carroll11
2190,4-propylcyclohexanone,359.0,1,C(CC)C1CCC(CC1)=O,carroll11
2191,4-isopropylcyclohexanone,338.0,1,C(C)(C)C1CCC(CC1)=O,carroll11
2192,5-methyl-3-heptanone,316.0,1,CC(CC(CC)=O)CC,carroll11
2193,cyclohexanecarboxaldehyde,314.0,1,C1(CCCCC1)C=O,carroll11
2194,2-ethylhexanal,319.0,1,C(C)C(C=O)CCCC,carroll11
2195,4-octanone,318.0,1,CCCC(CCCC)=O,carroll11
2196,4-nonanone,335.0,1,CCCC(CCCCC)=O,carroll11
2197,4-decanone,344.0,1,CCCC(CCCCCC)=O,carroll11
2198,4-undecanone,365.0,1,CCCC(CCCCCCC)=O,carroll11
2199,diisobutylketone,322.0,1,C(C(C)C)C(=O)CC(C)C,carroll11
2200,cycloheptanone,329.0,1,C1(CCCCCC1)=O,carroll11
2201,2-ethylcycloheptanone,344.0,1,C(C)C1C(CCCCC1)=O,carroll11
2202,5-methylcyclooctanone,344.0,1,CC1CCCC(CCC1)=O,carroll11
2203,2-methylcyclooctanone,344.0,1,CC1C(CCCCCC1)=O,carroll11
2204,5-nonanone,333.0,1,CCCCC(CCCC)=O,carroll11
2205,2-tert-butylcyclohexanone,345.0,1,C(C)(C)(C)C1C(CCCC1)=O,carroll11
2206,"3,3,5,5-tetramethylcyclohexanone",346.0,1,CC1(CC(CC(C1)(C)C)=O)C,carroll11
2207,6-undecanone,361.0,1,CCCCCC(CCCCC)=O,carroll11
2208,dimethylcarbonate,287.0,1,COC(OC)=O,carroll11
2209,diethylcarbonate,306.0,1,C(C)OC(OCC)=O,carroll11
2210,dipropylcarbonate,328.0,1,C(CC)OC(OCCC)=O,carroll11
2211,allylethylcarbonate,319.0,1,C(C=C)CCOC([O-])=O,carroll11
2212,ethanol,285.0,1,C(C)O,carroll11
2213,1-propanol,296.0,1,C(CC)O,carroll11
2214,1-butanol,307.0,1,C(CCC)O,carroll11
2215,1-pentanol,322.0,1,C(CCCC)O,carroll11
2216,1-hexanol,332.0,1,C(CCCCC)O,carroll11
2217,1-heptanol,343.0,1,C(CCCCCC)O,carroll11
2218,1-nonanol,371.0,1,C(CCCCCCCC)O,carroll11
2219,1-decanol,381.0,1,C(CCCCCCCCC)O,carroll11
2220,1-dodecanol,400.0,1,C(CCCCCCCCCCC)O,carroll11
2221,1-undecanol,388.0,1,C(CCCCCCCCCC)O,carroll11
2222,2-propanol,285.0,1,CC(C)O,carroll11
2223,2-butanol,297.0,1,CC(CC)O,carroll11
2224,2-pentanol,307.0,1,CC(CCC)O,carroll11
2225,2-hexanol,319.0,1,CC(CCCC)O,carroll11
2226,2-heptanol,332.0,1,CC(CCCCC)O,carroll11
2227,2-octanol,345.0,1,CC(CCCCCC)O,carroll11
2228,2-nonanol,355.0,1,CC(CCCCCCC)O,carroll11
2229,2-decanol,358.0,1,CC(CCCCCCCC)O,carroll11
2230,2-undecanol,380.0,1,CC(CCCCCCCCC)O,carroll11
2231,2-dodecanol,386.0,1,CC(CCCCCCCCCC)O,carroll11
2232,3-pentanol,306.0,1,CCC(CC)O,carroll11
2233,3-hexanol,318.0,1,CCC(CCC)O,carroll11
2234,3-heptanol,328.0,1,CCC(CCCC)O,carroll11
2235,3-nonanol,352.0,1,CCC(CCCCCC)O,carroll11
2236,3-decanol,372.0,1,CCC(CCCCCCC)O,carroll11
2237,3-octanol,341.0,1,CCC(CCCCC)O,carroll11
2238,tert-butylalcohol,284.0,1,C(C)(C)(C)O,carroll11
2239,2-methyl-2-butanol,294.0,1,CC(C)(CC)O,carroll11
2240,allylalcohol,295.0,1,C(C=C)O,carroll11
2241,2-methyl-1-propanol,301.0,1,CC(CO)C,carroll11
2242,3-methyl-2-butanol,300.0,1,CC(C(C)O)C,carroll11
2243,2-methyl-3-pentanol,319.0,1,CC(C)C(CC)O,carroll11
2244,2-methyl-1-butanol,316.0,1,CC(CO)CC,carroll11
2245,3-methyl-1-butanol,316.0,1,CC(CCO)C,carroll11
2246,4-methyl-2-pentanol,314.0,1,CC(CC(C)O)C,carroll11