smiles,compound,flashpoint,source,pure substance
CCCCC(C)CCCC,5-methylnonane,312.0,Saldana11,1
CC(C)C,isobutane,190.0,Saldana11,1
CCCC(C)C,isohexane,250.0,Saldana11,1
CCC(C)C,isopentane,217.0,Saldana11,1
CCCCCCCCCC,n-decane,319.0,Saldana11,1
CCCCCCCCCCCC,n-dodecane,347.0,Saldana11,1
CCCCCCCCCCCCCCCCC,n-heptadecane,421.0,Saldana11,1
CCCCCCC,n-heptane,269.0,Saldana11,1
CCCCCCCCCCCCCCCC,n-hexadecane,408.0,Saldana11,1
CCCCCC,n-hexane,252.0,Saldana11,1
CCCCCCCCCCCCCCCCCCC,n-nonadecane,441.0,Saldana11,1
CCCCCCCCC,n-nonane,304.0,Saldana11,1
CCCCCCCCCCCCCCCCCC,n-octadecane,438.0,Saldana11,1
CCCCCCCC,n-octane,286.0,Saldana11,1
CCCCCCCCCCCCCCC,n-pentadecane,388.0,Saldana11,1
CCCCC,n-pentane,233.0,Saldana11,1
CCCCCCCCCCCCCC,n-tetradecane,373.0,Saldana11,1
CCCCCCCCCCCCC,n-tridecane,352.0,Saldana11,1
CCCCCCCCCCC,n-undecane,338.0,Saldana11,1
C=CC[Ge](Cl)(Cl)Cl,ALLYLTRICHLOROGERMANE,328.15,gelest_germanium,1
C=CC[Ge](CC)(CC)CC,ALLYLTRIETHYLGERMANE,321.15,gelest_germanium,1
C=CC[Ge](C)(C)C,ALLYLTRIMETHYLGERMANE,274.15,gelest_germanium,1
C[Ge](C)(CCl)CCl,BIS(CHLOROMETHYL)DIMETHYLGERMANE,324.15,gelest_germanium,1
CC(C)(C)[Ge](C)(C)Cl,t-BUTYLDIMETHYLCHLOROGERMANE,307.15,gelest_germanium,1
CCCC[Ge](Cl)(Cl)Cl,n-BUTYLTRICHLOROGERMANE,355.15,gelest_germanium,1
CCCC[Ge](Cl)(Cl)CCCC,DI-n-BUTYLDICHLOROGERMANE,380.15,gelest_germanium,1
C[Ge](C)(C)C(Cl)Cl,DICHLOROMETHYLTRIMETHYLGERMANE,306.15,gelest_germanium,1
CC[Ge](Cl)(Cl)CC,DIETHYLDICHLOROGERMANE,325.15,gelest_germanium,1
CN(C)[Ge](C)(C)C,DIMETHYLAMINOTRIMETHYLGERMANE,263.15,gelest_germanium,1
Cl[Ge](Cl)(c1ccccc1)c1ccccc1,DIPHENYLDICHLOROGERMANE,433.15,gelest_germanium,1
c1ccc([GeH2]c2ccccc2)cc1,DIPHENYLGERMANE,377.15,gelest_germanium,1
CC[Ge](Cl)(Cl)Cl,ETHYLTRICHLOROGERMANE,324.15,gelest_germanium,1
C[Ge](C)(C)[Ge](C)(C)C,HEXAMETHYLDIGERMANE,287.15,gelest_germanium,1
C=C(C)C(=O)OC[Ge](C)(C)C,METHACRYLOXYMETHYLTRIMETHYLGERMANE,336.15,gelest_germanium,1
C[Ge](Cl)(Cl)Cl,METHYLTRICHLOROGERMANE,283.15,gelest_germanium,1
CCO[Ge](C)(OCC)OCC,METHYLTRIETHOXYGERMANE,313.15,gelest_germanium,1
C=CC[Ge](CC=C)(CC=C)CC=C,TETRAALLYLGERMANE,343.15,gelest_germanium,1
CCCCO[Ge](OCCCC)(OCCCC)OCCCC,TETRA-n-BUTOXYGERMANE,385.15,gelest_germanium,1
CCCC[Ge](CCCC)(CCCC)CCCC,TETRA-n-BUTYLGERMANE,363.15,gelest_germanium,1
CCO[Ge](OCC)(OCC)OCC,TETRAETHOXYGERMANE,335.15,gelest_germanium,1
CC[Ge](CC)(CC)CC,TETRAETHYLGERMANE,315.15,gelest_germanium,1
CN(C)[Ge](N(C)C)(N(C)C)N(C)C,TETRAKIS(DIMETHYLAMINO)GERMANE,307.15,gelest_germanium,1
CC(C)O[Ge](OC(C)C)(OC(C)C)OC(C)C,TETRAISOPROPOXYGERMANE,341.15,gelest_germanium,1
CO[Ge](OC)(OC)OC,TETRAMETHOXYGERMANE,307.15,gelest_germanium,1
C[Ge](C)(C)C,TETRAMETHYLGERMANE,254.15,gelest_germanium,1
CCCC[Ge](Cl)(CCCC)CCCC,TRI-n-BUTYLCHLOROGERMANE,367.15,gelest_germanium,1
CCCC[GeH](CCCC)CCCC,TRI-n-BUTYLGERMANE,351.15,gelest_germanium,1
Cl[GeH](Cl)Cl,TRICHLOROGERMANE,285.15,gelest_germanium,1
CC[Ge](Cl)(CC)CC,TRIETHYLCHLOROGERMANE,311.15,gelest_germanium,1
CC[GeH](CC)CC,TRIETHYLGERMANE,278.15,gelest_germanium,1
CC(C)[Ge](Cl)(C(C)C)C(C)C,TRIISOPROPYLCHLOROGERMANE,339.15,gelest_germanium,1
C[Ge](C)(C)Br,TRIMETHYLBROMOGERMANE,310.15,gelest_germanium,1
C[Ge](C)(C)Cl,TRIMETHYLCHLOROGERMANE,274.15,gelest_germanium,1
C=C[Ge](CC)(CC)CC,VINYLTRIETHYLGERMANE,305.15,gelest_germanium,1
CC(C)[O-].CC(C)[O-].CCOC(=O)CC(C)=O.[Al+2],ALUMINUM DIISOPROPOXIDE ETHYLACETOACETATE,323.15,gelest_metal-organics,1
CCCC[O-].CCCC[O-].CCCC[O-].[Sb+3],ANTIMONY(III) n-BUTOXIDE,341.15,gelest_metal-organics,1
CC[O-].CC[O-].CC[O-].[As+3],ARSENIC TRIETHOXIDE,322.15,gelest_metal-organics,1
C=CCOCC=C.[B],BORON ALLYLOXIDE,304.15,gelest_metal-organics,1
CCCC[O-].CCCC[O-].CCCC[O-].[B+3],BORON n-BUTOXIDE,366.15,gelest_metal-organics,1
CC[O-].CC[O-].CC[O-].[B+3],BORON ETHOXIDE,284.15,gelest_metal-organics,1
CC(C)[O-].CC(C)[O-].CC(C)[O-].[B+3],BORON ISOPROPOXIDE,301.15,gelest_metal-organics,1
C[O-].C[O-].C[O-].[B+3],BORON METHOXIDE,272.15,gelest_metal-organics,1
COC(C)[O-].COC(C)[O-].COC(C)[O-].[B+3],BORON METHOXYETHOXIDE,386.15,gelest_metal-organics,1
CCCCN(CCCC)C(=S)[S-].CCCCN(CCCC)C(=S)[S-].[Ni+2],NICKEL DI-n-BUTYLDITHIOCARBAMATE,533.15,gelest_metal-organics,1
CCCC[O-].CCCC[O-].CCCC[O-].CCCC[O-].CCCC[O-].[Nb+5],NIOBIUM(V) n-BUTOXIDE,363.15,gelest_metal-organics,1
CC[O-].CC[O-].CC[O-].CC[O-].CC[O-].[Nb+5],NIOBIUM(V) ETHOXIDE,347.15,gelest_metal-organics,1
CCCC[O-].CCCC[O-].CCCC[O-].CCCC[O-].CCCC[O-].[Ta+5],TANTALUM(V) n-BUTOXIDE,339.15,gelest_metal-organics,1
CC[O-].CC[O-].CC[O-].CC[O-].CC[O-].[Ta+5],TANTALUM(V) ETHOXIDE,313.15,gelest_metal-organics,1
CCCC[O-].CCCC[O-].CCCC[O-].CCCC[O-].[Ti+4],TITANIUM n-BUTOXIDE,349.15,gelest_metal-organics,1
CC(C)[O-].CC(C)[O-].CC(C)[O-].[Cl-].[Ti+4],TITANIUM CHLORIDE TRIISOPROPOXIDE,295.15,gelest_metal-organics,1
CC[O-].CC[O-].CC[O-].CC[O-].[Ti+4],TITANIUM ETHOXIDE,301.15,gelest_metal-organics,1
CC[O-].CC[O-].CC[O-].CC[O-].[Ti+4],TITANIUM ETHOXIDE,303.15,gelest_metal-organics,1
CC(C)[O-].CC(C)[O-].CCCC(=O)CC(=O)[O-].CCCC(=O)CC(=O)[O-].[Ti+4],TITANIUM DIISOPROPOXIDE BIS(ETHYLACETOACETATE),300.15,gelest_metal-organics,1
CC(C)C[O-].CC(C)C[O-].CC(C)C[O-].CC(C)C[O-].[Ti+4],TITANIUM ISOBUTOXIDE,350.15,gelest_metal-organics,1
CC(C)[O-].CC(C)[O-].CC(C)[O-].CC(C)[O-].[Ti+4],TITANIUM ISOPROPOXIDE,298.15,gelest_metal-organics,1
C[O-].C[O-].C[O-].C[O-].[Ti+4],TITANIUM METHOXIDE,321.15,gelest_metal-organics,1
Cc1ccccc1[O-].Cc1ccccc1[O-].Cc1ccccc1[O-].Cc1ccccc1[O-].[Ti+4],TITANIUM METHYLPHENOXIDE,339.15,gelest_metal-organics,1
CCC[O-].CCC[O-].CCC[O-].CCC[O-].[Ti+4],TITANIUM n-PROPOXIDE,318.15,gelest_metal-organics,1
CC(C)CCCCCCCCCCCCCCC(=O)C(C(=O)CCCCCCCCCCCCCCC(C)C)(C(=O)CCCCCCCCCCCCCCC(C)C)C(C)[O-].CC(C)CCCCCCCCCCCCCCC(=O)C(C(=O)CCCCCCCCCCCCCCC(C)C)(C(=O)CCCCCCCCCCCCCCC(C)C)C(C)[O-].CC(C)CCCCCCCCCCCCCCC(=O)C(C(=O)CCCCCCCCCCCCCCC(C)C)(C(=O)CCCCCCCCCCCCCCC(C)C)C(C)[O-].CC(C)CCCCCCCCCCCCCCC(=O)C(C(=O)CCCCCCCCCCCCCCC(C)C)(C(=O)CCCCCCCCCCCCCCC(C)C)C(C)[O-].[Ti+4],TITANIUM TRIISOSTEAROYLISOPROPOXIDE,366.15,gelest_metal-organics,1
CC(C)(C)[O-].CC(C)(C)[O-].CC(C)(C)[O-].CC(C)(C)[O-].[Zr+4],ZIRCONIUM t-BUTOXIDE,358.15,gelest_metal-organics,1
CCCCC(CC)C(=O)[O-].CCCCC(CC)C(=O)[O-].[Ca+2],CALCIUM 2-ETHYLHEXANOATE,400.15,gelest_metal-organics,1
CC(C)(C)CCCCCC(=O)[O-].[Ag+],SILVER NEODECANOATE,375.15,gelest_metal-organics,1
CCCCC(CC)C(=O)[O-].CCCCC(CC)C(=O)[O-].[Zn+2],ZINC 2-ETHYLHEXANOATE,400.15,gelest_metal-organics,1
CC(C)(C)CCCCCC(=O)[O-].CC(C)(C)CCCCCC(=O)[O-].[Zn+2],ZINC NEODECANOATE,375.15,gelest_metal-organics,1
Cl[Ti](Cl)(Cl)Cl,TITANIUM TETRACHLORIDE,377.15,gelest_metal-organics,1
C[Al](C)Cl,DIMETHYLALUMINUM CHLORIDE,255.15,gelest_metal-organics,1
CC(C)O[Al](C)C,DIMETHYLISOPROPOXYALUMINUM,278.15,gelest_metal-organics,1
C[Cd]C,DIMETHYLCADMIUM,255.15,gelest_metal-organics,1
C=C[c-]1cccc1.[Fe+2].c1cc[cH-]c1,VINYLFERROCENE,335.15,gelest_metal-organics,1
C[Ga](C)C,TRIMETHYLGALLIUM,272.15,gelest_metal-organics,1
CN(C)[Ga](N(C)C)N(C)C,TRIS(DIMETHYLAMINO)GALLIUM,329.15,gelest_metal-organics,1
CC[N-]C.CC[N-]C.CC[N-]C.CC[N-]C.[Hf+4],HAFNIUM TETRAKIS(ETHYLMETHYLAMIDE),283.15,gelest_metal-organics,1
C1CCC(PC2CCCCC2)CC1,DICYCLOHEXYLPHOSPHINE,383.15,gelest_metal-organics,1
CCOP([O-])OCC,DIETHYLPHOSPHITE,363.15,gelest_metal-organics,1
c1ccc(Pc2ccccc2)cc1,DIPHENYLPHOSPHINE,383.15,gelest_metal-organics,1
[N-]=[N+]=NP(=O)(c1ccccc1)c1ccccc1,DIPHENYLPHOSPHORYL AZIDE,385.15,gelest_metal-organics,1
CCCCCCCCCCCCCC[P+](CCCCCC)(CCCCCC)CCCCCC.[Cl-],TETRADECYL(TRIHEXYL)PHOSPHONIUM CHLORIDE,391.15,gelest_metal-organics,1
CCOP(=O)(OCC)OCC,TRIETHYLPHOSPHATE,389.15,gelest_metal-organics,1
CCOP(OCC)OCC,TRIETHYLPHOSPHITE,327.15,gelest_metal-organics,1
COP(OC)OC,TRIMETHYLPHOSPHITE,300.15,gelest_metal-organics,1
CCCCCCCCP(CCCCCCCC)CCCCCCCC,TRIOCTYLPHOSPHINE,420.15,gelest_metal-organics,1
c1ccc(P(c2ccccc2)c2ccccc2)cc1,TRIPHENYLPHOSPHINE,455.15,gelest_metal-organics,1
CCN(CC)[Ta](=NC(C)(C)C)(N(CC)CC)N(CC)CC,TRIS(DIETHYLAMINO)(t-BUTYLIMINO) TANTALUM,319.15,gelest_metal-organics,1
CC[N-]CC.CC[N-]CC.CC[N-]CC.CC[N-]CC.[Ti+4],TITANIUM TETRAKIS(DIETHYLAMIDE),310.15,gelest_metal-organics,1
C[N-]C.C[N-]C.C[N-]C.C[N-]C.[Ti+4],TITANIUM TETRAKIS(DIMETHYLAMIDE),281.15,gelest_metal-organics,1
CC[N-]C.CC[N-]C.CC[N-]C.CC[N-]C.[Ti+4],TITANIUM TETRAKIS(ETHYLMETHYLAMIDE),283.15,gelest_metal-organics,1
CC[N-]C.CC[N-]C.CC[N-]C.CC[N-]C.[Zr+4],ZIRCONIUM TETRAKIS(ETHYLMETHYLAMIDE),283.15,gelest_metal-organics,1
CC[Pb](CC)(CC)CC,TETRAETHYLLEAD,346.15,gelest_metal-organics,1
C[Si](C)(C)OB(O[Si](C)(C)C)O[Si](C)(C)C,TRIS(TRIMETHYLSILOXY)BORON,315.15,gelest_metal-organics,1
CC(=O)OCC[Si](C)(C)Cl,ACETOXYETHYLDIMETHYLCHLOROSILANE,336.15,gelest_silanes,1
CC(=O)OCC[Si](C)(Cl)Cl,ACETOXYETHYLMETHYLDICHLOROSILANE,338.15,gelest_silanes,1
CC(=O)OCC[Si](Cl)(Cl)Cl,ACETOXYETHYLTRICHLOROSILANE,355.15,gelest_silanes,1
CCO[Si](CCOC(C)=O)(OCC)OCC,ACETOXYETHYLTRIETHOXYSILANE,372.15,gelest_silanes,1
CC(=O)OC[Si](C)(C)C,ACETOXYMETHYLTRIMETHYLSILANE,293.15,gelest_silanes,1
CC(=O)OCCC[Si](C)(Cl)Cl,3-ACETOXYPROPYLMETHYLDICHLOROSILANE,358.15,gelest_silanes,1
CO[Si](CCCOC(C)=O)(OC)OC,3-ACETOXYPROPYLTRIMETHOXYSILANE,366.15,gelest_silanes,1
CC(=O)O[Si](C)(C)C,ACETOXYTRIMETHYLSILANE,277.15,gelest_silanes,1
CC(=O)[Si](C)(C)C,ACETYLTRIMETHYLSILANE,281.15,gelest_silanes,1
C=CC(=O)OC[Si](OC)(OC)OC,ACRYLOXYMETHYLTRIMETHOXYSILANE,335.15,gelest_silanes,1
C=CC(=O)OCCC[Si](C)(C)OC,(3-ACRYLOXYPROPYL)DIMETHYLMETHOXYSILANE,358.15,gelest_silanes,1
C=CC(=O)OCCC[Si](OC)(OC)OC,(3-ACRYLOXYPROPYL)TRIMETHOXYSILANE,396.15,gelest_silanes,1
C=CC(=O)OCCC[Si](O[Si](C)(C)C)(O[Si](C)(C)C)O[Si](C)(C)C,(3-ACRYLOXYPROPYL)TRIS(TRIMETHYLSILOXY)SILANE,366.15,gelest_silanes,1
C=CC(=O)O[Si](C)(C)C,ACRYLOXYTRIMETHYLSILANE,299.15,gelest_silanes,1
C=CCNCCC[Si](OC)(OC)OC,3-(N-ALLYLAMINO)PROPYLTRIMETHOXYSILANE,361.15,gelest_silanes,1
C=CCN[Si](C)(C)C,ALLYLAMINOTRIMETHYLSILANE,283.15,gelest_silanes,1
C=CC[Si](C)(C)CCl,ALLYL(CHLOROMETHYL)DIMETHYLSILANE,300.15,gelest_silanes,1
C=CC[Si](Cl)(Cl)CCCCl,ALLYL(3-CHLOROPROPYL)DICHLOROSILANE,349.15,gelest_silanes,1
C=CC[SiH](Cl)Cl,ALLYLDICHLOROSILANE,269.15,gelest_silanes,1
C=CC[Si](C)(C)N(C(C)C)C(C)C,ALLYLDIMETHYL(DIISOPROPYLAMINO)SILANE,335.15,gelest_silanes,1
C=CC[SiH](C)C,ALLYLDIMETHYLSILANE,253.15,gelest_silanes,1
C=CC[Si](C)(C)c1ccc(OC)cc1,ALLYL(4-METHOXYPHENYL)DIMETHYLSILANE,375.15,gelest_silanes,1
C=CCC[SiH](Cl)Cl,ALLYLMETHYLDICHLOROSILANE,300.15,gelest_silanes,1
C=CCO[Si](C)(C)C(C)(C)C,ALLYLOXY-t-BUTYLDIMETHYLSILANE,305.15,gelest_silanes,1
C=CCO[Si](C)(C)C,ALLYLOXYTRIMETHYLSILANE,273.15,gelest_silanes,1
C=CC[Si](Cl)(Cl)c1ccccc1,ALLYLPHENYLDICHLOROSILANE,349.15,gelest_silanes,1
C=CC[Si](Cl)(Cl)Cl,ALLYLTRICHLOROSILANE,304.15,gelest_silanes,1
C=CC[Si](OCC)(OCC)OCC,ALLYLTRIETHOXYSILANE,320.15,gelest_silanes,1
C=CC[Si](C(C)C)(C(C)C)C(C)C,ALLYLTRIISOPROPYLSILANE,349.15,gelest_silanes,1
C=CC[Si](OC)(OC)OC,ALLYLTRIMETHOXYSILANE,319.15,gelest_silanes,1
C=CC[Si](C)(C)C,ALLYLTRIMETHYLSILANE,280.15,gelest_silanes,1
C=CC[Si](O[Si](C)(C)C)(O[Si](C)(C)C)O[Si](C)(C)C,ALLYLTRIS(TRIMETHYLSILOXY)SILANE,340.15,gelest_silanes,1
CCO[Si](CCCCN)(OCC)OCC,4-AMINOBUTYLTRIETHOXYSILANE,382.15,gelest_silanes,1
CO[Si](C)(CCCNCCN)OC,N-(2-AMINOETHYL)-3-AMINOPROPYLMETHYLDIMETHOXYSILANE,363.15,gelest_silanes,1
CCO[Si](CCCNCCN)(OCC)OCC,N-(2-AMINOETHYL)-3-AMINOPROPYLTRIETHOXYSILANE,421.15,gelest_silanes,1
CO[Si](CCCNCCN)(OC)OC,N-(2-AMINOETHYL)-3-AMINOPROPYLTRIMETHOXYSILANE,423.15,gelest_silanes,1
C[Si](C)(C)CN,AMINOMETHYLTRIMETHYLSILANE,282.15,gelest_silanes,1
CO[Si](OC)(OC)c1cccc(N)c1,m-AMINOPHENYLTRIMETHOXYSILANE,453.15,gelest_silanes,1
CO[Si](OC)(OC)c1ccc(N)cc1,p-AMINOPHENYLTRIMETHOXYSILANE,453.15,gelest_silanes,1
CO[Si](OC)(OCN)c1ccccc1,AMINOPHENYLTRIMETHOXYSILANE,453.15,gelest_silanes,1
CCO[Si](C)(C)CCCN,3-AMINOPROPYLDIMETHYLETHOXYSILANE,346.15,gelest_silanes,1
CCO[Si](CCCN)(OCC)OCC,3-AMINOPROPYLTRIETHOXYSILANE,377.15,gelest_silanes,1
CO[Si](CCCN)(OC)OC,3-AMINOPROPYLTRIMETHOXYSILANE,356.15,gelest_silanes,1
C[Si](C)(C)CCCN,3-AMINOPROPYLTRIMETHYLSILANE,332.15,gelest_silanes,1
COCCOCCO[Si](CCCN)(OCCOCCOC)OCCOCCOC,3-AMINOPROPYLTRIS(METHOXYETHOXYETHOXY)SILANE,341.15,gelest_silanes,1
C[Si](C)(C)CN=[N+]=[N-],(AZIDOMETHYL)TRIMETHYLSILANE,279.15,gelest_silanes,1
CCO[Si](CCCCCCS(=O)(=O)N=[N+]=[N-])(OCC)OCC,6-AZIDOSULFONYLHEXYLTRIETHOXYSILANE,387.15,gelest_silanes,1
C[Si](C)(C)CNCc1ccccc1,N-BENZYLAMINOMETHYLTRIMETHYLSILANE,389.15,gelest_silanes,1
C[Si](C)(Cl)Cc1ccccc1,BENZYLDIMETHYLCHLOROSILANE,346.15,gelest_silanes,1
C[SiH](C)Cc1ccccc1,BENZYLDIMETHYLSILANE,338.15,gelest_silanes,1
COCN(Cc1ccccc1)C[Si](C)(C)C,N-BENZYL-N-METHOXYMETHYL-N-(TRIMETHYLSILYLMETHYL)AMINE,339.15,gelest_silanes,1
C=CC[Sn](CCCC)(CCCC)CCCC,ALLYLTRI-n-BUTYLTIN,376.15,gelest_tin,1
C[Si](C)(C)N([Sn]N([Si](C)(C)C)[Si](C)(C)C)[Si](C)(C)C,BIS[BIS(TRIMETHYLSILYL)AMINO]TIN(II),329.15,gelest_tin,1
CCCC[Sn](CCCC)(CCCC)C(C)(C)C,t-BUTYLTRI n-BUTYLTIN,375.15,gelest_tin,1
C[Sn](C)(C)CCl,CHLOROMETHYLTRIMETHYLTIN,312.15,gelest_tin,1
C=CC[Sn](CC=C)(CCCC)CCCC,DIALLYLDI-n-BUTYLTIN,374.15,gelest_tin,1
CCCC[Sn](CCCC)(OC(C)=O)OC(C)=O,DI-n-BUTYLDIACETOXYTIN,416.15,gelest_tin,1
CCCCO[Sn](CCCC)(CCCC)OCCCC,DI-n-BUTYLDI-n-BUTOXYTIN,389.15,gelest_tin,1
CCCC[Sn](Cl)(Cl)CCCC,DI-n-BUTYLDICHLOROTIN,441.15,gelest_tin,1
CC(C)(C)[Sn](Cl)(Cl)C(C)(C)C,DI-t-BUTYLDICHLOROTIN,386.15,gelest_tin,1
CCCC[Sn](CCCC)(OC)OC,DI-n-BUTYLDIMETHOXYTIN,383.15,gelest_tin,1
CCCC[Sn](CCCC)(CCCC)N(C)C,DIMETHYLAMINOTRI-n-BUTYLTIN,388.15,gelest_tin,1
CN(C)[Sn](C)(C)C,DIMETHYLAMINOTRIMETHYLTIN,274.15,gelest_tin,1
CCCCCCCC[Sn](Cl)(Cl)CCCCCCCC,DIOCTYLDICHLOROTIN,477.15,gelest_tin,1
CCCCCCCCCCCC[Sn](CCCCCCCC)(CCCCCCCC)CCCCCCCCCCCC,DIOCTYLDILAURYLTIN,471.15,gelest_tin,1
C=C[Sn](Cl)(Cl)C=C,DIVINYLDICHLOROTIN,477.15,gelest_tin,1
C=C(OCC)[Sn](CCCC)(CCCC)CCCC,1-ETHOXYVINYLTRI-n-BUTYLTIN,386.15,gelest_tin,1
C#C[Sn](CCCC)(CCCC)CCCC,ETHYNYLTRI-n-BUTYLTIN,346.15,gelest_tin,1
CCCC[Sn](C#Cc1ccccc1)(CCCC)CCCC,PHENYLETHYNYLTRI-n-BUTYLTIN,386.15,gelest_tin,1
CCCC[Sn](CCCC)(CCCC)c1ccccc1,PHENYLTRI-n-BUTYLTIN,380.15,gelest_tin,1
CCCC[Sn](CCCC)(CCCC)Sc1ccccc1,PHENYLTHIOTRI-n-BUTYLTIN,377.15,gelest_tin,1
C=CC[Sn](CC=C)(CC=C)CC=C,TETRAALLYLTIN,348.15,gelest_tin,1
CCCCCCCCCCCC[Sn](CCCC)(CCCCCCCCCCCC)O[Sn](CCCC)(CCCC)CCCC,TETRABUTYLDILAURYLDISTANNOXANE,504.15,gelest_tin,1
CCCC[Sn](CCCC)(CCCC)CCCC,TETRA-n-BUTYLTIN,274.15,gelest_tin,1
CCCC[Sn](CCCC)(CCCC)CCCC,TETRA-n-BUTYLTIN,380.15,gelest_tin,1
CC[Sn](CC)(CC)CC,TETRAETHYLTIN,326.15,gelest_tin,1
CCN(CC)[Sn](N(CC)CC)(N(CC)CC)N(CC)CC,TETRAKIS(DIETHYLAMINO)TIN,312.15,gelest_tin,1
C[Sn](C)(C)C,TETRAMETHYLTIN,261.15,gelest_tin,1
CCCCCCCC[Sn](CCCCCCCC)(CCCCCCCC)CCCCCCCC,TETRA-n-OCTYLTIN,367.15,gelest_tin,1
c1ccc([Sn](c2ccccc2)(c2ccccc2)c2ccccc2)cc1,TETRAPHENYLTIN,504.15,gelest_tin,1
C=C[Sn](C=C)(C=C)C=C,TETRAVINYLTIN,313.15,gelest_tin,1
CCCC[Sn](CCCC)(CCCC)c1cccs1,2-THIENYLTRI-n-BUTYLTIN,379.15,gelest_tin,1
CCCCC(CCCC)(CCCC)C(=O)O[Sn],TRI-n-BUTYLACETOXYTIN,393.15,gelest_tin,1
CCCC[Sn](Cl)(CCCC)CCCC,TRI-n-BUTYLCHLOROTIN,393.15,gelest_tin,1
CCCC[Sn](CCCC)(CCCC)OCC,TRI-n-BUTYLETHOXYTIN,377.15,gelest_tin,1
CCCC[Sn](I)(CCCC)CCCC,TRI-n-BUTYLIODOTIN,386.15,gelest_tin,1
CCCC[Sn](CCCC)(CCCC)OC,TRI-n-BUTYLMETHOXYTIN,371.15,gelest_tin,1
CCCC[SnH](CCCC)CCCC,TRI-n-BUTYLTIN HYDRIDE,313.15,gelest_tin,1
C1CCC([SnH](C2CCCCC2)C2CCCCC2)CC1,TRICYCLOHEXYLTIN HYDRIDE,378.15,gelest_tin,1
CC[Sn](Br)(CC)CC,TRIETHYLBROMOTIN,372.15,gelest_tin,1
C[Sn](C)(C)Cl,TRIMETHYLCHLOROTIN,370.15,gelest_tin,1
Cl[Sn](c1ccccc1)(c1ccccc1)c1ccccc1,TRIPHENYLCHLOROTIN,343.15,gelest_tin,1
CC=O,Acetaldehyde,235.14999999999998,hazardous materials,1
CC(=O)Nc1ccccc1,Acetanilide,447.15,hazardous materials,1
CC(=O)O,Acetic acid,316.15,hazardous materials,1
CC(=O)OC(C)=O,Acetic anhydride,327.15,hazardous materials,1
CC(C)=O,Acetone,255.14999999999998,hazardous materials,1
CC(C)(O)C#N,Acetone cyanohydrin,347.15,hazardous materials,1
CC#N,Acetonitrile,279.15,hazardous materials,1
CC(=O)Cl,Acetyl chloride,277.15,hazardous materials,1
CC(=O)OOC(C)=O,Acetyl peroxide,386.15,hazardous materials,1
C=CC=O,Acrolein,247.14999999999998,hazardous materials,1
C=CC(=O)O,Acrylic acid,325.15,hazardous materials,1
C=CC#N,Acrylonitrile,273.15,hazardous materials,1
O=C(O)CCCCC(=O)O,Adipic acid,464.15,hazardous materials,1
N#CCCCCC#N,Adiponitrile,366.15,hazardous materials,1
C=CCOC(C)=O,Allyl acetate,294.15,hazardous materials,1
C=CCO,Allyl alcohol,294.15,hazardous materials,1
C=CCN,Allyl amine,244.14999999999998,hazardous materials,1
C=CCBr,Allyl bromide,272.15,hazardous materials,1
C=CCCl,Allyl chloride,241.14999999999998,hazardous materials,1
C=CCOC(=O)Cl,Allyl chloroformate,304.15,hazardous materials,1
C=CCOCC1CO1,Allyl glycidyl ether,330.15,hazardous materials,1
NCCC(O)CN,Aminoethylethanol amine,402.15,hazardous materials,1
CC(=O)OCCC(C)C,iso-Amyl acetate,296.15,hazardous materials,1
CCCC(C)OC(C)=O,sec-Amyl acetate,305.15,hazardous materials,1
CC(C)CCO,iso-Amyl alcohol,316.15,hazardous materials,1
CCC(C)(C)O,tert-Amyl alcohol,292.15,hazardous materials,1
CCCCCN,Amylamine,280.15,hazardous materials,1
CC(C)CCOC=O,iso-Amyl formate,299.15,hazardous materials,1
CCCCCS,Amyl mercaptan,291.15,hazardous materials,1
CC(C)CCO[N+](=O)[O-],iso-Amyl nitrate,325.15,hazardous materials,1
CCCCCON=O,Amyl nitrite,283.15,hazardous materials,1
Nc1ccccc1,Aniline,343.15,hazardous materials,1
COc1ccccc1C=O,o-Anisaldehyde,391.15,hazardous materials,1
COc1ccccc1,Anisole,325.15,hazardous materials,1
c1ccc2cc3ccccc3cc2c1,Anthracene,394.15,hazardous materials,1
O=C1c2ccccc2C(=O)c2ccccc21,Anthraquinone,458.15,hazardous materials,1
C1CN1,Aziridine,262.15,hazardous materials,1
O=Cc1ccccc1,Benzaldehyde,337.15,hazardous materials,1
c1ccccc1,Benzene,262.15,hazardous materials,1
O=C(O)c1ccccc1,Benzoic acid,394.15,hazardous materials,1
N#Cc1ccccc1,Benzonitrile,358.15,hazardous materials,1
FC(F)(F)c1ccccc1,Benzotrifluoride,285.15,hazardous materials,1
O=C(Cl)c1ccccc1,Benzoyl chloride,345.15,hazardous materials,1
CC(=O)OCc1ccccc1,Benzyl acetate,375.15,hazardous materials,1
OCc1ccccc1,Benzyl alcohol,374.15,hazardous materials,1
NCc1ccccc1,Benzylamine,336.15,hazardous materials,1
O=C(OCc1ccccc1)c1ccccc1,Benzyl benzoate,421.15,hazardous materials,1
ClCc1ccccc1,Benzyl chloride,340.15,hazardous materials,1
SCc1ccccc1,Benzyl mercaptan,343.15,hazardous materials,1
C1CCC(C2CCCCC2)CC1,Bicyclohexyl,347.15,hazardous materials,1
c1ccc(-c2ccccc2)cc1,Biphenyl,386.15,hazardous materials,1
Brc1ccccc1,Bromobenzene,324.15,hazardous materials,1
Cc1ccccc1Br,o-Bromotoluene,352.15,hazardous materials,1
CCCC,n-Butane,213.14999999999998,hazardous materials,1
C=CCC,1-Butene,193.14999999999998,hazardous materials,1
CCCCOC(C)=O,n-Butyl acetate,300.15,hazardous materials,1
CC(=O)OCC(C)C,iso-Butyl acetate,291.15,hazardous materials,1
CCC(C)OC(C)=O,sec-Butyl acetate,304.15,hazardous materials,1
CCCCO,n-Butyl alcohol,302.15,hazardous materials,1
CC(C)CO,iso-Butyl alcohol,301.15,hazardous materials,1
CCC(C)O,sec-Butyl alcohol,297.15,hazardous materials,1
CC(C)(C)O,tert-Butyl alcohol,283.15,hazardous materials,1
CCCCN,Butylamine,261.15,hazardous materials,1
CC(C)CN,iso-Butylamine,264.15,hazardous materials,1
CCCCc1ccccc1,n-Butyl benzene,344.15,hazardous materials,1
CC(C)Cc1ccccc1,iso-Butyl benzene,325.15,hazardous materials,1
CCCCBr,n-Butyl bromide,291.15,hazardous materials,1
CCCCCl,n-Butyl chloride,280.15,hazardous materials,1
CC(O)CCO,"1,3-Butylene glycol ",394.15,hazardous materials,1
CC(O)C(C)O,"2,3-Butylene glycol ",358.15,hazardous materials,1
CCCCOC=O,n-Butyl formate,291.15,hazardous materials,1
CCCCOC(=O)C(C)O,Butyl lactate,344.15,hazardous materials,1
CCCCS,Butyl mercaptan,275.15,hazardous materials,1
C=C(C)C(=O)OCCCC,Butyl methacrylate,325.15,hazardous materials,1
CC(=O)CC(C)C,Isobutyl methyl ketone,290.15,hazardous materials,1
CC(C)(C)OOC(=O)c1ccccc1,tert-Butyl perbenzoate,361.15,hazardous materials,1
C=COCCCC,Butyl vinyl ether,264.15,hazardous materials,1
CCCC=O,n-Butyraldehyde,266.45,hazardous materials,1
CCCC(=O)O,n-Butyric acid,339.15,hazardous materials,1
CCCC(=O)OC(=O)CCC,n-Butyric anhydride,361.15,hazardous materials,1
CCC1OC1=O,2-Butyrolactone,371.15,hazardous materials,1