,compound,flashpoint,pure substance,smiles,source
5230,2-ethylbutanedinitrile,399.55,1,CCC(C#N)CC#N,le15
5231,"1,2-Benzenediamine",383.15,1,Nc1ccccc1N,le15
5232,"2-Pyridinamine, 5-methyl-",384.05,1,Cc1ccc(N)nc1,le15
5233,Adiponitrile,432.0,1,N#CCCCCC#N,le15
5234,"Cyclohexene, 4-vinyl- (8CI)",289.15,1,C=CC1CC=CCC1,le15
5235,"(3E)-2,5-dimethylhexa-1,3,5-triene",291.25,1,C=C(C)/C=C/C(=C)C,le15
5236,"(1Z,5Z)-cycloocta-1,5-diene",311.15,1,C1=C\CC/C=C\CC/1,le15
5237,1-ethenylcyclohexene,295.85,1,C=CC1=CCCCC1,le15
5238,"propane-1,3-dithiol",332.05,1,SCCCS,le15
5239,"propane-1,2-dithiol",308.15,1,CC(S)CS,le15
5240,bis(methylsulfanyl)methane,316.15,1,CSCSC,le15
5241,"Acetic acid, 2-chloro-, methyl ester",324.85,1,COC(=O)CCl,le15
5242,"Propanoic acid, 3-chloro-",398.15,1,O=C(O)CCCl,le15
5243,"Carbonochloridic acid, ethyl ester",291.95,1,CCOC(=O)Cl,le15
5244,"Propanoic acid, 2-chloro-",380.15,1,CC(Cl)C(=O)O,le15
5245,chloromethyl acetate,282.05,1,CC(=O)OCCl,le15
5246,2-methoxyacetyl chloride,301.15,1,COCC(=O)Cl,le15
5247,1-chloro-2-methylpropan-2-ol,334.15,1,CC(C)(O)CCl,le15
5248,1-chloro-2-ethoxyethane,288.75,1,CCOCCCl,le15
5249,"1-Butanol, 4-chloro-",350.35,1,OCCCCCl,le15
5250,1-chloro-3-methoxypropane,301.05,1,COCCCCl,le15
5251,"Propane, 1-chloro-2,3-epithio-",330.65,1,ClCC1CS1,le15
5252,Bromoethane,253.0,1,CCBr,le15
5253,"Phenol, 2-amino-",441.15,1,Nc1ccccc1O,le15
5254,pyridin-3-ylmethanol,370.65,1,OCc1cccnc1,le15
5255,"Phenol, 4-amino-",462.15,1,Nc1ccc(O)cc1,le15
5256,"Phenol, 3-amino-",428.15,1,Nc1cccc(O)c1,le15
5257,3-methyl-1H-pyridin-2-one,445.85,1,Cc1ccc[nH]c1=O,le15
5258,1-(1H-Pyrrol-2-yl)ethan-1-one,365.55,1,CC(=O)c1ccc[nH]1,le15
5259,"Hydroxylamine, N-phenyl-",393.35,1,ONc1ccccc1,le15
5260,2-methoxypyridine,305.15,1,COc1ccccn1,le15
5261,"Pyridine-2,6-diyldiamine",434.45,1,Nc1cccc(N)n1,le15
5262,thiophene-2-carbonitrile,326.45,1,N#Cc1cccs1,le15
5263,Cyclohexanecarbonitrile,341.95,1,N#CC1CCCCC1,le15
5264,"1,2,5-trimethylpyrrole",325.35,1,Cc1ccc(C)n1C,le15
5265,Cyclohexanecarbonitrile,338.0,1,N#CC1CCCCC1,le15
5266,1-chloro-1-nitroethane,302.85,1,CC(Cl)[N+](=O)[O-],le15
5267,1-chloro-2-nitroethane,329.65,1,O=[N+]([O-])CCCl,le15
5268,"Acetonitrile, dichloro-",309.15,1,N#CC(Cl)Cl,le15
5269,"Phosphonic acid, dimethyl ester",302.594,1,CO[PH](=O)OC,le15
5270,phenylphosphane,244.25,1,Pc1ccccc1,le15
5271,"2-Furancarboxaldehyde, 5-methyl-",345.15,1,Cc1ccc(C=O)o1,le15
5272,"Ethanone, 1-(2-furanyl)-",344.25,1,CC(=O)c1ccco1,le15
5273,Hydroquinone,438.0,1,Oc1ccc(O)cc1,le15
5274,"Pyridine, 4-amino-, 1-oxide",358.85,1,Nc1cc[n+]([O-])cc1,le15
5275,"Ethanone, 1-(1H-imidazol-1-yl)-",361.15,1,CC(=O)n1ccnc1,le15
5276,"Benzene, 1-fluoro-2-methyl-",284.55,1,Cc1ccccc1F,le15
5277,"Benzene, 1-fluoro-4-methyl-",285.05,1,Cc1ccc(F)cc1,le15
5278,"Toluene, m-fluoro- (8CI)",282.55,1,Cc1cccc(F)c1,le15
5279,fluoromethylbenzene,290.55,1,FCc1ccccc1,le15
5280,"Methanesulfonic acid, methyl ester",377.15,1,COS(C)(=O)=O,le15
5281,dimethyl sulfite,303.15,1,COS(=O)OC,le15
5282,3-Cyclohexene-1-carboxaldehyde,330.35,1,O=CC1CC=CCC1,le15
5283,dicyclopropylmethanone,312.55,1,O=C(C1CC1)C1CC1,le15
5284,3-methylcyclohex-2-en-1-one,341.45,1,CC1=CC(=O)CCC1,le15
5285,Cyclohexenecarboxaldehyde,344.25,1,O=CC1=CCCCC1,le15
5286,2-ethyl-5-methylfuran,288.25,1,CCc1ccc(C)o1,le15
5287,2-propylfuran,287.95,1,CCCc1ccco1,le15
5288,3-methylcyclohex-3-en-1-one,328.65,1,CC1=CCCC(=O)C1,le15
5289,1-ethynylcyclopentan-1-ol,322.05,1,C#CC1(O)CCCC1,le15
5290,2-ethyl-5-methyl-1H-imidazole,410.95,1,CCc1ncc(C)[nH]1,le15
5291,"1,3,5-trimethylpyrazole",313.15,1,Cc1cc(C)n(C)n1,le15
5292,Benzenethiol,323.75,1,Sc1ccccc1,le15
5293,oct-1-yne,290.15,1,C#CCCCCCC,le15
5294,ethenylcyclohexane,294.25,1,C=CC1CCCCC1,le15
5295,"2,4-Hexadiene, 2,5-dimethyl-",298.15,1,CC(C)=CC=C(C)C,le15
5296,cyclooctene,298.15,1,C1=CCCCCCC1,le15
5297,ethylidenecyclohexane,297.05,1,CC=C1CCCCC1,le15
5298,1-ethylcyclohexene,292.35,1,CCC1=CCCCC1,le15
5299,1-methylcycloheptene,293.75,1,CC1=CCCCCC1,le15
5300,"1,2-dimethylcyclohexene",289.95,1,CC1=C(C)CCCC1,le15
5301,3-ethylcyclohexene,286.05,1,CCC1C=CCCC1,le15
5302,oct-2-yne,297.25,1,CC#CCCCCC,le15
5303,prop-2-enylcyclopentane,285.35,1,C=CCC1CCCC1,le15
5304,"1,7-Octadiene",282.55,1,C=CCCCCC=C,le15
5305,"(2E,6E)-octa-2,6-diene",286.85,1,C/C=C/CC/C=C/C,le15
5306,"4,4-dimethylcyclohexene",275.85,1,CC1(C)CC=CCC1,le15
5307,oct-3-yne,295.15,1,CCC#CCCCC,le15
5308,2propenylcyclopentane,285.0,1,CC=CC1CCCC1,le15
5309,4octyne,291.0,1,CCCC#CCCC,le15
5310,Ethenylcyclohexane,295.0,1,C=CC1CCCCC1,le15
5311,1-chloro-4-fluorobutane,283.05,1,FCCCCCl,le15
5312,3chloro1propanethiol,316.0,1,SCCCCl,le15
5313,"1-Propene, 2,3-dichloro-",283.15,1,C=C(Cl)CCl,le15
5314,"1-Propene, 1,3-dichloro-",300.95,1,ClC=CCCl,le15
5315,"Propene, 1,2-dichloro-",288.85,1,CC(Cl)=CCl,le15
5316,"3,3-dichloroprop-1-ene",276.15,1,C=CC(Cl)Cl,le15
5317,"1-Propene, 1,1-dichloro- (9CI)",273.75,1,CC=C(Cl)Cl,le15
5318,"1-Propene, 1,3-dichloro-, (Z)- (9CI)",297.15,1,Cl/C=C\CCl,le15
5319,"(E)-1,3-dichloroprop-1-ene",300.95,1,Cl/C=C/CCl,le15
5320,"2-Propenoic acid, 2-cyano-, methyl ester",340.75,1,C=C(C#N)C(=O)OC,le15
5321,"Aniline, o-fluoro- (8CI)",333.15,1,Nc1ccccc1F,le15
5322,"Aniline, p-fluoro- (8CI)",351.05,1,Nc1ccc(F)cc1,le15
5323,"Aniline, m-fluoro- (8CI)",350.35,1,Nc1cccc(F)c1,le15
5324,1-Ethenyl-2-pyrrolidinone (9CI),367.05,1,C=CN1CCCC1=O,le15
5325,"Propanenitrile, 3-(2-propenyloxy)- (9CI)",356.05,1,C=CCOCCC#N,le15
5326,1-(furan-2-yl)-N-methylmethanamine,307.15,1,CNCc1ccco1,le15
5327,"2,4,5-Trimethyloxazole",306.45,1,Cc1nc(C)c(C)o1,le15
5328,1H-Imidazole-4-ethanamine,453.45,1,NCCc1c[nH]cn1,le15
5329,Heptane-1-nitrile,333.65,1,CCCCCCC#N,le15
5330,"2-Propyn-1-amine, N,N-diethyl-",429.15,1,C#CCN(CC)CC,le15
5331,"1-Propyn-1-amine, N,N-diethyl- (9CI)",311.85,1,CC#CN(CC)CC,le15
5332,Heptanenitrile,331.0,1,CCCCCCC#N,le15
5333,"2-Propanone, 1,1,1-trifluoro-",243.15,1,CC(=O)C(F)(F)F,le15
5334,2-Furancarboxylic acid,367.35,1,O=C(O)c1ccco1,le15
5335,"2,5-Furandione, 3-methyl-",374.15,1,CC1=CC(=O)OC1=O,le15
5336,"3,6-Pyridazinedione, 1,2-dihydro-",515.55,1,O=c1ccc(=O)[nH][nH]1,le15
5337,1H-imidazole-5-carboxylic acid,526.35,1,O=C(O)c1cnc[nH]1,le15
5338,"4(1H)-Pyrimidinone, 6-hydroxy-",443.75,1,O=c1cc(O)[nH]cn1,le15
5339,"Phenol, 2-fluoro-",319.85,1,Oc1ccccc1F,le15
5340,"Phenol, 4-fluoro-",347.95,1,Oc1ccc(F)cc1,le15
5341,3-fluorophenol,344.15,1,Oc1cccc(F)c1,le15
5342,"2-Cyclopenten-1-one, 2-hydroxy-3-methyl-",373.85,1,CC1=C(O)C(=O)CC1,le15
5343,"2H-Pyran-2-carboxaldehyde, 3,4-dihydro-",346.55,1,O=CC1CCC=CO1,le15
5344,"1,3-Cyclohexanedione",358.85,1,O=C1CCCC(=O)C1,le15
5345,"1,4-Cyclohexanedione",355.35,1,O=C1CCC(=O)CC1,le15
5346,"1,2-Cyclohexanedione",357.15,1,O=C1CCCCC1=O,le15
5347,"Acrylic acid, allyl ester (8CI)",342.35,1,C=CCOC(=O)C=C,le15
5348,"1,3-Butadien-1-ol, acetate",306.45,1,C=CC=COC(C)=O,le15
5349,"2-Propyn-1-ol, propanoate",315.25,1,C#CCOC(=O)CC,le15
5350,1-(furan-2-yl)ethanol,307.75,1,CC(O)c1ccco1,le15
5351,ethyl but-2-ynoate,326.35,1,CC#CC(=O)OCC,le15
5352,2-(methoxymethyl)furan,295.25,1,COCc1ccco1,le15
5353,"2-Butenoic acid, ethenyl ester",300.15,1,C=COC(=O)C=CC,le15
5354,"2,4-Hexadienoic acid, (2E,4E)-",400.15,1,C/C=C/C=C/C(=O)O,le15
5355,2-Thiophenecarboxaldehyde,350.95,1,O=Cc1cccs1,le15
5356,"Guanidine, N'-cyano-N,N-dimethyl-",337.55,1,CN(C)C(=N)NC#N,le15
5357,"Cyclohexanone, 2-methyl-",319.05,1,CC1CCCCC1=O,le15
5358,"Cyclohexanone, 3-methyl-",321.15,1,CC1CCCC(=O)C1,le15
5359,2-Heptyn-1-ol,351.15,1,CCCCC#CCO,le15
5360,2-Methylenehexanal,306.45,1,C=C(C=O)CCCC,le15
5361,"hepta-1,6-dien-4-ol",313.15,1,C=CCC(O)CC=C,le15
5362,"5-Hexen-2-one, 5-methyl-",311.85,1,C=C(C)CCC(C)=O,le15
5363,"2,5-dimethylcyclopentan-1-one",313.75,1,CC1CCC(C)C1=O,le15
5364,"3-Hexen-2-one, 5-methyl-",320.65,1,CC(=O)C=CC(C)C,le15
5365,1-cyclopentylethanone,320.15,1,CC(=O)C1CCCC1,le15
5366,"3-Pentanol, 3-ethynyl-",310.95,1,C#CC(O)(CC)CC,le15
5367,1-Heptyn-3-ol,323.95,1,C#CC(O)CCCC,le15
5368,5-Methyl-1-hexyn-3-ol,323.25,1,C#CC(O)CC(C)C,le15
5369,cycloheptanone,330.15,1,O=C1CCCCCC1,le15
5370,"Cyclohexanone, 4-methyl-",319.05,1,CC1CCC(=O)CC1,le15
5371,"1-Pentyn-3-ol, 3,4-dimethyl-",310.35,1,C#CC(C)(O)C(C)C,le15
5372,cyclohexanecarbaldehyde,314.15,1,O=CC1CCCCC1,le15
5373,(E)-hept-2-enal,326.85,1,CCCC/C=C/C=O,le15
5374,"Ether, 2-butenyl propenyl",287.55,1,CC=CCOC=CC,le15
5375,2methylcyclohexanone,321.0,1,CC1CCCCC1=O,le15
5376,Cycloheptanone,358.0,1,O=C1CCCCCC1,le15
5377,"1,4-Diazabicyclo(2.2.2)octane",335.35,1,C1CN2CCN1CC2,le15
5378,"Hydrazine, 1,1-di-2-propenyl- (9CI)",327.15,1,C=CCN(N)CC=C,le15
5379,"Hexanenitrile, 6-amino-",366.75,1,N#CCCCCCN,le15
5380,"Acetonitrile, (diethylamino)-",327.05,1,CCN(CC)CC#N,le15
5381,"2,3-dimethylthiophene",298.95,1,Cc1ccsc1C,le15
5382,"2,4-dimethylthiophene",296.15,1,Cc1csc(C)c1,le15
5383,2-ethylthiophene,294.25,1,CCc1cccs1,le15
5384,"2,5-dimethylthiophene",297.05,1,Cc1ccc(C)s1,le15
5385,3-ethylthiophene,295.95,1,CCc1ccsc1,le15
5386,"1-Pentene, 2,4,4-trimethyl-",267.05,1,C=C(C)CC(C)(C)C,le15
5387,(E)-oct-2-ene,289.75,1,C/C=C/CCCCC,le15
5388,"2,3,4-trimethylpent-2-ene",285.95,1,CC(C)=C(C)C(C)C,le15
5389,"1,1-dimethylcyclohexane",280.35,1,CC1(C)CCCCC1,le15
5390,(E)-oct-4-ene,294.25,1,CCC/C=C/CCC,le15
5391,"(1R,2R)-1-ethyl-2-methylcyclopentane",286.65,1,CC[C@@H]1CCC[C@H]1C,le15
5392,"Heptane, 3-methylene-",283.55,1,C=C(CC)CCCC,le15
5393,"(1R,3R)-1,3-dimethylcyclohexane",282.55,1,C[C@@H]1CCC[C@@H](C)C1,le15
5394,"1,2,4-trimethylcyclopentane",282.35,1,CC1CC(C)C(C)C1,le15
5395,3-ethylhex-1-ene,288.65,1,C=CC(CC)CCC,le15
5396,3-methyl-4-methylidenehexane,279.85,1,C=C(CC)C(C)CC,le15
5397,"3,3-dimethylhex-1-ene",283.85,1,C=CC(C)(C)CCC,le15
5398,propan-2-ylcyclopentane,287.25,1,CC(C)C1CCCC1,le15
5399,methylcycloheptane,293.05,1,CC1CCCCCC1,le15
5400,"1,1,2-trimethylcyclopentane",279.55,1,CC1CCCC1(C)C,le15
5401,(E)-4-methylhept-3-ene,282.35,1,CC/C=C(\C)CCC,le15
5402,"1,1,3-trimethylcyclopentane",279.55,1,CC1CCC(C)(C)C1,le15
5403,"1,2,4-trimethylcyclopentane",282.35,1,CC1CC(C)C(C)C1,le15
5404,"2,3-dimethylhex-2-ene",288.75,1,CCCC(C)=C(C)C,le15
5405,5-methylhept-1-ene,288.65,1,C=CCCC(C)CC,le15
5406,(4R)-4-methylhept-1-ene,288.65,1,C=CC[C@H](C)CCC,le15
5407,"3,4-dimethylhex-1-ene",283.85,1,C=CC(C)C(C)CC,le15
5408,"2,3-dimethylhex-1-ene",279.85,1,C=C(C)C(C)CCC,le15
5409,1-ethyl-1-methylcyclopentane,283.75,1,CCC1(C)CCCC1,le15
5410,"1,2,4-trimethylcyclopentane",282.35,1,CC1CC(C)C(C)C1,le15
5411,3-ethyl-2-methylpent-1-ene,279.85,1,C=C(C)C(CC)CC,le15
5412,"(Z)-5,5-dimethylhex-2-ene",281.55,1,C/C=C\CC(C)(C)C,le15
5413,"1,2-dimethylcyclohexane",288.75,1,CC1CCCCC1C,le15
5414,1-ethyl-2-methylcyclopentane,286.65,1,CCC1CCCC1C,le15
5415,"Cyclohexane, 1,2-dimethyl-, (1R,2S)-rel-",288.75,1,C[C@H]1CCCC[C@H]1C,le15
5416,"1,4-dimethylcyclohexane",288.75,1,CC1CCC(C)CC1,le15
5417,"1,2,3-trimethylcyclopentane",282.394,1,CC1CCC(C)C1C,le15
5418,6-methylhept-1-ene,288.65,1,C=CCCCC(C)C,le15
5419,trans-Oct-2-ene,294.25,1,C/C=C/CCCCC,le15
5420,(E)-oct-3-ene,288.25,1,CC/C=C/CCCC,le15
5421,"4,5-dimethylhex-1-ene",283.85,1,C=CCC(C)C(C)C,le15
5422,1ethyl1methylcyclopentane,279.0,1,CCC1(C)CCCC1,le15
5423,1octene,286.0,1,C=CCCCCCC,le15
5424,2methyl1heptene,283.0,1,C=C(C)CCCCC,le15
5425,2methyl2heptene,281.0,1,CCCCC=C(C)C,le15
5426,Cyclooctane,301.0,1,C1CCCCCCC1,le15
5427,2-chloro-2-fluoroacetic acid,331.75,1,O=C(O)C(F)Cl,le15
5428,(Z)-2-chlorobut-2-enedinitrile,341.55,1,N#C/C=C(\Cl)C#N,le15
5429,"Acetyl chloride, chloro-",307.15,1,O=C(Cl)CCl,le15
5430,"s-Triazine-2,4(1H,3H)-dione (8CI)",574.05,1,O=c1nc[nH]c(=O)[nH]1,le15
5431,4-Nitro-1H-imidazole (9CI),471.75,1,O=[N+]([O-])c1c[nH]cn1,le15
5432,"2,5-Pyrrolidinedione, 1-methyl-",379.05,1,CN1C(=O)CCC1=O,le15
5433,methyl 3-cyanopropanoate,360.65,1,COC(=O)CCC#N,le15
5434,Hexahydro-2H-azepin-2-one (9CI),409.85,1,O=C1CCCCCN1,le15
5435,"2-Propenamide, N-(1-methylethyl)-",392.85,1,C=CC(=O)NC(C)C,le15
5436,"2-Pyrrolidinone, 1-ethyl-",349.25,1,CCN1CCCC1=O,le15
5437,"Acetamide, N-ethyl-N-vinyl-",345.65,1,C=CN(CC)C(C)=O,le15
5438,"2H-Pyran-2-methanamine, 3,4-dihydro- (9CI)",343.65,1,NCC1CCC=CO1,le15
5439,"Cyclohexanone, oxime",363.15,1,ON=C1CCCCC1,le15
5440,1-Piperidinecarboxaldehyde,364.15,1,O=CN1CCCCC1,le15
5441,3-methylpiperidin-2-one,411.75,1,CC1CCCNC1=O,le15
5442,"1,5-dimethylpyrrolidin-2-one",362.55,1,CC1CCC(=O)N1C,le15
5443,"2,4-dimethyl-1,3-thiazole",315.15,1,Cc1csc(C)n1,le15
5444,"Thiazole, 4,5-dimethyl-",324.25,1,Cc1ncsc1C,le15
5445,"Piperidine, 2,6-dimethyl-",284.15,1,CC1CCCC(C)N1,le15
5446,"2,6-dimethylpiperidine",284.85,1,CC1CCCC(C)N1,le15
5447,"Azocine, octahydro-",302.55,1,C1CCCNCCC1,le15
5448,"3,3-dimethylpiperidine",305.35,1,CC1(C)CCCNC1,le15
5449,cyclohexylmethanamine,316.45,1,NCC1CCCCC1,le15
5450,4-ethylpiperidine,306.95,1,CCC1CCNCC1,le15
5451,"3,5-dimethylpiperidine",305.15,1,CC1CNCC(C)C1,le15
5452,"Cyclohexanamine, N-methyl-",302.55,1,CNC1CCCCC1,le15
5453,1ethylpiperidine,291.0,1,CCN1CCCCC1,le15
5454,Cyclohexanemethylamine,316.0,1,NCC1CCCCC1,le15
5455,"Pyridine, 2-chloro-",338.15,1,Clc1ccccn1,le15
5456,"Pyridine, 3-chloro-",338.15,1,Clc1cccnc1,le15
5457,"Acetic acid, 2,2,2-trifluoro-",270.15,1,O=C(O)C(F)(F)F,le15
5458,"Cyclobutenedione, dihydroxy- (8CI)",392.99,1,O=c1c(O)c(O)c1=O,le15
5459,"2-Propanol, 1,1,1-trifluoro-",311.95,1,CC(O)C(F)(F)F,le15
5460,"3,3,3-trifluoropropan-1-ol",320.25,1,OCCC(F)(F)F,le15
5461,"Benzene, 1,3-difluoro- (9CI)",275.15,1,Fc1cccc(F)c1,le15
5462,"Benzene, 1,4-difluoro- (9CI)",275.25,1,Fc1ccc(F)cc1,le15
5463,"1,2-difluorobenzene",275.35,1,Fc1ccccc1F,le15
5464,"2H-Pyran-2,6(3H)-dione, dihydro-",394.05,1,O=C1CCCC(=O)O1,le15
5465,"Fluorosulfuric acid, methyl ester",283.15,1,COS(=O)(=O)F,le15
5466,"3-methyloxolane-2,5-dione",381.35,1,CC1CC(=O)OC1=O,le15
5467,"Acetic acid, diazo-, ethyl ester",319.15,1,CCOC(=O)C=[N+]=[N-],le15
5468,"2H-1,2-Oxazine, 3,6-dihydro-2-nitroso-",303.45,1,O=NN1CC=CCO1,le15
5469,5-(Aminomethyl)isoxazol-3-ol hydrate,423.55,1,NCc1cc(O)no1.O,le15
5470,"2-Propenoic acid, 2-methyl-, ethyl ester",288.75,1,C=C(C)C(=O)OCC,le15
5471,"Propane, 1-(allyloxy)-2,3-epoxy- (8CI)",330.35,1,C=CCOCC1CO1,le15
5472,"Butanoic acid, ethenyl ester (9CI)",299.55,1,C=COC(=O)CCC,le15
5473,"2-Butenoic acid, ethyl ester, (E)- (9CI)",275.15,1,C/C=C/C(=O)OCC,le15
5474,"2(3H)-Furanone, 5-ethyldihydro-",371.45,1,CCC1CCC(=O)O1,le15
5475,methyl 3-methylbut-2-enoate,305.25,1,COC(=O)C=C(C)C,le15
5476,propyl prop-2-enoate,299.25,1,C=CC(=O)OCCC,le15
5477,(E)-hex-2-enoic acid,388.55,1,CCC/C=C/C(=O)O,le15
5478,"Propionic acid, allyl ester (8CI)",306.65,1,C=CCOC(=O)CC,le15
5479,"1,3-Dioxolane, 4-methyl-2-vinyl-",278.45,1,C=CC1OCC(C)O1,le15
5480,"hexane-2,4-dione",326.75,1,CCC(=O)CC(C)=O,le15
5481,cyclopentanecarboxylic acid,366.15,1,O=C(O)C1CCCC1,le15
5482,"2,3-Hexanedione",301.15,1,CCCC(=O)C(C)=O,le15
5483,(E)-hex-3-enoic acid,379.55,1,CC/C=C/CC(=O)O,le15
5484,"3,4-Hexanedione",305.95,1,CCC(=O)C(=O)CC,le15
5485,"2H-Pyran, 3,4-dihydro-2-methoxy-",289.85,1,COC1CCC=CO1,le15
5486,"Ethanone, 1-(3,3-dimethyloxiranyl)- (9CI)",308.45,1,CC(=O)C1OC1(C)C,le15
5487,ethyl cyclopropanecarboxylate,302.85,1,CCOC(=O)C1CC1,le15
5488,"2,2-dimethylbut-3-enoic acid",357.45,1,C=CC(C)(C)C(=O)O,le15
5489,"2-Butenoic acid, ethyl ester",301.45,1,CC=CC(=O)OCC,le15
5490,"2-Hexenoic acid, (2E)-",388.55,1,CCC/C=C/C(=O)O,le15
5491,(E)-2-methylpent-2-enoic acid,380.15,1,CC/C=C(\C)C(=O)O,le15
5492,(E)-2-methylpent-3-enoic acid,370.55,1,C/C=C/C(C)C(=O)O,le15
5493,hex-5-enoic acid,373.25,1,C=CCCCC(=O)O,le15
5494,ethyl but-3-enoate,303.85,1,C=CCC(=O)OCC,le15
5495,methyl (E)-2-methylbut-2-enoate,308.15,1,C/C=C(\C)C(=O)OC,le15
5496,(E)-4-methylpent-2-enoic acid,379.15,1,CC(C)/C=C/C(=O)O,le15
5497,"2-Imidazolidinone, 1,3-dimethyl-",349.65,1,CN1CCN(C)C1=O,le15
5498,"Piperidine, 1-nitroso-",365.95,1,O=NN1CCCCC1,le15
5499,furan-2-ylmethanethiol,318.15,1,SCc1ccco1,le15
5500,thiophen-2-ylmethanol,349.85,1,OCc1cccs1,le15
5501,"2H-Imidazole-2-thione, 1,3-dihydro-1-methyl-",320.55,1,Cn1cc[nH]c1=S,le15
5502,"2,5-dimethyl-1,3,4-thiadiazole",354.35,1,Cc1nnc(C)s1,le15
5503,cyclohexylmethanol,344.25,1,OCC1CCCCC1,le15
5504,4-methylhexan-2-one,304.15,1,CCC(C)CC(C)=O,le15
5505,"2-Hexanone, 5-methyl-",314.25,1,CC(=O)CCC(C)C,le15
5506,"2,2-dimethylpentan-3-one",295.55,1,CCC(=O)C(C)(C)C,le15
5507,"4,4-dimethylpentan-2-one",292.05,1,CC(=O)CC(C)(C)C,le15
5508,2-cyclopentylethanol,343.55,1,OCCC1CCCC1,le15
5509,2-methylhexanal,305.75,1,CCCCC(C)C=O,le15
5510,methoxycyclohexane,293.85,1,COC1CCCCC1,le15
5511,3-methylhexan-2-one,304.15,1,CCCC(C)C(C)=O,le15
5512,"(1R,3S)-3-methylcyclohexan-1-ol",335.95,1,C[C@H]1CCC[C@@H](O)C1,le15
5513,"3-Hexanone, 2-methyl-",297.05,1,CCCC(=O)C(C)C,le15
5514,(1R)-3-methylcyclohexan-1-ol,335.95,1,CC1CCC[C@@H](O)C1,le15
5515,"(1R,2S)-2-methylcyclohexan-1-ol",332.05,1,C[C@H]1CCCC[C@H]1O,le15
5516,4-methylhexan-3-one,304.15,1,CCC(=O)C(C)CC,le15
5517,3-methylhexanal,305.75,1,CCCC(C)CC=O,le15
5518,"2-Hepten-1-ol, (E)- (8CI)(9CI)",341.65,1,CCCC/C=C/CO,le15
5519,1-methylcyclohexan-1-ol,340.92800000000005,1,CC1(O)CCCCC1,le15
5520,5-methylhexan-3-one,304.15,1,CCC(=O)CC(C)C,le15
5521,hept-1-en-4-ol,329.55,1,C=CCC(O)CCC,le15
5522,2methylcyclohexanol,331.0,1,CC1CCCCC1O,le15
5523,3methylcyclohexanol,335.0,1,CC1CCCC(O)C1,le15
5524,Cycloheptanol,344.0,1,OC1CCCCCC1,le15
5525,Heptanal,314.0,1,CCCCCCC=O,le15
5526,"Piperazine, 2,5-dimethyl-",331.45,1,CC1CNC(C)CN1,le15
5527,piperidin-4-ylmethanamine,351.15,1,NCC1CCNCC1,le15
5528,"1-Propene, 3,3'-thiobis-",319.25,1,C=CCSCC=C,le15
5529,"3,3-dimethylhexane",282.45,1,CCCC(C)(C)CC,le15
5530,"2,2,3-trimethylpentane",281.85,1,CCC(C)C(C)(C)C,le15
5531,"3,4-dimethylhexane",304.75,1,CCC(C)C(C)CC,le15
5532,4-methylheptane,279.85,1,CCCC(C)CCC,le15
5533,"2,5-dimethylhexane",299.85,1,CC(C)CCC(C)C,le15
5534,"2,2,3,3-tetramethylbutane",277.55,1,CC(C)(C)C(C)(C)C,le15
5535,Octane,286.15,1,CCCCCCCC,le15
5536,"2,3,3-trimethylpentane",284.55,1,CCC(C)(C)C(C)C,le15
5537,"2,3,4-trimethylpentane",278.15,1,CC(C)C(C)C(C)C,le15
5538,3-ethyl-3-methylpentane,286.25,1,CCC(C)(CC)CC,le15
5539,2methylheptane,277.0,1,CCCCCC(C)C,le15
5540,3ethylhexane,279.0,1,CCCC(CC)CC,le15
5541,3methylheptane,280.0,1,CCCCC(C)CC,le15
5542,Isooctane,261.0,1,CC(C)CC(C)(C)C,le15
5543,trimethyl(prop-2-enyl)silane,280.35,1,C=CC[Si](C)(C)C,le15
5544,2-chloropyrazine,330.15,1,Clc1cnccn1,le15
5545,Methanesulphonyl chloride,315.35,1,CS(=O)(=O)Cl,le15
5546,"Ether, bis(chloromethyl)",348.05,1,ClCOCCl,le15
5547,"Ethanol, 2,2-dichloro-",351.45,1,OCC(Cl)Cl,le15
5548,Carbonothioic dichloride,335.15,1,S=C(Cl)Cl,le15
5549,"Silane, dichloromethyl-",240.95,1,[SiH3]C(Cl)Cl,le15
5550,"Pyridine, 2,6-difluoro-",307.05,1,Fc1cccc(F)n1,le15
5551,"Succinimide, N-hydroxy- (8CI)",385.65,1,O=C1CCC(=O)N1O,le15
5552,"Acrylamide, N-(hydroxymethyl)-2-methyl- (6CI,8CI)",412.15,1,C=C(C)C(=O)NCO,le15
5553,N-acetyl-N-methylacetamide,339.65,1,CC(=O)N(C)C(C)=O,le15
5554,"Piperazine, 1-nitroso-",386.95,1,O=NN1CCNCC1,le15
5555,"3(2H)-Isothiazolone, 2-methyl-",337.45,1,Cn1sccc1=O,le15
5556,1-methylpiperidin-4-ol,360.95,1,CN1CCC(O)CC1,le15
5557,"Morpholine, 2,6-dimethyl-",317.55,1,CC1CNCC(C)O1,le15
5558,Hexanamide,375.374,1,CCCCCC(N)=O,le15
5559,"Acetamide, N,N-diethyl-",342.45,1,CCN(CC)C(C)=O,le15
5560,N-butylacetamide,387.65,1,CCCCNC(C)=O,le15
5561,"Ethylamine, N,N-dimethyl-2-(vinyloxy)- (6CI,7CI,8CI)",301.55,1,C=COCCN(C)C,le15
5562,"Morpholine, 4-ethyl-",300.95,1,CCN1CCOCC1,le15
5563,4-amino-4-methylpentan-2-one,329.35,1,CC(=O)CC(C)(C)N,le15
5564,"Guanidine, 1,1,3,3-tetramethyl- (8CI)",333.15,1,CN(C)C(=N)N(C)C,le15
5565,2-isothiocyanato-2-methylpropane,311.45,1,CC(C)(C)N=C=S,le15
5566,"Isothiocyanic acid, butyl ester",339.25,1,CCCCN=C=S,le15
5567,1-isothiocyanato-2-methylpropane,317.35,1,CC(C)CN=C=S,le15
5568,butyl thiocyanate,338.05,1,CCCCSC#N,le15
5569,"Silane, azidotrimethyl-",279.15,1,C[Si](C)(C)N=[N+]=[N-],le15
5570,heptan-2-amine,327.15,1,CCCCCC(C)N,le15
5571,"1-Butanamine, N,N,3-trimethyl-",283.15,1,CC(C)CCN(C)C,le15
5572,"Propylamine, N-ethyl-1,2-dimethyl- (7CI)",278.75,1,CCNC(C)C(C)C,le15
5573,heptan-4-amine,314.45,1,CCCC(N)CCC,le15
5574,4-methylhexan-2-amine,302.05,1,CCC(C)CC(C)N,le15