smiles,compound,flashpoint,source,pure substance
O=[N+]([O-])c1cc(Br)cc(F)c1O,2-Fluoro-4-bromo-6-nitrophenol,372.95,le15,1
O=C(O)c1cc(Cl)cc([N+](=O)[O-])c1Cl,"Benzoic acid, 2,5-dichloro-3-nitro-",448.65,le15,1
OC(C(F)(F)F)(C(F)(F)F)C(F)(F)F,"1,1,1,3,3,3-hexafluoro-2-(trifluoromethyl)propan-2-ol",278.25,le15,1
Fc1c(F)c(F)c(C(F)(F)F)c(F)c1F,"1,2,3,4,5-pentafluoro-6-(trifluoromethyl)benzene",293.15,le15,1
CCc1ccc2c(c1)C(=O)c1ccccc1C2=O,"9,10-Anthracenedione, 2-ethyl-",428.55,le15,1
NC(=O)N1c2ccccc2C=Cc2ccccc21,"5H-Dibenz(b,f)azepine-5-carboxamide",475.55,le15,1
ClCC(Br)CBr,"Propane, 1,2-dibromo-3-chloro-",350.15,le15,1
CCN(CC)CCOC(=O)c1ccc(N)cc1,"Benzoic acid, 4-amino-, 2-(diethylamino)ethyl ester",452.95,le15,1
CO[Si](CCCOCC1CO1)(OC)OC,"Silane, trimethoxy(3-(oxiranylmethoxy)propyl)-",355.0499999999999,le15,1
CC1(C)CC(C)(c2ccccc2)c2ccccc21,"1,1,3-trimethyl-3-phenyl-2H-indene",429.65,le15,1
CC(C)(C)c1cc(CO)cc(C(C)(C)C)c1O,"Benzenemethanol, 3,5-bis(1,1-dimethylethyl)-4-hydroxy-",404.35,le15,1
C1CN(SSN2CCOCC2)CCO1,Di(morpholin-4-yl) disulphide,427.15,le15,1
C1CCC(CCCCCC2CCCCC2)CC1,5-cyclohexylpentylcyclohexane,412.35,le15,1
C[Si](C)(C)O[Si](C)(C)O[Si](C)(C)C,"Trisiloxane, 1,1,1,3,3,5,5,5-octamethyl-",302.15,le15,1
ClC(Cl)(Cl)C(Cl)(Cl)Cl,"Ethane, hexachloro-",334.45,le15,1
C#CC(C)N(C)C(=O)Nc1ccc(Cl)cc1,"Urea, 3-(p-chlorophenyl)-1-methyl-1-(1-methyl-2-propynyl)-",465.75,le15,1
Brc1cncc(Br)c1,"3,5-dibromopyridine",357.45,le15,1
O=[N+]([O-])c1cc([N+](=O)[O-])c(Cl)cc1Cl,"Benzene, 1,5-dichloro-2,4-dinitro-",431.15,le15,1
O=[N+]([O-])c1cc(Cl)c(Cl)cc1[N+](=O)[O-],"Benzene, 1,2-dichloro-4,5-dinitro-",440.05,le15,1
Clc1ccc2oc3ccc(Cl)cc3c2c1,"Dibenzofuran, 2,8-dichloro- (8CI)(9CI)",442.45,le15,1
Clc1ccc(Cc2ccc(Cl)cc2)cc1,"Benzene, 1,1'-methylenebis(4-chloro-",412.95,le15,1
Cc1ccc2c(c1N)C(=O)c1ccccc1C2=O,"9,10-Anthracenedione, 1-amino-2-methyl-",517.95,le15,1
CC(=O)Nc1ccc2c(c1)C(=O)c1ccccc1-2,"Acetamide, N-(9-oxo-9H-fluoren-2-yl)- (9CI)",490.15,le15,1
CCOc1cc(NC(C)=O)ccc1C(=O)OC,"Benzoic acid, 4-(acetylamino)-2-ethoxy-, methyl ester",484.65,le15,1
CNC(=O)Oc1ccccc1C1OCC(C)O1,"Carbamic acid, methyl-, o-(4-methyl-1,3-dioxolan-2-yl)phenyl ester",424.75,le15,1
NC(=O)C1c2ccccc2CCc2ccccc21,"5H-Dibenzo(a,d)cycloheptene-5-carboxamide, 10,11-dihydro-",492.35,le15,1
FC(F)(F)C(Cl)(Cl)C(F)(F)Cl,"Propane, 1,2,2-trichloropentafluoro-",277.54999999999995,le15,1
FC(F)(F)C(F)(F)C(Cl)(Cl)Cl,"1,1,1-trichloro-2,2,3,3,3-pentafluoropropane",276.15,le15,1
CC1=NOC(=O)C1=NNc1ccccc1Cl,"4,5-Isoxazoledione, 3-methyl-, 4-((o-chlorophenyl)hydrazone)",421.55,le15,1
FC(F)(F)C(F)(F)C(F)(F)C(F)(F)F,"1,1,1,2,2,3,3,4,4,4-decafluorobutane",277.35,le15,1
Nc1cccc2c1C(=O)c1cccc(N)c1C2=O,"9,10-Anthracenedione, 1,5-diamino-",560.75,le15,1
Nc1ccc2c(c1)C(=O)c1ccc(N)cc1C2=O,"9,10-Anthracenedione, 2,6-diamino-",560.75,le15,1
Nc1ccc(N)c2c1C(=O)c1ccccc1C2=O,"9,10-Anthracenedione, 1,4-diamino-",556.05,le15,1
Nc1ccc2c(c1N)C(=O)c1ccccc1C2=O,"9,10-Anthracenedione, 1,2-diamino-",558.8499999999998,le15,1
O=C(C=Cc1ccccc1)OCc1ccccc1,"2-Propenoic acid, 3-phenyl-, phenylmethyl ester",498.85,le15,1
COc1ccc(C(=O)C=Cc2ccccc2)cc1,"2-Propen-1-one, 1-(4-methoxyphenyl)-3-phenyl-",453.65,le15,1
O=C(OCC=Cc1ccccc1)c1ccccc1,"2-Propen-1-ol, 3-phenyl-, benzoate",449.25,le15,1
CCCCOCCOc1ccccc1C(=O)[O-],2butoxyethylsalicylate,430.35,le15,1
Cc1nc(NCc2ccccc2)c2cc[nH]c2n1,"7H-Pyrrolo(2,3-d)pyrimidin-4-amine, 2-methyl-N-(phenylmethyl)-",458.45,le15,1
O=C(CCc1ccccc1)CCc1ccccc1,"1,5-diphenylpentan-3-one",426.85,le15,1
CC1=C[C@@H]2c3cccc4[nH]cc(c34)C[C@H]2N(C)C1,"Ergoline, 8,9-didehydro-6,8-dimethyl-",482.45,le15,1
CC(C)(c1ccccc1)C(C)(C)c1ccccc1,"(2,3-dimethyl-3-phenylbutan-2-yl)benzene",415.85,le15,1
Clc1cccc(I)c1,1-chloro-3-iodobenzene,374.85,le15,1
Clc1ccc(I)cc1,"Benzene, 1-chloro-4-iodo-",381.15,le15,1
Clc1ccccc1I,1-chloro-2-iodobenzene,384.85,le15,1
CC1CCCCCCCCCCCCC(=O)C1,3-Methylcyclopentadecan-1-one,418.45,le15,1
CCCC/C=C\CCCCCCCCCC=O,"11-Hexadecenal, (11Z)-",334.25,le15,1
CCCCCCCCCCCCC1CCCC1,dodecylcyclopentane,408.95,le15,1
CCCCCCCCS(=O)CCCCl,"Octane, 1-((3-chloropropyl)sulfinyl)- (9CI)",450.25,le15,1
O=C(Cl)c1cccc(S(=O)(=O)Cl)c1,"Benzoyl chloride, m-(chlorosulfonyl)- (7CI,8CI)",434.95,le15,1
O=C(Cl)CCCCCCCCC(=O)Cl,Sebacoyl chloride (8CI),424.55,le15,1
COC(=O)c1ccc(C(=O)OC)c([N+](=O)[O-])c1,"1,4-Benzenedicarboxylic acid, 2-nitro-, dimethyl ester",433.35,le15,1
Nc1ccc(O)c2c1C(=O)c1ccccc1C2=O,"9,10-Anthracenedione, 1-amino-4-hydroxy-",535.8499999999998,le15,1
COc1ccc(CC(N)C(=O)O)cc1C(=O)O,"Hydrocinnamic acid, alpha-amino-3-carboxy-4-methoxy-, DL-",508.65,le15,1
CC(=O)N(O)c1ccc2c(c1)Cc1ccccc1-2,"Acetamide, N-9H-fluoren-2-yl-N-hydroxy- (9CI)",502.15,le15,1
CC(=O)Nc1ccc2c(c1)Cc1cc(O)ccc1-2,"Acetamide, N-(7-hydroxyfluoren-2-yl)- (8CI)",553.05,le15,1
CC(=O)Nc1ccc2c(c1)Cc1cccc(O)c1-2,"Acetamide, N-(5-hydroxy-9H-fluoren-2-yl)-",553.05,le15,1
CC(=O)Nc1cc2c(cc1O)-c1ccccc1C2,"Acetamide, N-(3-hydroxy-9H-fluoren-2-yl)- (9CI)",523.55,le15,1
CC(=O)Nc1ccc2c(c1O)Cc1ccccc1-2,"Acetamide, N-(1-hydroxy-9H-fluoren-2-yl)- (9CI)",513.45,le15,1
CNC(=O)Oc1ccccc1C1OCCS1,"Carbamic acid, methyl-, o-(1,3-oxathiolan-2-yl)phenyl ester",449.25,le15,1
CN(C)C(=O)C(c1ccccc1)c1ccccc1,"Benzeneacetamide, N,N-dimethyl-alpha-phenyl- (9CI)",446.45,le15,1
Cc1cc(N(C)C)ccc1N=Nc1ccccc1,"Benzenamine, N,N,3-trimethyl-4-(phenylazo)- (9CI)",463.35,le15,1
Cc1ccccc1NC(=N)Nc1ccccc1C,"Guanidine, N,N'-bis(2-methylphenyl)-",466.45,le15,1
Cc1ccccc1N=Nc1ccc(N(C)C)cc1,"Benzenamine, N,N-dimethyl-4-((2-methylphenyl)azo)- (9CI)",463.35,le15,1
CCN(CC)c1nc(NC(C)C)nc(OC)n1,"1,3,5-Triazine-2,4-diamine, N,N-diethyl-6-methoxy-N'-(1-methylethyl)-",449.25,le15,1
O=C(O)Cc1c(Cl)ccc(Cl)c1Cl,"Acetic acid, (2,3,6-trichlorophenyl)-",440.75,le15,1
Cl[Si](Cl)(Cl)CCc1ccccc1,"Silane, trichloro(2-phenylethyl)-",390.95,le15,1
CC(C)SSC(Cl)C(Cl)Cl,"Disulfide, isopropyl 1,2,2-trichloroethyl",368.15,le15,1
CC1(C)CON(Cc2ccccc2Cl)C1=O,"3-Isoxazolidinone, 2-((2-chlorophenyl)methyl)-4,4-dimethyl-",419.05,le15,1
O=C(OC(=O)C(Cl)Cl)C(Cl)Cl,"Acetic acid, dichloro-, anhydride",363.75,le15,1
ClCC1COC(C(Cl)(Cl)Cl)O1,"1,3-Dioxolane, 4-chloromethyl-2-(trichloromethyl)-",380.15,le15,1
CCCCCCCCI,1-iodooctane,368.15,le15,1
O=[N+]([O-])O.O=[N+]([O-])O.OCCOCCOCCO,"Ethanol, 2,2'-(1,2-ethanediylbis(oxy))bis-, dinitrate",420.05,le15,1
O=C1c2ccccc2C(=O)c2c1ccc(O)c2O,"9,10-Anthracenedione, 1,2-dihydroxy-",501.15,le15,1
O=C1c2ccccc2C(=O)c2c(O)ccc(O)c21,"9,10-Anthracenedione, 1,4-dihydroxy-",495.15,le15,1
O=C1c2ccc(O)cc2C(=O)c2ccc(O)cc21,"9,10-Anthracenedione, 2,6-dihydroxy-",508.45,le15,1
O=C1c2cccc(O)c2C(=O)c2c(O)cccc21,"9,10-Anthracenedione, 1,8-dihydroxy-",514.8499999999998,le15,1
O=C1c2cccc(O)c2C(=O)c2cccc(O)c21,"9,10-Anthracenedione, 1,5-dihydroxy-",514.8499999999998,le15,1
O=C1c2ccccc2C(=O)c2c(O)cc(O)cc21,"9,10-Anthracenedione, 1,3-dihydroxy- (9CI)",552.15,le15,1
CC(C)(C)c1cc([N+](=O)[O-])cc([N+](=O)[O-])c1O,"Phenol, 2-(1,1-dimethylethyl)-4,6-dinitro- (9CI)",398.15,le15,1
CC(C)(C)c1cc([N+](=O)[O-])c(O)c([N+](=O)[O-])c1,"Phenol, 4-(1,1-dimethylethyl)-2,6-dinitro-",382.45,le15,1
COC(=O)c1ccccc1C(=O)c1ccccc1,"Benzoic acid, o-benzoyl-, methyl ester (8CI)",427.55,le15,1
Cc1ccc(C(=O)c2ccccc2)c(C(=O)O)c1,"Benzoic acid, 6-benzoyl-3-methyl- (9CI)",517.55,le15,1
NC1=C2C(=O)c3ccccc3C(=O)C2=C(N)CC1,"Anthraquinone, 1,4-diamino-2,3-dihydro- (8CI)",453.85,le15,1
Nc1ccc(C=Cc2ccc([N+](=O)[O-])cc2)cc1,"Benzenamine, 4-(2-(4-nitrophenyl)ethenyl)-",477.85,le15,1
CCOP(=O)(OCC)OC(C)=CSC,"Phosphoric acid, diethyl 1-methyl-2-(methylthio)ethenyl ester (9CI)",389.55,le15,1
c1ccc2c(c1)cc1c3c2ccc2cccc(c23)C1,4H-Cyclopenta(def)chrysene,502.65,le15,1
O=C(Cc1ccccc1)OCCc1ccccc1,"Benzeneacetic acid, 2-phenylethyl ester",418.95,le15,1
c1ccc(Cc2ccccc2OCC2CO2)cc1,"Propane, 1,2-epoxy-3-((alpha-phenyl-o-tolyl)oxy)- (7CI,8CI)",418.05,le15,1
c1ccc(Cc2ccc(OCC3CO3)cc2)cc1,"Propane, 1,2-epoxy-3-((alpha-phenyl-p-tolyl)oxy)- (7CI,8CI)",424.55,le15,1
CN(C(=O)N(C)c1ccccc1)c1ccccc1,"1,3-dimethyl-1,3-diphenylurea",415.75,le15,1
O=C(Cc1ccccc1)NNCc1ccccc1,"Acetic acid, phenyl-, 2-benzylhydrazide",416.75,le15,1
C=CCC(CC=C)(C(=O)OCC)C(=O)OCC,"diethyl 2,2-bis(prop-2-enyl)propanedioate",379.87800000000004,le15,1
Cc1cc(N=Nc2ccccc2C)c(N)cc1N,"Toluene-2,4-diamine, 5-(o-tolylazo)- (8CI)",510.75,le15,1
Cc1ccc2nc(-c3ccc(N)cc3)sc2c1,"Benzenamine, 4-(6-methyl-2-benzothiazolyl)-",490.45,le15,1
CN(C)CCC(c1ccccc1)c1ccccn1,"2-Pyridinepropanamine, N,N-dimethyl-gamma-phenyl- (9CI)",437.65,le15,1
CN(C)c1ccc(-c2ccc(N(C)C)cc2)cc1,"(1,1'-Biphenyl)-4,4'-diamine, N4,N4,N4',N4'-tetramethyl-",446.55,le15,1
C[C@@H]1C[C@@H]2c3cccc4[nH]cc(c34)C[C@H]2N(C)C1,"Ergoline, 6,8beta-dimethyl- (8CI)",473.35,le15,1
C=CCCCCCCCCC(=O)OCCCC,"10-Undecenoic acid, butyl ester",401.15,le15,1
S=C(NC1CCCCC1)NC1CCCCC1,"Urea, 1,3-dicyclohexyl-2-thio-",435.75,le15,1
O=c1c(Cl)c(Cl)cnn1-c1ccccc1,"4,5-Dichloro-2,3-dihydro-2-phenylpyridazin-3-one",441.45,le15,1
CS(=O)(=O)Oc1ccc(Cl)cc1Cl,"Phenol, 2,4-dichloro-, methanesulfonate",441.95,le15,1
O=C(O)c1ccccc1C(=O)Nc1ccccc1,"Benzoic acid, 2-((phenylamino)carbonyl)-",443.85,le15,1
O=C(NN=C1C=CC(=NO)C=C1)c1ccccc1,"Benzoic acid, (4-(hydroxyimino)-2,5-cyclohexadien-1-ylidene)hydrazide",451.05,le15,1
COc1ccccc1OCC(O)COC(N)=O,"1,2-Propanediol, 3-(2-methoxyphenoxy)-, 1-carbamate",512.75,le15,1
Nc1c2ncn(Cc3ccccc3)c2nc[n+]1[O-],9-Benzyladenine 1-oxide,537.65,le15,1
Cc1cccc(Nc2ccccc2C(=O)O)c1C,"Benzoic acid, 2-((2,3-dimethylphenyl)amino)-",468.15,le15,1
Nc1ccccc1C(=O)OCCc1ccccc1,"Benzoic acid, 2-amino-, 2-phenylethyl ester",509.25,le15,1
CCOC(=O)N(c1ccccc1)c1ccccc1,"ethyl N,N-diphenylcarbamate",444.65,le15,1
CNC(=O)Oc1cc(C)c(S(C)=O)c(C)c1,"Carbamic acid, methyl-, 4-(methylsulfinyl)-3,5-xylyl ester",468.25,le15,1
Nc1c(Cl)c(Cl)nc(C(=O)O)c1Cl,"2-Pyridinecarboxylic acid, 4-amino-3,5,6-trichloro-",481.25,le15,1
CC1(C)C(=O)N(Br)C(=O)N1Cl,"2,4-Imidazolidinedione, 3-bromo-1-chloro-5,5-dimethyl-",367.65,le15,1
OCCOc1cc(Cl)c(Cl)cc1Cl,"Ethanol, 2-(2,4,5-trichlorophenoxy)-",434.65,le15,1
CCCCC(CC)CNCC(CC)CCCC,"1-Hexanamine, 2-ethyl-N-(2-ethylhexyl)-",401.15,le15,1
CCCCCCCCCCCCCCCCN,1-Hexadecanamine,413.15,le15,1
CCOP(=O)(OC=CCl)N(CC)CC,"Phosphoramidic acid, diethyl-, 2-chloroethenyl ethyl ester",382.15,le15,1
FC(Br)C(F)(F)Br,"1,2-dibromo-1,1,2-trifluoroethane",274.15,le15,1
Oc1cc(Cl)c(Br)cc1Cl,"Phenol, 4-bromo-2,5-dichloro-",391.35,le15,1
Oc1c(Cl)cc(Br)cc1Cl,"Phenol, 4-bromo-2,6-dichloro- (8CI)(9CI)",376.05,le15,1
Brc1ccsc1Br,"2,3-dibromothiophene",324.85,le15,1
Brc1cscc1Br,"3,4-dibromothiophene",363.55,le15,1
Brc1ccc(Br)s1,"2,5-dibromothiophene",372.55,le15,1
N#CC(=Cc1ccc(Cl)cc1Cl)C(=O)O,"2-Propenoic acid, 2-cyano-3-(2,4-dichlorophenyl)- (9CI)",474.15,le15,1
CCOC(=O)C(F)(F)C(F)(F)C(F)(F)F,"ethyl 2,2,3,3,4,4,4-heptafluorobutanoate",287.5499999999999,le15,1
CC(C)(Br)C(=O)Nc1ccccc1,2-Bromo-2-methyl-N-phenylpropanamide,442.45,le15,1
CCC(=O)O.CCC(=O)O.O=C1OC(=O)C(O)=C1O,"Maleic anhydride, dihydroxy-, dipropionate",424.65,le15,1
Oc1ccc(O)c2c(O)c3ccccc3c(O)c12,"1,4,9,10-Tetrahydroxyanthracene",595.8499999999998,le15,1
O=C(OOC(=O)c1ccccc1)c1ccccc1,"Peroxide, dibenzoyl",427.389,le15,1
CC(C)(C)c1ccc2nc(C(F)(F)F)[nH]c2c1,"Benzimidazole, 5-tert-butyl-2-(trifluoromethyl)-",413.85,le15,1
CC(C)=CCC1=C(O)C(=O)c2ccccc2C1=O,"1,4-Naphthalenedione, 2-hydroxy-3-(3-methyl-2-butenyl)- (9CI)",482.15,le15,1
Cc1cccc(C)c1Nc1ncccc1C(=O)O,"3-Pyridinecarboxylic acid, 2-((2,6-dimethylphenyl)amino)- (9CI)",465.25,le15,1
Cc1cc2ccccc2c2cc3ccccc3cc12,"Benz(a)anthracene, 6-methyl-",490.95,le15,1
Cc1cccc2c1ccc1cc3ccccc3cc12,"Benz(a)anthracene, 4-methyl-",490.95,le15,1
Cc1cc2c3ccccc3ccc2c2ccccc12,"Chrysene, 6-methyl-",490.95,le15,1
Cc1cc2cc3ccccc3cc2c2ccccc12,"Benz(a)anthracene, 5-methyl-",490.95,le15,1
Cc1ccc2cc3ccc4ccccc4c3cc2c1,"Benz(a)anthracene, 10-methyl-",490.95,le15,1
Cc1cccc2cc3c(ccc4ccccc43)cc12,"Benz(a)anthracene, 8-methyl-",490.95,le15,1
Cc1c2ccccc2cc2ccc3ccccc3c12,"Benz(a)anthracene, 12-methyl-",490.95,le15,1
Cc1ccc2c(ccc3cc4ccccc4cc32)c1,"Benz(a)anthracene, 3-methyl-",490.95,le15,1
Cc1cccc2ccc3cc4ccccc4cc3c12,"Benz(a)anthracene, 1-methyl-",490.95,le15,1
Cc1cccc2c1ccc1c3ccccc3ccc21,"Chrysene, 1-methyl-",490.95,le15,1
Cc1ccc2cc3c(ccc4ccccc43)cc2c1,"Benz(a)anthracene, 9-methyl-",490.95,le15,1
Cc1ccc2ccc3cc4ccccc4cc3c2c1,"Benz(a)anthracene, 2-methyl-",490.95,le15,1
CCCCCCC(=O)OC(=O)CCCCCC,heptanoyl heptanoate,403.05,le15,1
CCCCCCCCCCCCCCC(=O)O,pentadecanoic acid,422.75,le15,1
CCCCCCCOC(=O)CCCCCCC,heptyl octanoate,403.15,le15,1
CCCCCCCCOCCCCCCCC,1-octoxyoctane,386.65,le15,1
CCCCC(CC)COCC(CC)CCCC,"Heptane, 3,3'-(oxybis(methylene))bis-",380.65,le15,1
CCCCCCCCCCCCCCC(C)O,Hexadecan-2-ol,384.45,le15,1
O=C1c2ccccc2C(=O)c2cc(Cl)ccc21,"9,10-Anthracenedione, 2-chloro-",452.85,le15,1
O=C1c2ccccc2C(=O)c2c(Cl)cccc21,"9,10-Anthracenedione, 1-chloro-",452.85,le15,1
ClC(Cl)(Br)Br,dibromo(dichloro)methane,309.35,le15,1
CC(C)NNC(=O)COc1ccc(Cl)cc1,"Acetic acid, (4-chlorophenoxy)-, 2-(1-methylethyl)hydrazide (9CI)",430.45,le15,1
COc1c2cc3c(cc2nc2occc12)OCO3,"1,3-Dioxolo(4,5-g)furo(2,3-b)quinoline, 9-methoxy-",474.15,le15,1
Nc1ccn([C@@H]2O[C@H](CO)[C@@H](O)[C@@H]2O)c(=O)n1,"2(1H)-Pyrimidinone, 4-amino-1-beta-D-arabinofuranosyl-",556.95,le15,1
Nc1cc2c3ccccc3ccc2c2ccccc12,Chrysen-6-ylamine,560.05,le15,1
Cc1c2ccccc2nc2c1ccc1ccccc12,"Benz(c)acridine, 7-methyl-",478.65,le15,1
CCCCCCCCCCCC(=O)NCCO,"Dodecanamide, N-(2-hydroxyethyl)-",475.35,le15,1
O=C(O)Cn1c(=O)sc2cccc(Cl)c21,"3(2H)-Benzothiazoleacetic acid, 4-chloro-2-oxo-",510.25,le15,1
CCCCC(Br)CBr,"Hexane, 1,2-dibromo-",356.35,le15,1
BrCCCCCCBr,"Hexane, 1,6-dibromo-",383.95,le15,1
OC(c1ccccc1)(C(F)(F)F)C(F)(F)F,"1,1,1,3,3,3-hexafluoro-2-phenylpropan-2-ol",333.15,le15,1
O=c1c2cc(O)ccc2oc2cc(O)cc(O)c12,"Xanthen-9-one, 1,3,7-trihydroxy-",497.85,le15,1
O=[N+]([O-])c1ccc(-c2ccc([N+](=O)[O-])cc2)cc1,"1,1'-Biphenyl, 4,4'-dinitro-",481.95,le15,1
O=[N+]([O-])c1ccccc1-c1ccccc1[N+](=O)[O-],1-nitro-2-(2-nitrophenyl)benzene,461.05,le15,1
Nc1ncn([C@@H]2O[C@H](CO)[C@@H](O)[C@H]2O)c(=O)n1,"s-Triazin-2(1H)-one, 4-amino-1-beta-D-ribofuranosyl- (8CI)",550.15,le15,1
Nc1cnn([C@@H]2O[C@H](CO)[C@@H](O)[C@H]2O)c(=O)n1,"1,2,4-Triazin-3(2H)-one, 5-amino-2-beta-D-ribofuranosyl-",550.15,le15,1
COC(=O)c1ccc2cc(C(=O)OC)ccc2c1,"dimethyl naphthalene-2,6-dicarboxylate",462.35,le15,1
COc1ccc(C(=O)c2ccccc2O)c(O)c1,"Methanone, (2-hydroxy-4-methoxyphenyl)(2-hydroxyphenyl)-",419.15,le15,1
c1ccc2c(c1)-c1cc3ccccc3cc1C1OC21,"Benz(3,4)anthra(1,2-b)oxirene, 1a,11b-dihydro- (9CI)",485.55,le15,1
OC(COc1ccccc1)COc1ccccc1,"2-Propanol, 1,3-diphenoxy-",466.95,le15,1
COc1ccc2ccc(=O)oc2c1CC=C(C)C,"2H-1-Benzopyran-2-one, 7-methoxy-8-(3-methyl-2-butenyl)- (9CI)",440.75,le15,1
CC1CN1C(=O)c1cccc(C(=O)N2CC2C)c1,"Aziridine, 1,1'-(1,3-phenylenedicarbonyl)bis(2-methyl-",484.05,le15,1
CCOP(=O)(OCC)SCSCC,"Phosphorothioic acid, O,O-diethyl S-(ethylthio)methyl ester",399.15,le15,1
c1ccc(C(c2ccccc2)c2ccccc2)cc1,"Methane, triphenyl- (8CI)",433.45,le15,1
CCC1C(c2ccccc2)=CCC(C(=O)O)C1C,"3-Cyclohexene-1-carboxylic acid, 5-ethyl-6-methyl-4-phenyl-",456.45,le15,1
CCCCCCC(C(=O)OCC)C(=O)OCC,diethyl 2-hexylpropanedioate,395.85,le15,1
CCCSP(=S)(OC)SCCC,"Phosphorotrithioic acid, O-methyl S,S-dipropyl ester",411.05,le15,1
CCCCNC(=S)N(CCCC)CCCC,"Urea, 1,1,3-tributyl-2-thio- (8CI)",416.55,le15,1
CCCCCCCCCCCCNC(N)=S,"Urea, 1-dodecyl-2-thio-",434.75,le15,1
Nc1cc2nc3ccc(Cl)cc3nc2cc1N,"2,3-Phenazinediamine, 7-chloro-",544.45,le15,1
COC(=O)Nc1ccc(S(=O)(=O)NN)cc1,"Benzenesulfonic acid, 4-((methoxycarbonyl)amino)-, hydrazide (9CI)",549.3499999999998,le15,1
c1ccc(N(c2ccccc2)c2ccccc2)cc1,"Benzenamine, N,N-diphenyl-",430.45,le15,1
CN(C)CCN(Cc1ccco1)c1ccccn1,"Pyridine, 2-((2-(dimethylamino)ethyl)furfurylamino)- (8CI)",447.35,le15,1
O=C1C(Cl)=C(Cl)C(=O)C(Cl)=C1Cl,"2,5-Cyclohexadiene-1,4-dione, 2,3,5,6-tetrachloro-",384.85,le15,1
CCOC(=O)C(Br)Br,"ethyl 2,2-dibromoacetate",342.65,le15,1
COC(=O)C(Br)CBr,"methyl 2,3-dibromopropanoate",344.25,le15,1
COc1cc(Cl)c(Cl)c(Cl)c1Cl,"Benzene, 1,2,3,4-tetrachloro-5-methoxy-",390.75,le15,1
O=C(O)C(F)(F)C(F)(F)C(F)(F)C(F)F,"Pentanoic acid, 2,2,3,3,4,4,5,5-octafluoro-",323.0499999999999,le15,1
COc1c(OC)c2occc2c2oc(=O)ccc12,"2H-Furo(2,3-h)-1-benzopyran-2-one, 5,6-dimethoxy-",493.65,le15,1
O=C(c1ccc(O)cc1O)c1ccc(O)cc1O,"Benzophenone, 2,2',4,4'-tetrahydroxy-",562.3499999999998,le15,1
COc1c2ccoc2c(OC)c2oc(=O)ccc12,"7H-Furo(3,2-g)(1)benzopyran-7-one, 4,9-dimethoxy- (8CI)(9CI)",498.25,le15,1
C=CCOC(=O)c1ccccc1C(=O)OCC=C,"1,2-Benzenedicarboxylic acid, di-2-propenyl ester",439.15,le15,1
CCC1(c2ccccc2)C(=O)NC(=O)N(C)C1=O,"2,4,6(1H,3H,5H)-Pyrimidinetrione, 5-ethyl-1-methyl-5-phenyl-",466.35,le15,1
CC(=O)N[C@@H](Cc1c[nH]c2ccccc12)C(=O)O,"Tryptophan, N-acetyl-, L-",581.75,le15,1
Nc1ccc(Sc2ccc([N+](=O)[O-])cc2)cc1,"Aniline, p-((p-nitrophenyl)thio)- (6CI,7CI,8CI)",516.65,le15,1
CCS(=O)CCSP(=O)(OC)OC,"Phosphorothioic acid, S-(2-(ethylsulfinyl)ethyl) O,O-dimethyl ester",455.35,le15,1
Cc1c2ccncc2c(C)c2c1[nH]c1ccccc12,"6H-Pyrido(4,3-b)carbazole, 5,11-dimethyl-",500.25,le15,1
CS(=O)(=O)OCCCCOS(C)(=O)=O,"1,4-Butanediol, dimethanesulfonate",507.55,le15,1
Cc1ccc(S(=O)(=O)c2ccc(C)cc2)cc1,1-methyl-4-(4-methylphenyl)sulfonylbenzene,506.15,le15,1
CCCCC(CC)(COC(N)=O)COC(N)=O,"1,3-Propanediol, 2-butyl-2-ethyl-, dicarbamate",489.75,le15,1
CCOP(=S)(CC)Sc1ccccc1,"Phosphonodithioic acid, ethyl-, O-ethyl S-phenyl ester",422.65,le15,1
CCCSP(C)(=S)Oc1ccccc1,"Phosphonodithioic acid, methyl-, O-phenyl S-propyl ester",422.65,le15,1
c1ccc(CSSCc2ccccc2)cc1,Benzyl disulfide (8CI),422.15,le15,1
c1ccc(SCCSc2ccccc2)cc1,"Benzene, 1,1'-(1,2-ethanediylbis(thio))bis-",457.75,le15,1
CO[Si](CCC1CCC2OC2C1)(OC)OC,"Silane, trimethoxy(2-(7-oxabicyclo(4.1.0)hept-3-yl)ethyl)-",362.85,le15,1
CC(C)(C)c1cc(C(C)(C)C)cc(C(C)(C)C)c1,"Benzene, 1,3,5-tris(1,1-dimethylethyl)-",372.25,le15,1
CCCCCCCCCCCCc1ccccc1,"Dodecane, 1-phenyl- (8CI)",413.75,le15,1
O=C(O)c1cc([N+](=O)[O-])c(Cl)c([N+](=O)[O-])c1,"4-chloro-3,5-dinitrobenzoic acid",482.55,le15,1
CC[Si](CC)(CC)O[Si](CC)(CC)CC,triethyl(triethylsilyloxy)silane,350.15,le15,1
Fc1c(F)c(F)c(Br)c(F)c1F,"1-bromo-2,3,4,5,6-pentafluorobenzene",360.95,le15,1
Cc1c(OP(=O)([O-])[O-])ccc([N+](=O)[O-])c1C,"Phosphoric acid, dimethyl-4-nitrophenyl ester (9CI)",417.45,le15,1
O=[N+]([O-])c1cc2ccc3cccc4ccc(c1)c2c34,"Pyrene, 2-nitro-",503.45,le15,1
O=[N+]([O-])c1ccc2ccc3cccc4ccc1c2c34,"Pyrene, 1-nitro-",496.65,le15,1
CCOC(=O)C1(c2ccccc2)CCN(C)CC1,"4-Piperidinecarboxylic acid, 1-methyl-4-phenyl-, ethyl ester",384.75,le15,1
CCOc1nc(C(Cl)(Cl)Cl)ns1,"1,2,4-Thiadiazole, 5-ethoxy-3-(trichloromethyl)-",380.95,le15,1
Oc1c(Cl)c(Cl)c(O)c(Cl)c1Cl,"1,4-Benzenediol, 2,3,5,6-tetrachloro-",400.05,le15,1
Oc1c(O)c(Cl)c(Cl)c(Cl)c1Cl,"3,4,5,6-Tetrachloro-1,2-benzenediol  (9CI)",413.85,le15,1
NC(=O)C(=Cc1ccc([N+](=O)[O-])o1)c1ccco1,"2-Furanacetamide, alpha-((5-nitro-2-furanyl)methylene)- (9CI)",504.95,le15,1
CP(=O)(Oc1ccccc1)Oc1ccccc1,"Phosphonic acid, methyl-, diphenyl ester",383.15,le15,1
CCOP(=S)(OCC)Oc1cnccn1,"Phosphorothioic acid, O,O-diethyl O-pyrazinyl ester",412.65,le15,1
Oc1ccc2ccccc2c1N=Nc1ccccc1,"2-Naphthalenol, 1-(2-phenyldiazenyl)-",563.346,le15,1
COc1cc2c(CCNC(C)=O)c[nH]c2cc1O,"Acetamide, N-(2-(6-hydroxy-5-methoxy-1H-indol-3-yl)ethyl)- (9CI)",568.45,le15,1
Nc1ccc(S(=O)(=O)c2ccc(N)cc2)cc1,"Benzenamine, 4,4'-sulfonylbis-",536.3499999999998,le15,1
C=C(C)C(=O)OCCC[Si](OC)(OC)OC,"2-Propenoic acid, 2-methyl-, 3-(trimethoxysilyl)propyl ester",365.15,le15,1
CCc1nc(N)nc(N)c1-c1ccc(Cl)cc1,"Pyrimidine, 2,4-diamino-5-(p-chlorophenyl)-6-ethyl-",524.15,le15,1
O=[N+]([O-])c1ccc(I)cc1,1-iodo-4-nitrobenzene,373.15,le15,1
O=[N+]([O-])c1ccccc1I,1-iodo-2-nitrobenzene,396.05,le15,1
O=[N+]([O-])c1cccc(I)c1,"Benzene, 1-iodo-3-nitro-",344.85,le15,1
CON(C)C(=O)Nc1ccc(Cl)c(Cl)c1,"Urea, N'-(3,4-dichlorophenyl)-N-methoxy-N-methyl-",284.15,le15,1
Brc1ccc(Oc2ccccc2)cc1,"Ether, p-bromophenyl phenyl (8CI)",391.55,le15,1
NC(=S)N=NNc1ccc(Cl)c(Cl)c1,"1-Triazene-1-carbothioamide, 3-(3,4-dichlorophenyl)- (9CI)",442.25,le15,1
CCCCCCCCCCCCBr,1-bromododecane,383.15,le15,1
CNC(=O)Oc1ccccc1C1OCC=CCO1,"Carbamic acid, methyl-, o-(4,7-dihydro-1,3-dioxepin-2-yl)phenyl ester",442.75,le15,1