smiles,compound,flashpoint,source,pure substance
CCCC#N,n-Butyronitrile,299.15,hazardous materials,1
CC12CCC(CC1=O)C2(C)C,Camphor,339.15,hazardous materials,1
CCCCCC(=O)O,Caproic acid,375.15,hazardous materials,1
CCCCCCCC=O,Caprylaldehyde,325.15,hazardous materials,1
S=C=S,Carbon disulphide,243.14999999999998,hazardous materials,1
O=CCCl,Chloroacetaldehyde,361.15,hazardous materials,1
Clc1ccccc1,Chlorobenzene,302.15,hazardous materials,1
O=[N+]([O-])c1ccc(Cl)c([N+](=O)[O-])c1,"1-Chloro-2,4-dinitrobenzene ",467.15,hazardous materials,1
Clc1cccc2ccccc12,Chloronaphthalene,405.15,hazardous materials,1
CCC(Cl)[N+](=O)[O-],1-Chloro-1-nitropropane,335.15,hazardous materials,1
Oc1ccccc1Cl,o-Chlorophenol,337.15,hazardous materials,1
Oc1ccc(Cl)cc1,p-Chlorophenol,394.15,hazardous materials,1
FC(F)=C(F)Cl,Chlorotrifluoroethylene,246.14999999999998,hazardous materials,1
O=CC=Cc1ccccc1,Cinnamaldehyde,322.15,hazardous materials,1
Cc1cccc(O)c1,m-Cresol,367.15,hazardous materials,1
Cc1ccccc1O,o-Cresol,354.15,hazardous materials,1
Cc1ccc(O)cc1,p-Cresol,367.15,hazardous materials,1
C/C=C/C=O,Crotonaldehyde,286.15,hazardous materials,1
CC(C)c1ccccc1,Cumene,317.15,hazardous materials,1
CC(C)c1ccccc1.[O-]O,Cumene hydroperoxide,352.15,hazardous materials,1
C1CCCCC1,Cyclohexane,253.14999999999998,hazardous materials,1
OC1CCCCC1,Cyclohexanol,341.15,hazardous materials,1
O=C1CCCCC1,Cyclohexanone,317.15,hazardous materials,1
NC1CCCCC1,Cyclohexylamine,305.15,hazardous materials,1
c1ccc(C2CCCCC2)cc1,Cyclohexylbenzene,372.15,hazardous materials,1
C1CCCC1,Cyclopentane,266.15,hazardous materials,1
O=C1CCCC1,Cyclopentanone,299.15,hazardous materials,1
Cc1ccc(C(C)C)cc1,p-Cymene,320.15,hazardous materials,1
C1CCC2CCCCC2C1,Decahydronaphthalene,330.15,hazardous materials,1
CC(C)CCCCCCC=O,iso-Decaldehyde,358.15,hazardous materials,1
CCCCCCCCCC,n-Decane,319.15,hazardous materials,1
CCCCCCCCCCO,n-Decyl alcohol,355.15,hazardous materials,1
CC(=O)CC(C)(C)O,Diacetone alcohol,337.15,hazardous materials,1
CCCCNCCCC,Dibutylamine,325.15,hazardous materials,1
CCCC[Sn](Cl)(Cl)CCCC,Dibutyldichlorotin,628.15,hazardous materials,1
CCCCOCCCC,Di-n-butyl ether,298.15,hazardous materials,1
CCCCOC(=O)C(=O)OCCCC,Dibutyl oxalate,377.15,hazardous materials,1
CCCCOOCCCC,Dibutyl peroxide,291.15,hazardous materials,1
CCCCOP([O-])OCCCC,Dibutyl phosphite,322.15,hazardous materials,1
CCCCOC(=O)c1ccccc1C(=O)OCCCC,Dibutyl phthalate,430.15,hazardous materials,1
CCCCOC(=O)C(O)C(O)C(=O)OCCCC,Dibutyl tartrate,364.15,hazardous materials,1
O=C(Cl)C(Cl)Cl,Dichloroacetyl chloride,339.15,hazardous materials,1
Nc1cc(Cl)ccc1Cl,"2,5-Dichloroaniline ",439.15,hazardous materials,1
Clc1ccccc1Cl,o-Dichlorobenzene,339.15,hazardous materials,1
ClCCCCCl,"1,4-Dichlorobutane ",325.15,hazardous materials,1
CC(Cl)=CCCl,"1,3-Dichloro-2-butene ",300.15,hazardous materials,1
CC(Cl)Cl,"1,1-Dichloroethane ",267.15,hazardous materials,1
CC(Cl)(Cl)[N+](=O)[O-],"1,1-Dichloro-1-nitroethane ",349.15,hazardous materials,1
Oc1ccc(Cl)cc1Cl,"2,4-Dichlorophenol ",387.15,hazardous materials,1
CC(Cl)CCl,"1,2-Dichloropropane ",289.15,hazardous materials,1
ClCCCCl,"1,3-Dichloropropane ",308.15,hazardous materials,1
C1CCC(NC2CCCCC2)CC1,Dicyclohexylamine,372.15,hazardous materials,1
OCCNCCO,Diethanolamine,425.15,hazardous materials,1
CCN(CC)c1ccccc1,"N,N-Diethylaniline ",358.15,hazardous materials,1
CCOC(=O)OCC,Diethylcarbonate,298.15,hazardous materials,1
OCCOCCO,Diethylene glycol,397.15,hazardous materials,1
CCOCCOCCO,Diethylene glycol-monoethyl ether,369.15,hazardous materials,1
NCCNCCN,Diethylenetriamine,375.15,hazardous materials,1
CCC(=O)CC,Diethyl ketone,286.15,hazardous materials,1
CCOC(=O)CC(=O)OCC,Diethyl malonate,366.15,hazardous materials,1
CCOS(=O)(=O)OCC,Diethyl sulphate,377.15,hazardous materials,1
C1=COCCC1,"3,4-Dihydro-2H-pyran ",255.14999999999998,hazardous materials,1
CC(C)CC(=O)CC(C)C,Diisobutyl ketone,333.15,hazardous materials,1
CC(C)CC(O)CC(C)C,Diisobutyl carbinol,347.15,hazardous materials,1
CC(C)NC(C)C,Diisopropyl amine,272.15,hazardous materials,1
CC(C)OC(C)C,Diisopropyl ether,245.14999999999998,hazardous materials,1
CC(C)c1ccccc1C(C)C,Diisopropyl benzene,349.15,hazardous materials,1
COCCOC,Dimethoxyethane,313.15,hazardous materials,1
COCOC,Dimethoxymethane,255.14999999999998,hazardous materials,1
COC(C)(C)OC,Dimethoxypropane,266.15,hazardous materials,1
CC(=O)N(C)C,"N,N-Dimethyl acetamide ",350.15,hazardous materials,1
CN(C)c1ccccc1,"N,N-Dimethylaniline ",336.15,hazardous materials,1
CCC(C)(C)C,"2,2-Dimethyl butane ",225.14999999999998,hazardous materials,1
CC(C)C(C)C,"2,3-Dimethyl butane ",244.14999999999998,hazardous materials,1
COC(=O)OC,Dimethyl carbonate,292.15,hazardous materials,1
CN(C)C=O,Dimethylformamide,331.15,hazardous materials,1
COC(=O)c1ccccc1C(=O)OC,Dimethyl phthalate,419.15,hazardous materials,1
COS(=O)(=O)OC,Dimethyl sulphate,356.15,hazardous materials,1
CS(C)=O,Dimethyl sulphoxide,368.15,hazardous materials,1
O=[N+]([O-])c1cccc([N+](=O)[O-])c1,m-Dinitrobenzene,423.15,hazardous materials,1
O=[N+]([O-])c1ccccc1[N+](=O)[O-],o-Dinitrobenzene,423.15,hazardous materials,1
O=[N+]([O-])c1ccc([N+](=O)[O-])cc1,p-Dinitrobenzene,423.15,hazardous materials,1
Cc1ccc([N+](=O)[O-])cc1[N+](=O)[O-],"2,4-Dinitrotoluene ",480.15,hazardous materials,1
CCCCCCCCOC(=O)c1ccccc1C(=O)OCCCCCCCC,Di-n-Octyl phthalate,492.15,hazardous materials,1
CCCCCCC(C)OC(=O)c1ccccc1C(=O)OC(C)CCCCCC,Di-sec-Octyl phthalate,491.15,hazardous materials,1
C1COCCO1,"1,4-Dioxane ",285.15,hazardous materials,1
c1ccc(Nc2ccccc2)cc1,Diphenylamine,426.15,hazardous materials,1
c1ccc(Cc2ccccc2)cc1,Diphenylmethane,403.15,hazardous materials,1
COC(C)COC(C)CO,Dipropylene glycol methyl ether,358.15,hazardous materials,1
CCCCCCCCCCCC,n-Dodecane,347.15,hazardous materials,1
ClCC1CO1,Epichlorohydrin,314.15,hazardous materials,1
CC1CO1,"1,2-Epoxy-propane ",236.14999999999998,hazardous materials,1
CCO,Ethanol,285.15,hazardous materials,1
NCCO,Ethanolamine,358.15,hazardous materials,1
CCCC(=O)Nc1ccccc1,Ethyl acetanilide,325.15,hazardous materials,1
CCOC(C)=O,Ethyl acetate,268.75,hazardous materials,1
CCOC(=O)CC(C)=O,Ethyl acetoacetate,357.15,hazardous materials,1
C=CC(=O)OCC,Ethyl acrylate,289.15,hazardous materials,1
CCCCCC(=O)CC,Ethyl amyl ketone,330.15,hazardous materials,1
CCNc1ccccc1,n-Ethyl aniline,358.15,hazardous materials,1
CCc1ccccc1,Ethyl benzene,288.15,hazardous materials,1
CCOC(=O)CBr,Ethyl bromoacetate,321.15,hazardous materials,1
CCCCC(=O)CC,Ethyl butyl ketone,319.15,hazardous materials,1
CCC(C=O)CC,2-Ethyl butyraldehyde,294.15,hazardous materials,1
CCCC(=O)OCC,Ethyl butyrate,299.15,hazardous materials,1
CCCl,Ethyl chloride,223.14999999999998,hazardous materials,1
CCOC(=O)CCl,Ethyl chloroacetate,339.15,hazardous materials,1
CCOC(=O)Cl,Ethyl chloroformate,289.15,hazardous materials,1
C/C=C/C(=O)OCC,Ethyl crotonate,275.15,hazardous materials,1
CCOC(=O)CC#N,Ethyl cyanoacetate,383.15,hazardous materials,1
OCCCl,Ethylene chlorohydrin,333.15,hazardous materials,1
ClCCCl,Ethylene dichloride,286.15,hazardous materials,1
OCCO,Ethylene glycol,384.15,hazardous materials,1
CCOCC,Ethyl ether,228.14999999999998,hazardous materials,1
CCOC=O,Ethyl formate,253.14999999999998,hazardous materials,1
CCCCC(CC)CO,2-Ethyl hexanol,357.15,hazardous materials,1
CCOC(=O)C(C)O,Ethyl lactate,319.15,hazardous materials,1
CCOC,Ethyl methyl ether,236.14999999999998,hazardous materials,1
CCN1CCOCC1,N-Ethylmorpholine,305.15,hazardous materials,1
CCON=O,Ethyl nitrite,238.14999999999998,hazardous materials,1
CCOC(=O)C(=O)[O-],Ethyl oxalate,349.15,hazardous materials,1
CCOC(=O)CC,Ethyl propionate,285.15,hazardous materials,1
CCCC=C(C=O)CC,2-Ethyl-3-propyl acrolein,341.15,hazardous materials,1
CCO[Si]([O-])([O-])[O-],Ethyl silicate,325.15,hazardous materials,1
NC=O,Formamide,428.15,hazardous materials,1
O=CO,Formic acid,342.15,hazardous materials,1
O=Cc1ccco1,Furfural,333.15,hazardous materials,1
OCc1ccco1,Furfuryl alcohol,348.15,hazardous materials,1
OCC(O)CO,Glycerol,433.15,hazardous materials,1
CCCCCCC,Heptane,269.15,hazardous materials,1
CCCCCCCN,n-Heptylamine,327.15,hazardous materials,1
Clc1c(Cl)c(Cl)c(Cl)c(Cl)c1Cl,Hexachlorobenzene,515.15,hazardous materials,1
CC=CC=CC=O,"2,4-Hexadienal ",341.15,hazardous materials,1
C=CCC=CC,"1,4-Hexadiene ",252.14999999999998,hazardous materials,1
CCCCCC,Hexane,251.14999999999998,hazardous materials,1
CCCCCCO,n-Hexanol,333.15,hazardous materials,1
CCCCC(C)OC(C)=O,sec-Hexyl acetate,318.15,hazardous materials,1
CCCCCCN,Hexyl amine,302.15,hazardous materials,1
NN,Hydrazine,311.15,hazardous materials,1
C#N,Hydrocyanic acid,255.14999999999998,hazardous materials,1
COc1ccc(O)cc1,Hydroquinone monomethyl ether,404.15,hazardous materials,1
NO,Hydroxylamine,402.15,hazardous materials,1
C=CC(=C)C,Isoprene,219.14999999999998,hazardous materials,1
CC(O)C#N,Lactonitrile,350.15,hazardous materials,1
O=C1C=CC(=O)O1,Maleic anhydride,375.15,hazardous materials,1
C=C(C)C1CC=C(C)CC1,"p-Mentha-1,8-diene ",318.15,hazardous materials,1
OCCS,2-Mercaptoethanol,347.15,hazardous materials,1
CC(=O)C=C(C)C,Mesityl oxide,304.15,hazardous materials,1
COC(C)=O,Methyl acetate,264.15,hazardous materials,1
C=CC(=O)OC,Methyl acrylate,270.15,hazardous materials,1
CO,Methyl alcohol,285.15,hazardous materials,1
CCCCC(C)O,Methyl amyl alcohol,314.15,hazardous materials,1
CCCCNC,N-Methylbutylamine,286.15,hazardous materials,1
CCCCC(C)=O,Methyl butyl ketone,308.15,hazardous materials,1
CCCC(=O)OC,Methyl butyrate,287.15,hazardous materials,1
COC(=O)Cl,Methyl chloroformate,285.15,hazardous materials,1
CC1CCCCC1,Methyl cyclohexane,269.15,hazardous materials,1
CC1CCCCC1=O,2-Methyl cyclohexanone,321.15,hazardous materials,1
CC1CC=CCC1,4-Methyl cyclohexene,272.15,hazardous materials,1
COC,Methyl ether,232.14999999999998,hazardous materials,1
CCOC,Methyl ethyl ether,236.14999999999998,hazardous materials,1
CCC(C)=O,Methyl ethyl ketone,266.15,hazardous materials,1
COC=O,Methyl formate,254.14999999999998,hazardous materials,1
Cc1ccco1,2-Methyl furan,243.14999999999998,hazardous materials,1
CC(=O)CC(C)C,Methyl isobutyl ketone,296.15,hazardous materials,1
COC(=O)C(C)C,Methyl isobutyrate,286.15,hazardous materials,1
C=C(C)C(=O)OC,Methyl methacrylate,283.15,hazardous materials,1
CCCC(C)=O,Methyl-n-Propyl ketone,280.15,hazardous materials,1
COC(=O)c1ccccc1O,Methyl salicylate,374.15,hazardous materials,1
C=COC,Methyl vinyl ether,222.14999999999998,hazardous materials,1
CN,Monomethylamine,263.15,hazardous materials,1
C1COCCN1,Morpholine,311.15,hazardous materials,1
c1ccc2ccccc2c1,Naphthalene,352.15,hazardous materials,1
Oc1ccc2ccccc2c1,2-Naphthol,426.15,hazardous materials,1
Nc1cccc2ccccc12,1-Naphthylamine,430.15,hazardous materials,1
Nc1ccccc1[N+](=O)[O-],o-Nitroaniline,441.15,hazardous materials,1
Nc1ccc([N+](=O)[O-])cc1,p-Nitroaniline,472.15,hazardous materials,1
O=[N+]([O-])c1ccccc1,Nitrobenzene,361.15,hazardous materials,1
O=[N+]([O-])c1ccccc1-c1ccccc1,o-Nitrobiphenyl,416.15,hazardous materials,1
CC[N+](=O)[O-],Nitroethane,311.15,hazardous materials,1
C[N+](=O)[O-],Nitromethane,308.15,hazardous materials,1
O=[N+]([O-])c1cccc2ccccc12,alpha-Nitronaphthalene,437.15,hazardous materials,1
CCC[N+](=O)[O-],1-Nitropropane,322.15,hazardous materials,1
CC(C)[N+](=O)[O-],2-Nitropropane,312.15,hazardous materials,1
Cc1cccc([N+](=O)[O-])c1,m-Nitrotoluene,379.15,hazardous materials,1
Cc1ccccc1[N+](=O)[O-],o-Nitrotoluene,379.15,hazardous materials,1
Cc1ccc([N+](=O)[O-])cc1,p-Nitrotoluene,379.15,hazardous materials,1
CCCCCCCCCc1ccccc1O,Nonyl phenol,414.15,hazardous materials,1
CCCCCCCC,Octane,286.15,hazardous materials,1
CCCCCCCC(=O)O,Octanoic acid,405.15,hazardous materials,1
CCCCCCCCO,1-Octanol,354.15,hazardous materials,1
CCCCCCC(C)O,2-Octanol,361.15,hazardous materials,1
CCCCCCCC/C=C\CCCCCCCC(=O)O,Oleic acid,462.15,hazardous materials,1
CCCCC,n-Pentane,224.14999999999998,hazardous materials,1
CCC(C)C,iso-Pentane,222.14999999999998,hazardous materials,1
OCCCCCO,"1,5-Pentanediol ",408.15,hazardous materials,1
CC(=O)CC(C)=O,"2,4-Pentanedione ",314.15,hazardous materials,1
CCCC(C)O,2-Pentanol,312.15,hazardous materials,1
Oc1ccccc1,Phenol,352.15,hazardous materials,1
CC(=O)Oc1ccccc1,Phenyl acetate,353.15,hazardous materials,1
Nc1ccc(N)cc1,p-Phenylenediamine,429.15,hazardous materials,1
NCC(O)c1ccccc1,Phenylethanolamine,425.15,hazardous materials,1
c1ccc(Oc2ccccc2)cc1,Phenyl ether,369.15,hazardous materials,1
NNc1ccccc1,Phenylhydrazine,362.15,hazardous materials,1
Oc1ccccc1-c1ccccc1,o-Phenyl phenol,397.15,hazardous materials,1
CC(C)=CC(=O)C=C(C)C,Phorone,358.15,hazardous materials,1
O=C1OC(=O)c2ccccc21,Phthalic anhydride,424.15,hazardous materials,1
Cc1ccccn1,2-Picoline,312.15,hazardous materials,1
Cc1ccncc1,4-Picoline,330.15,hazardous materials,1
O=[N+]([O-])c1cc([N+](=O)[O-])c(O)c([N+](=O)[O-])c1,Picric acid,423.15,hazardous materials,1
CC1=CCC2CC1C2(C)C,2-Pinene,306.15,hazardous materials,1
C1CCNCC1,Piperidine,289.15,hazardous materials,1
C=CC=CC,Piperylene,230.14999999999998,hazardous materials,1
NCCCN,"1,3-Propanediamine ",297.15,hazardous materials,1
CC(O)CO,"1,2-Propanediol ",372.15,hazardous materials,1
C#CCO,Propargyl alcohol,309.15,hazardous materials,1
C#CCBr,Propargyl bromide,283.15,hazardous materials,1
C=C(C)OC(C)=O,iso-Propenyl acetate,289.15,hazardous materials,1
CCC=O,Propionaldehyde,264.15,hazardous materials,1
CCC(=O)O,Propionic acid,327.15,hazardous materials,1
CCC#N,Propionitrile,275.15,hazardous materials,1
CCC(=O)Cl,Propionyl chloride,285.15,hazardous materials,1
CC(=O)OC(C)C,iso-Propyl acetate,277.15,hazardous materials,1
CCCOC(C)=O,n-Propyl acetate,287.15,hazardous materials,1
CCCO,n-Propyl alcohol,288.15,hazardous materials,1
CC(C)O,iso-Propyl alcohol,285.15,hazardous materials,1
CCCN,Propylamine,236.14999999999998,hazardous materials,1
CC(C)N,iso-Propylamine,236.14999999999998,hazardous materials,1
CCCc1ccccc1,Propyl benzene,303.15,hazardous materials,1
CC(C)OC(=O)c1ccccc1,iso-Propyl benzoate,372.15,hazardous materials,1
C=CC,Propylene,165.14999999999998,hazardous materials,1
CC1COC(=O)O1,Propylene carbonate,408.15,hazardous materials,1
CC(C)OC(C)C,iso-Propyl ether,245.14999999999998,hazardous materials,1
CCCOC=O,n-Propyl formate,270.15,hazardous materials,1
CC(C)OC=O,iso-Propyl formate,267.15,hazardous materials,1
CCCO[N+](=O)[O-],Propyl nitrate,293.15,hazardous materials,1
c1ccncc1,Pyridine,293.15,hazardous materials,1
C1CCNC1,Pyrrolidine,276.15,hazardous materials,1
CC(=O)C(=O)O,Pyruvic acid,276.15,hazardous materials,1
Oc1cccc(O)c1,Resorcinol,400.15,hazardous materials,1
O=Cc1ccccc1O,Salicylaldehyde,351.15,hazardous materials,1
O=C(O)c1ccccc1O,Salicylic acid,430.15,hazardous materials,1
CCCCCCCCCCCCCCCCCC(=O)O,Stearic acid,469.15,hazardous materials,1
C=Cc1ccccc1,Styrene,304.15,hazardous materials,1
N#CCCC#N,Succinonitrile,405.15,hazardous materials,1
[S],Sulphur,480.15,hazardous materials,1
[S]Cl,Sulphur monochloride,391.15,hazardous materials,1
c1ccc(-c2cccc(-c3ccccc3)c2)cc1,m-Terphenyl,408.15,hazardous materials,1
c1ccc(-c2ccccc2-c2ccccc2)cc1,o-Terphenyl,436.15,hazardous materials,1
Clc1cc(Cl)c(Cl)cc1Cl,"1,2,4,5-Tetrachlorobenzene ",428.15,hazardous materials,1
CCCCCCCCCCCCCC,Tetradecane,373.15,hazardous materials,1
NCCNCCNCCNCCN,Tetraethylenepentamine,436.15,hazardous materials,1
CC[Pb](CC)(CC)CC,Tetraethyl lead,366.15,hazardous materials,1
C1CCOC1,Tetrahydrofuran,259.15,hazardous materials,1
c1ccc2c(c1)CCCC2,Tetrahydronaphthalene,344.15,hazardous materials,1
OCCSCCO,"2,2'-Thiodiethanol ",433.15,hazardous materials,1
c1ccsc1,Thiophene,272.15,hazardous materials,1
Cc1ccccc1,Toluene,277.54999999999995,hazardous materials,1
Cc1cccc(N)c1,m-Toluidine,359.15,hazardous materials,1
Cc1ccccc1N,o-Toluidine,358.15,hazardous materials,1
Cc1ccc(N)cc1,p-Toluidine,360.15,hazardous materials,1
CCCCCN(CCCCC)CCCCC,Triamylamine,375.15,hazardous materials,1
CCCCN(CCCC)CCCC,Tri-n-butyl amine,359.15,hazardous materials,1
CCCCOP(=O)(OCCCC)OCCCC,Tributyl phosphate,419.15,hazardous materials,1
Clc1ccc(Cl)c(Cl)c1,"1,2,4-Trichlorobenzene ",372.15,hazardous materials,1
ClCC(Cl)CCl,"1,2,3-Trichloropropane ",355.15,hazardous materials,1
CCCCCCCCCCCCCO,Tridecanol,394.15,hazardous materials,1
OCCN(CCO)CCO,Triethanolamine,452.15,hazardous materials,1
OCCOCCOCCO,Triethylene glycol,450.15,hazardous materials,1
NCCNCCNCCN,Triethylene-tetramine,408.15,hazardous materials,1
CN(C)C,Trimethyl amine,266.15,hazardous materials,1
CC(C)CC(C)(C)C,"2,2,4-Trimethyl pentane ",261.15,hazardous materials,1
CC(C)=CC(C)(C)C,"2,4,4-Trimethyl-2-pentene ",275.15,hazardous materials,1
C1OCOCO1,"1,3,5-Trioxane ",318.15,hazardous materials,1
O=P(Oc1ccccc1)(Oc1ccccc1)Oc1ccccc1,Triphenyl phosphate,493.15,hazardous materials,1
c1ccc(P(c2ccccc2)c2ccccc2)cc1,Triphenyl phosphine,453.15,hazardous materials,1
CCCN(CCC)CCC,Tripropylamine,314.15,hazardous materials,1
Cc1ccccc1OP(=O)(Oc1ccccc1C)Oc1ccccc1C,Tritolyl phosphate,498.15,hazardous materials,1
CCCCC=O,Valeraldehyde,285.15,hazardous materials,1
CCCCC(=O)O,Valeric acid,369.15,hazardous materials,1
C=COC(C)=O,Vinyl acetate,265.15,hazardous materials,1
C=CCl,Vinyl chloride,195.14999999999998,hazardous materials,1
C=C(Cl)Cl,Vinylidene chloride,258.15,hazardous materials,1
Cc1cccc(C)c1,m-Xylene,302.15,hazardous materials,1
Cc1ccccc1C,o-Xylene,305.15,hazardous materials,1
Cc1ccc(C)cc1,p-Xylene,300.15,hazardous materials,1
Cc1cccc(N)c1C,Xylidine,370.15,hazardous materials,1