compound,flashpoint,pure substance,smiles,source
3-methyl-2-butanethiol,282.0,1.0,CC(C(C)S)C,carroll11
cyclopentanethiol,298.0,1.0,C1(CCCC1)S,carroll11
cyclohexanethiol,314.0,1.0,C1(CCCCC1)S,carroll11
3-ethyl-3-pentanethiol,307.0,1.0,C(C)C(CC)(CC)S,carroll11
2-methyl-2-pentanethiol,293.0,1.0,CC(C)(CCC)S,carroll11
3-hexanethiol,303.0,1.0,CCC(CCC)S,carroll11
dimethylsulfide,237.0,1.0,CSC,carroll11
diethylsulfide,263.0,1.0,C(C)SCC,carroll11
dipropylsulfide,301.0,1.0,C(CC)SCCC,carroll11
dibutylsulfide,333.0,1.0,C(CCC)SCCCC,carroll11
ethylmethylsulfide,255.0,1.0,C(C)SC,carroll11
tert-butylmethylsulfide,270.0,1.0,C(C)(C)(C)SC,carroll11
thiacyclopentane,286.0,1.0,S1CCCC1,carroll11
thiacyclohexane,294.0,1.0,S1CCCCC1,carroll11
di-tert-butylsulfide,300.0,1.0,C(C)(C)(C)SC(C)(C)C,carroll11
di-sec-butylsulfide,312.0,1.0,C(C)(CC)SC(C)CC,carroll11
diisopentylsulfide,350.0,1.0,C(CC(C)C)SCCC(C)C,carroll11
diallylsulfide,296.0,1.0,C(C=C)SCC=C,carroll11
allylethylsulfide,289.0,1.0,C(C=C)SCC,carroll11
allylpropylsulfide,302.0,1.0,C(C=C)SCCC,carroll11
1-chlorohexane,299.0,1.0,ClCCCCCC,carroll11
1-chloroheptane,314.0,1.0,ClCCCCCCC,carroll11
1-chlorooctane,331.0,1.0,ClCCCCCCCC,carroll11
1-chlorononane,347.0,1.0,ClCCCCCCCCC,carroll11
1-chlorodecane,356.0,1.0,ClCCCCCCCCCC,carroll11
2-chloropropane,241.0,1.0,ClC(C)C,carroll11
2-chlorobutane,258.0,1.0,ClC(C)CC,carroll11
2-chloropentane,274.0,1.0,ClC(C)CCC,carroll11
3-chloropropene,245.0,1.0,ClCC=C,carroll11
2-chloro-2-methylpropane,250.0,1.0,ClC(C)(C)C,carroll11
1-chloro-2-methylpropane,256.0,1.0,ClCC(C)C,carroll11
chlorocyclopentane,288.0,1.0,ClC1CCCC1,carroll11
chlorocyclohexane,301.0,1.0,ClC1CCCCC1,carroll11
"1,1-dichloropropane",280.0,1.0,ClC(CC)Cl,carroll11
"1,1-dichloroethane",263.0,1.0,ClC(C)Cl,carroll11
"1,2-dichloroethane",286.0,1.0,ClCCCl,carroll11
"1,2-dichloropropane",286.0,1.0,ClCC(C)Cl,carroll11
"1,3-dichloropropane",294.0,1.0,ClCCCCl,carroll11
bromoethane,253.0,1.0,BrCC,carroll11
1-bromopropane,269.0,1.0,BrCCC,carroll11
1-bromobutane,283.0,1.0,BrCCCC,carroll11
1-bromopentane,303.0,1.0,BrCCCCC,carroll11
1-bromohexane,320.0,1.0,BrCCCCCC,carroll11
1-bromoheptane,334.0,1.0,BrCCCCCCC,carroll11
1-bromooctane,351.0,1.0,BrCCCCCCCC,carroll11
2-bromopentane,294.0,1.0,BrC(C)CCC,carroll11
2-bromohexane,313.0,1.0,BrC(C)CCCC,carroll11
3-bromopentane,292.0,1.0,BrC(CC)CC,carroll11
bromocyclopentane,308.0,1.0,BrC1CCCC1,carroll11
3-bromohexane,313.0,1.0,BrC(CC)CCC,carroll11
bromocyclohexane,335.0,1.0,BrC1CCCCC1,carroll11
iodoethane,268.0,1.0,ICC,carroll11
2-iodobutane,297.0,1.0,IC(C)CC,carroll11
1-iodobutane,306.0,1.0,ICCCC,carroll11
2-iodopentane,318.0,1.0,IC(C)CCC,carroll11
iodocyclopentane,325.0,1.0,IC1CCCC1,carroll11
3-iodohexane,328.0,1.0,IC(CC)CCC,carroll11
1-iodohexane,334.0,1.0,ICCCCCC,carroll11
1-iodoheptane,352.0,1.0,ICCCCCCC,carroll11
1-iodooctane,368.0,1.0,ICCCCCCCC,carroll11
dimethyldisulfide,283.0,1.0,CSSC,carroll11
diethyldisulfide,312.0,1.0,C(C)SSCC,carroll11
dipropyldisulfide,339.0,1.0,C(CC)SSCCC,carroll11
di-tert-butyldisulfide,340.0,1.0,C(C)(C)(C)SSC(C)(C)C,carroll11
dibutyldisulfide,366.0,1.0,C(CCC)SSCCCC,carroll11
ethylpropyldisulfide,330.0,1.0,C(C)SSCCC,carroll11
nitrocyclohexane,354.0,1.0,[N+](=O)([O-])C1CCCCC1,carroll11
nitrocyclopentane,340.0,1.0,[N+](=O)([O-])C1CCCC1,carroll11
nitroethane,301.0,1.0,[N+](=O)([O-])CC,carroll11
2-nitropropane,301.0,1.0,[N+](=O)([O-])C(C)C,carroll11
1-nitropropane,307.0,1.0,[N+](=O)([O-])CCC,carroll11
1-nitrobutane,320.0,1.0,[N+](=O)([O-])CCCC,carroll11
1-nitropentane,334.0,1.0,[N+](=O)([O-])CCCCC,carroll11
1-nitrohexane,345.0,1.0,[N+](=O)([O-])CCCCCC,carroll11
2-nitropentane,319.0,1.0,[N+](=O)([O-])C(C)CCC,carroll11
ethylvinylether,228.0,1.0,C(C)OC=C,carroll11
allylamine,245.0,1.0,C(C=C)N,carroll11
acrolein,254.0,1.0,C(=O)C=C,carroll11
"2,3-dihydrofuran",249.0,1.0,O1CCC=C1,carroll11
propylvinylether,251.0,1.0,C(CC)OC=C,carroll11
allylethylether,253.0,1.0,C(C=C)OCC,carroll11
tert-butylvinylether,256.0,1.0,C(C)(C)(C)OC=C,carroll11
2-methyl-2-propenal,258.0,1.0,CC(C=O)=C,carroll11
3-chloro-2-methyl-1-propene,261.0,1.0,ClCC(=C)C,carroll11
"2,3-dihydro-5-methylfuran",261.0,1.0,CC1=CCCO1,carroll11
isobutylvinylether,264.0,1.0,C(C(C)C)OC=C,carroll11
diallylether,266.0,1.0,C(C=C)OCC=C,carroll11
allylpropylether,268.0,1.0,C(C=C)OCCC,carroll11
acrylonitrile,268.0,1.0,C(C=C)#N,carroll11
methylacrylate,270.0,1.0,COC(C=C)=O,carroll11
ethylacrylate,281.0,1.0,C(C)OC(C=C)=O,carroll11
4-bromo-1-butene,282.0,1.0,BrCCC=C,carroll11
ethylmethacrylate,292.0,1.0,C(C)OC(C(=C)C)=O,carroll11
methylmethacrylate,283.0,1.0,COC(C(=C)C)=O,carroll11
butylmethacrylate,322.0,1.0,C(CCC)OC(C(=C)C)=O,carroll11
isobutylmethacrylate,314.0,1.0,C(C(C)C)OC(C(=C)C)=O,carroll11
isopropenylacetate,283.0,1.0,C(=C)(C)CC(=O)[O-],carroll11
allylformate,279.0,1.0,C(C=C)C(=O)[O-],carroll11
allylacetate,284.0,1.0,C(C=C)CC(=O)[O-],carroll11
allylpropanoate,298.0,1.0,C(C=C)OC(CC)=O,carroll11
allylbutanoate,315.0,1.0,C(C=C)OC(CCC)=O,carroll11
trans-2-butenal,282.0,1.0,C(\C=C\C)=O,carroll11
3-iodo-1-propene,289.0,1.0,ICC=C,carroll11
3-buten-2-ol,293.0,1.0,CC(C=C)O,carroll11
vinylacetate,265.0,1.0,C(=C)CC(=O)[O-],carroll11
vinylpropanoate,279.0,1.0,C(=C)OC(CC)=O,carroll11
vinylbutanoate,293.0,1.0,C(=C)OC(CCC)=O,carroll11
2-butenenitrile,290.0,1.0,C(C=CC)#N,carroll11
diallyldisulfide,335.0,1.0,C(C=C)SSCC=C,carroll11
4-penten-1-ol,316.0,1.0,C(CCC=C)O,carroll11
3-butenenitrile,294.0,1.0,C(CC=C)#N,carroll11
propylacrylate,297.0,1.0,C(CC)OC(C=C)=O,carroll11
mesityloxide,298.0,1.0,C1(=C(C(=CC(=C1)C)C)OC1=C(C=C(C=C1C)C)C)C,carroll11
styrene,304.0,1.0,C=CC1=CC=CC=C1,carroll11
propylmethacrylate,308.0,1.0,C(CC)OC(C(=C)C)=O,carroll11
3-buten-1-ol,305.0,1.0,C(CC=C)O,carroll11
2-methyl-2-propen-1-ol,306.0,1.0,CC(CO)=C,carroll11
butylacrylate,310.0,1.0,C(CCC)OC(C=C)=O,carroll11
4-methylstyrene,319.0,1.0,CC1=CC=C(C=C)C=C1,carroll11
4-pentenylacetate,318.0,1.0,C(CCC=C)CC(=O)[O-],carroll11
5-hexen-1-ol,320.0,1.0,C(CCCC=C)O,carroll11
3-methylstyrene,321.0,1.0,CC=1C=C(C=C)C=CC1,carroll11
acrylicacid,327.0,1.0,C(C=C)(=O)O,carroll11
2-cyclohexen-1-one,329.0,1.0,C1(C=CCCC1)=O,carroll11
trans-2-hexenylacetate,331.0,1.0,C(=C\CCCC)/CC(=O)[O-],carroll11
N-vinyl-N-methylacetamide,336.0,1.0,C(=C)N(C(C)=O)C,carroll11
"3,7-dimethyl-6-octenal",351.0,1.0,CC(CC=O)CCC=C(C)C,carroll11
isophorone,357.0,1.0,O=C1C=C(CC(C)(C)C1)C,carroll11
2-ethylhexylacrylate,359.0,1.0,C(C)C(COC(C=C)=O)CCCC,carroll11
trans-2-pentenoicacid,375.0,1.0,C(\C=C\CC)(=O)O,carroll11
citronellylacetate,376.0,1.0,C(CC(C)CCC=C(C)C)CC(=O)[O-],carroll11
9-decen-1-ol,392.0,1.0,C(CCCCCCCC=C)O,carroll11
5-chloro-1-pentyne,288.0,1.0,ClCCCC#C,carroll11
2-propyn-1-ol,309.0,1.0,C(C#C)O,carroll11
methyl2-octynoate,362.0,1.0,COC(C#CCCCCC)=O,carroll11
"1,1-dichloroethene",248.0,1.0,ClC(=C)Cl,carroll11
fluorobenzene,258.0,1.0,FC1=CC=CC=C1,carroll11
"2,2-dichloropropane",268.0,1.0,ClC(C)(C)Cl,carroll11
4-fluorotoluene,285.0,1.0,FC1=CC=C(C)C=C1,carroll11
4-fluorostyrene,308.0,1.0,FC1=CC=C(C=C)C=C1,carroll11
1-ethyl-4-fluorobenzene,303.0,1.0,C(C)C1=CC=C(C=C1)F,carroll11
"1,2-dimethyl-4-fluorobenzene",313.0,1.0,CC1=C(C=C(C=C1)F)C,carroll11
"1-fluoro-3,5-dimethylbenzene",308.0,1.0,FC1=CC(=CC(=C1)C)C,carroll11
"2,3-butanedione",283.0,1.0,CC(C(C)=O)=O,carroll11
2-fluorotoluene,285.0,1.0,FC1=C(C)C=CC=C1,carroll11
3-fluorotoluene,285.0,1.0,FC=1C=C(C)C=CC1,carroll11
"1,1-diethoxypropane",286.0,1.0,C(C)OC(CC)OCC,carroll11
N-methylmorpholine,287.0,1.0,CN1CCOCC1,carroll11
1-methylpyrrole,288.0,1.0,CN1C=CC=C1,carroll11
pyridine,290.0,1.0,N1=CC=CC=C1,carroll11
chloromethylmethylsulfide,290.0,1.0,ClCSC,carroll11
2-picoline,299.0,1.0,N1=C(C=CC=C1)C,carroll11
"1,2-dichlorobutane",300.0,1.0,ClCC(CC)Cl,carroll11
chlorobenzene,301.0,1.0,ClC1=CC=CC=C1,carroll11
3-methoxypropylamine,296.0,1.0,COCCCN,carroll11
pyrrole,306.0,1.0,N1C=CC=C1,carroll11
"1,2-propanediamine",306.0,1.0,C(C(C)N)N,carroll11
"1,3-dichlorobutane",304.0,1.0,ClCCC(C)Cl,carroll11
morpholine,304.0,1.0,N1CCOCC1,carroll11
3-picoline,309.0,1.0,N1=CC(=CC=C1)C,carroll11
4-picoline,311.0,1.0,N1=CC=C(C=C1)C,carroll11
"2,4-pentanedione",311.0,1.0,CC(CC(C)=O)=O,carroll11
ethylchloroacetate,326.0,1.0,C(C)OC(CCl)=O,carroll11
"1,4-dichlorobutane",316.0,1.0,ClCCCCCl,carroll11
2-chlorotoluene,320.0,1.0,ClC1=C(C)C=CC=C1,carroll11
3-chloro-1-propanethiol,316.0,1.0,ClCCCS,carroll11
2-methoxyethylacetate,316.0,1.0,COCCOC(C)=O,carroll11
"2,4-dimethylpyridine",320.0,1.0,CC1=NC=CC(=C1)C,carroll11
4-chlorotoluene,319.0,1.0,ClC1=CC=C(C)C=C1,carroll11
3-chlorotoluene,323.0,1.0,ClC=1C=C(C)C=CC1,carroll11
benzenethiol,324.0,1.0,C1(=CC=CC=C1)S,carroll11
bromobenzene,324.0,1.0,BrC1=CC=CC=C1,carroll11
2-ethoxyethylacetate,324.0,1.0,C(C)OCCOC(C)=O,carroll11
2-methylanisole,324.0,1.0,CC1=C(C=CC=C1)OC,carroll11
3-methylanisole,325.0,1.0,CC=1C=C(C=CC1)OC,carroll11
2-chloro-1-propanol,324.0,1.0,ClC(CO)C,carroll11
4-methylanisole,326.0,1.0,CC1=CC=C(C=C1)OC,carroll11
benzylmethylether,326.0,1.0,C(C1=CC=CC=C1)OC,carroll11
2-chloroethanol,328.0,1.0,ClCCO,carroll11
"2,4,6-trimethylpyridine",327.0,1.0,CC1=NC(=CC(=C1)C)C,carroll11
4-thiapentanal,334.0,1.0,C(CCSC)=O,carroll11
benzylethylether,332.0,1.0,C(C1=CC=CC=C1)OCC,carroll11
benzylchloride,333.0,1.0,C(C1=CC=CC=C1)Cl,carroll11
benzaldehyde,335.0,1.0,C(C1=CC=CC=C1)=O,carroll11
1-bromo-3-ethylbenzene,344.0,1.0,BrC1=CC(=CC=C1)CC,carroll11
"1,5-dichloropentane",336.0,1.0,ClCCCCCCl,carroll11
1-chloro-4-ethylbenzene,335.0,1.0,ClC1=CC=C(C=C1)CC,carroll11
benzylamine,338.0,1.0,C(C1=CC=CC=C1)N,carroll11
2-mercaptoethanol,341.0,1.0,SCCO,carroll11
aniline,343.0,1.0,NC1=CC=CC=C1,carroll11
2-ethyl-6-methylaniline,375.0,1.0,C(C)C1=C(N)C(=CC=C1)C,carroll11
benzonitrile,343.0,1.0,C(C1=CC=CC=C1)#N,carroll11
benzylmercaptan,343.0,1.0,C(C1=CC=CC=C1)S,carroll11
ethylacetoacetate,343.0,1.0,C(C)OC(CC(=O)C)=O,carroll11
2-butoxyethylacetate,344.0,1.0,C(CCC)OCCOC(C)=O,carroll11
benzylmethylsulfide,346.0,1.0,C(C1=CC=CC=C1)SC,carroll11
3-chloro-1-propanol,346.0,1.0,ClCCCO,carroll11
tert-butylacetoacetate,349.0,1.0,C(C)(C)(C)OC(CC(=O)C)=O,carroll11
iodobenzene,347.0,1.0,IC1=CC=CC=C1,carroll11
3-bromotoluene,348.0,1.0,BrC=1C=C(C)C=CC1,carroll11
"N,N-dimethylaniline",348.0,1.0,CN(C1=CC=CC=C1)C,carroll11
1-bromo-2-ethylbenzene,352.0,1.0,BrC1=C(C=CC=C1)CC,carroll11
acetophenone,350.0,1.0,C(C)(=O)C1=CC=CC=C1,carroll11
2-bromotoluene,351.0,1.0,BrC1=C(C)C=CC=C1,carroll11
N-methylaniline,352.0,1.0,CNC1=CC=CC=C1,carroll11
benzylbromide,352.0,1.0,C(C1=CC=CC=C1)Br,carroll11
"2,5-hexanedione",351.0,1.0,CC(CCC(C)=O)=O,carroll11
methylbenzoate,353.0,1.0,COC(C1=CC=CC=C1)=O,carroll11
ethylbenzoate,357.0,1.0,C(C)OC(C1=CC=CC=C1)=O,carroll11
propylbenzoate,371.0,1.0,C(CC)OC(C1=CC=CC=C1)=O,carroll11
butylbenzoate,380.0,1.0,C(CCC)OC(C1=CC=CC=C1)=O,carroll11
pentylbenzoate,393.0,1.0,C(CCCC)OC(C1=CC=CC=C1)=O,carroll11
1-iodo-3-methylbenzene,356.0,1.0,IC1=CC(=CC=C1)C,carroll11
o-toluidine,358.0,1.0,NC=1C(=CC=CC1)C,carroll11
2-ethylphenol,358.0,1.0,C(C)C1=C(C=CC=C1)O,carroll11
3-methylphenylacetate,358.0,1.0,CC=1C=C(C=CC1)CC(=O)[O-],carroll11
m-cresol,359.0,1.0,C1=C(C=CC=C1O)C,carroll11
3-methylaniline,359.0,1.0,CC=1C=C(N)C=CC1,carroll11
4-ethylaniline,370.0,1.0,C(C)C1=CC=C(N)C=C1,carroll11
3-ethylaniline,358.0,1.0,C(C)C=1C=C(N)C=CC1,carroll11
2-ethylaniline,358.0,1.0,C(C)C1=C(N)C=CC=C1,carroll11
nitrobenzene,361.0,1.0,[N+](=O)([O-])C1=CC=CC=C1,carroll11
"N,N-diethylaniline",361.0,1.0,C(C)N(C1=CC=CC=C1)CC,carroll11
2-isopropylphenol,362.0,1.0,C(C)(C)C1=C(C=CC=C1)O,carroll11
2-iodotoluene,363.0,1.0,IC1=C(C)C=CC=C1,carroll11
4-iodotoluene,363.0,1.0,IC1=CC=C(C)C=C1,carroll11
4-propylanisole,355.0,1.0,C(CC)C1=CC=C(C=C1)OC,carroll11
1-phenyl-2-butanone,364.0,1.0,C1(=CC=CC=C1)CC(CC)=O,carroll11
1-phenylethylacetate,364.0,1.0,C1(=CC=CC=C1)C(C)OC(C)=O,carroll11
benzylalcohol,366.0,1.0,C(C1=CC=CC=C1)O,carroll11
2-propylphenol,366.0,1.0,C(CC)C1=C(C=CC=C1)O,carroll11
"2,4-dimethylphenol",367.0,1.0,CC1=C(C=CC(=C1)C)O,carroll11
3-ethylphenol,367.0,1.0,C(C)C=1C=C(C=CC1)O,carroll11
1-phenylethylpropionate,379.0,1.0,C1(=CC=CC=C1)C(C)OC(CC)=O,carroll11
benzylacetate,363.0,1.0,C(C1=CC=CC=C1)CC(=O)[O-],carroll11
"1,5-pentanedithiol",368.0,1.0,C(CCCCS)S,carroll11
"2,3-dimethylaniline",369.0,1.0,CC1=C(N)C=CC=C1C,carroll11
benzylpropanoate,369.0,1.0,C(C1=CC=CC=C1)OC(CC)=O,carroll11
1-phenyl-1-butanone,361.0,1.0,C1(=CC=CC=C1)C(CCC)=O,carroll11
benzyliodide,370.0,1.0,C(C1=CC=CC=C1)I,carroll11
benzylcyanide,374.0,1.0,C(C1=CC=CC=C1)C#N,carroll11
4-tert-butylaniline,375.0,1.0,C(C)(C)(C)C1=CC=C(N)C=C1,carroll11
3-tert-butylaniline,374.0,1.0,C(C)(C)(C)C=1C=C(N)C=CC1,carroll11
4-butylaniline,375.0,1.0,C(CCC)C1=CC=C(N)C=C1,carroll11
4-propylaniline,376.0,1.0,C(CC)C1=CC=C(N)C=C1,carroll11
2-propylaniline,370.0,1.0,C(CC)C1=C(N)C=CC=C1,carroll11
2-isopropylaniline,368.0,1.0,C(C)(C)C1=C(N)C=CC=C1,carroll11
3-isopropylphenol,377.0,1.0,C(C)(C)C=1C=C(C=CC1)O,carroll11
quinoline,374.0,1.0,N1=CC=CC2=CC=CC=C12,carroll11
2-phenylethylacetate,375.0,1.0,C1(=CC=CC=C1)CCOC(C)=O,carroll11
4-propylphenol,379.0,1.0,C(CC)C1=CC=C(C=C1)O,carroll11
2-phenylethylpropionate,386.0,1.0,C1(=CC=CC=C1)CCOC(CC)=O,carroll11
benzylbutanoate,380.0,1.0,C(C1=CC=CC=C1)OC(CCC)=O,carroll11
2-sec-butylphenol,380.0,1.0,C(C)(CC)C1=C(C=CC=C1)O,carroll11
N-butylaniline,380.0,1.0,C(CCC)NC1=CC=CC=C1,carroll11
N-sec-butylaniline,366.0,1.0,C(C)(CC)NC1=CC=CC=C1,carroll11
N-tert-butylaniline,361.0,1.0,C(C)(C)(C)NC1=CC=CC=C1,carroll11
4-sec-butylaniline,381.0,1.0,C(C)(CC)C1=CC=C(N)C=C1,carroll11
2-sec-butylaniline,375.0,1.0,C(C)(CC)C1=C(N)C=CC=C1,carroll11
2-tert-butylphenol,375.0,1.0,C(C)(C)(C)C1=C(C=CC=C1)O,carroll11
3-phenylpropylacetate,386.0,1.0,C1(=CC=CC=C1)CCCOC(C)=O,carroll11
"2,6-diisopropylaniline",396.0,1.0,C(C)(C)C1=C(N)C(=CC=C1)C(C)C,carroll11
allylphenylether,336.0,1.0,C(C=C)OC1=CC=CC=C1,carroll11
divinylether,226.0,1.0,C(=C)OC=C,carroll11
furan,237.0,1.0,O1C=CC=C1,carroll11
2-methylfuran,247.0,1.0,CC=1OC=CC1,carroll11
thiophene,264.0,1.0,S1C=CC=C1,carroll11
2-methylthiophene,281.0,1.0,CC=1SC=CC1,carroll11
2-ethylthiophene,294.0,1.0,C(C)C=1SC=CC1,carroll11
2-propylthiophene,305.0,1.0,C(CC)C=1SC=CC1,carroll11
2-tert-butylfuran,280.0,1.0,C(C)(C)(C)C=1OC=CC1,carroll11
3-methylthiophene,284.0,1.0,CC1=CSC=C1,carroll11
allylmethacrylate,310.0,1.0,C(C=C)OC(C(=C)C)=O,carroll11
geranylformate,368.0,1.0,C(\C=C(/C)\CCC=C(C)C)C(=O)[O-],carroll11
geranylacetate,377.0,1.0,C(\C=C(/C)\CCC=C(C)C)CC(=O)[O-],carroll11
4-propenylanisole,369.0,1.0,C(=CC)C1=CC=C(C=C1)OC,carroll11
diethylfumarate,366.0,1.0,C(C)\C(=C(/C(=O)[O-])\CC)\C(=O)[O-],carroll11
ethylcinnamate,408.0,1.0,C(C)OC(C=CC1=CC=CC=C1)=O,carroll11
1-methoxy-2-propanol,304.0,1.0,COCC(C)O,carroll11
2-methoxyethanol,311.0,1.0,COCCO,carroll11
2-dimethylaminoethanol,314.0,1.0,CN(CCO)C,carroll11
2-ethoxyethanol,315.0,1.0,C(C)OCCO,carroll11
2-isopropoxyethanol,316.0,1.0,C(C)(C)OCCO,carroll11
"2-bromo-1,1-dimethoxyethane",324.0,1.0,BrCC(OC)OC,carroll11
bis(2-methoxyethyl)amine,331.0,1.0,COCCNCCOC,carroll11
2-butoxyethanol,335.0,1.0,C(CCC)OCCO,carroll11
"1,3-dichlorobenzene",336.0,1.0,ClC1=CC(=CC=C1)Cl,carroll11
2-chloropyridine,337.0,1.0,ClC1=NC=CC=C1,carroll11
"1,2-dichlorobenzene",341.0,1.0,ClC1=C(C=CC=C1)Cl,carroll11
2-amino-2-methyl-1-propanol,341.0,1.0,NC(CO)(C)C,carroll11
2-(methylamino)ethanol,345.0,1.0,CNCCO,carroll11
1-amino-2-propanol,340.0,1.0,NCC(C)O,carroll11
2-chlorophenol,345.0,1.0,ClC1=C(C=CC=C1)O,carroll11
(2-hydroxyethyl)propylamine,351.0,1.0,OCCNCCC,carroll11
"1,2-dimethoxybenzene",360.0,1.0,COC1=C(C=CC=C1)OC,carroll11
"2,3-dichloro-1-propanol",366.0,1.0,ClC(CO)CCl,carroll11
diphenylether,388.0,1.0,C1(=CC=CC=C1)OC1=CC=CC=C1,carroll11
dimethylphthalate,423.0,1.0,COC(C=1C(C(=O)OC)=CC=CC1)=O,carroll11
diisobutylphthalate,458.0,1.0,C(C(C)C)OC(C=1C(C(=O)OCC(C)C)=CC=CC1)=O,carroll11
diethylphthalate,433.0,1.0,C(C)OC(C=1C(C(=O)OCC)=CC=CC1)=O,carroll11
furfural,331.0,1.0,C(C1=CC=CO1)=O,carroll11
furfurylalcohol,348.0,1.0,C(C1=CC=CO1)O,carroll11
furfurylacetate,338.0,1.0,C(C1=CC=CO1)CC(=O)[O-],carroll11
furfurylpropanoate,355.0,1.0,C(C1=CC=CO1)OC(CC)=O,carroll11
"2,5-dimethoxy-2,5-dihydrofuran",320.0,1.0,COC1OC(C=C1)OC,carroll11
methylsalicylate,372.0,1.0,COC=1C(C(=O)[O-])=CC=CC1,carroll11
ethylsalicylate,380.0,1.0,C(C)OC=1C(C(=O)[O-])=CC=CC1,carroll11
2-phenylethanol,375.0,1.0,C1(=CC=CC=C1)CCO,carroll11
diethyleneglycol,397.0,1.0,C(COCCO)O,carroll11
N-methyldiethanolamine,410.0,1.0,CN(CCO)CCO,carroll11
3-methylfuran,251.0,1.0,CC1=COC=C1,carroll11
2-ethylfuran,271.0,1.0,C(C)C=1OC=CC1,carroll11
3-ethylthiophene,296.0,1.0,C(C)C1=CSC=C1,carroll11
cyclohexylmethacrylate,355.0,1.0,C1(CCCCC1)OC(C(=C)C)=O,carroll11
cyclohexylacrylate,341.0,1.0,C1(CCCCC1)OC(C=C)=O,carroll11
1-phenyl-3-pentanone,376.0,1.0,C1(=CC=CC=C1)CCC(CC)=O,carroll11
2-propylfuran,288.0,1.0,C(CC)C=1OC=CC1,carroll11
isobutylbenzoate,375.0,1.0,C(C(C)C)OC(C1=CC=CC=C1)=O,carroll11
10-chloro-3-decyne,359.0,1.0,ClCCCCCCC#CCC,carroll11
1-chloro-4-decyne,360.0,1.0,ClCCCC#CCCCCC,carroll11
"2-chloro-1,3-butadiene",253.0,1.0,ClC(=C)C=C,carroll11
2-isobutoxyethanol,324.0,1.0,C(C(C)C)OCCO,carroll11
Trichlorosilane,245.15,1.0,Cl[SiH](Cl)Cl,chen14
Methyltrichlorosilane,276.15,1.0,C[Si](Cl)(Cl)Cl,chen14
Vinyltrichlorosilane,294.15,1.0,C(=C)[Si](Cl)(Cl)Cl,chen14
Dichloromethylmethyldichlorosilane,301.15,1.0,ClC(Cl)[Si](Cl)(Cl)C,chen14
Ethyltrichlorosilane,263.15,1.0,C(C)[Si](Cl)(Cl)Cl,chen14
Dimethylchlorosilane,245.15,1.0,C[SiH](Cl)C,chen14
Ethylsilane,213.15,1.0,C(C)[SiH3],chen14
"Trichloro(3,3,3-trifluoropropyl)silane",288.15,1.0,Cl[Si](CCC(F)(F)F)(Cl)Cl,chen14
Allyltrichlorosilane,304.15,1.0,C(C=C)[Si](Cl)(Cl)Cl,chen14
3-Chloropropyltrichlorosilane,357.15,1.0,ClCCC[Si](Cl)(Cl)Cl,chen14
n-Propyltrichlorosilane,310.15,1.0,C(CC)[Si](Cl)(Cl)Cl,chen14
Chloromethyldimethylchlorosilane,295.15,1.0,ClC[Si](Cl)(C)C,chen14
Trimethyl bromosilane,270.15,1.0,C[Si](Br)(C)C,chen14
Trimethylchlorosilane,255.15,1.0,C[Si](Cl)(C)C,chen14
Trimethylfluorosilane,238.15,1.0,C[Si](F)(C)C,chen14
Trimethoxysilane,264.15,1.0,CO[SiH](OC)OC,chen14
2-Cyanoethylmethyldichlorosilane,333.15,1.0,C(#N)CC[Si](Cl)(Cl)C,chen14
Allylmethyldichlorosilane,300.15,1.0,C(C=C)C[SiH](Cl)Cl,chen14
t-Butyltrichlorosilane,294.15,1.0,C(C)(C)(C)[Si](Cl)(Cl)Cl,chen14
Isobutyltrichlorosilane,310.15,1.0,C(C(C)C)[Si](Cl)(Cl)Cl,chen14
n-Butyltrichlorosilane,327.15,1.0,C(CCC)[Si](Cl)(Cl)Cl,chen14
Trimethylsilylisothiocyanate,308.15,1.0,C[Si](C)(C)N=C=S,chen14
n-Propylmethyldichlorosilane,300.15,1.0,C(CC)[Si](Cl)(Cl)C,chen14
Bromomethyltrimethylsilane,289.15,1.0,BrC[Si](C)(C)C,chen14
ETHYLDIMETHYLCHLOROSILANE,269.15,1.0,C(C)[Si](Cl)(C)C,chen14
Methoxytrimethylsilane,243.15,1.0,CO[Si](C)(C)C,chen14
Dimethyldimethoxysilane,265.15,1.0,C[Si](OC)(OC)C,chen14
Methyltrimethoxysilane,284.15,1.0,C[Si](OC)(OC)OC,chen14
Tetramethoxysilane,294.15,1.0,CO[Si](OC)(OC)OC,chen14
Tetramethylsilane,245.15,1.0,C[Si](C)(C)C,chen14
Diethylsilane,253.15,1.0,C(C)[SiH2]CC,chen14
"(N,N-Dimethylamino)dimethylsilane",260.15,1.0,CN(C)[SiH](C)C,chen14
Tetraisocyanatosilane,323.15,1.0,N(=C=O)[Si](N=C=O)(N=C=O)N=C=O,chen14
Cyclopentyltrichlorosilane,350.15,1.0,C1(CCCC1)[Si](Cl)(Cl)Cl,chen14
Trimethylsilyltrifluoroacetate,273.15,1.0,C[Si](C)(C)OC(C(F)(F)F)=O,chen14
Cyclopentyldichlorosilane,316.15,1.0,C1(CCCC1)[SiH](Cl)Cl,chen14
3-Chloro-2-methylpropylmethyldichlorosilane,363.15,1.0,ClCC(C[Si](Cl)(Cl)C)C,chen14
Methylvinyldimethoxysilane,277.15,1.0,CC=C[SiH](OC)OC,chen14
Vinyltrimethoxysilane,296.15,1.0,C(=C)[Si](OC)(OC)OC,chen14
Trimethylvinylsilane,239.15,1.0,CC(=C(C)C)[SiH3],chen14
Diethylmethylchlorosilane,288.15,1.0,C(C)[Si](Cl)(C)CC,chen14
Chloromethyldimethylethoxysilane,299.15,1.0,ClC[Si](OCC)(C)C,chen14
Ethoxytrimethylsilane,246.15,1.0,C(C)O[Si](C)(C)C,chen14
Ethyltrimethoxysilane,300.15,1.0,C(C)[Si](OC)(OC)OC,chen14
"(N,N-Dimethylamino)trimethylsilane",254.5,1.0,CN(C)[Si](C)(C)C,chen14
Pentamethyldisiloxane,254.15,1.0,C[SiH](O[Si](C)(C)C)C,chen14
Phenylsilane,281.15,1.0,C1(=CC=CC=C1)[SiH3],chen14
1-Hexenyltrichlorosilane,333.15,1.0,C(=CCCCC)[Si](Cl)(Cl)Cl,chen14