,compound,flashpoint,pure substance,smiles,source
4864,"3-Hexenal, (3Z)-",333.15,1,CC/C=C\CC=O,le15
4865,"4-methyl-3,6-dihydro-2H-pyran",287.45,1,CC1=CCOCC1,le15
4866,"1-Pentyn-3-ol, 3-methyl-",302.15,1,C#CC(C)(O)CC,le15
4867,5-Hexen-2-one,297.05,1,C=CCCC(C)=O,le15
4868,5-Hexyn-1-ol,343.15,1,C#CCCCCO,le15
4869,"Pentanal, 2-methylene- (9CI)",302.25,1,C=C(C=O)CCC,le15
4870,1-cyclobutylethanone,305.45,1,CC(=O)C1CCC1,le15
4871,CyclohexeneOxide,297.0,1,C1CCC2OC2C1,le15
4872,Mesityloxide,305.0,1,Cc1cc(C)c(Oc2c(C)cc(C)cc2C)c(C)c1,le15
4873,"Propanenitrile, 3-(dimethylamino)-",335.15,1,CN(C)CCC#N,le15
4874,"Butanenitrile, 2-amino-2-methyl-",343.85,1,CCC(C)(N)C#N,le15
4875,Diethylcyanamide,342.0,1,CCN(C#N)CC,le15
4876,2methylthiophene,280.0,1,Cc1cccs1,le15
4877,cycloheptane,279.25,1,C1CCCCCC1,le15
4878,3-ethylpent-2-ene,309.15,1,CC=C(CC)CC,le15
4879,ethylcyclopentane,288.75,1,CCC1CCCC1,le15
4880,1heptene,265.0,1,C=CCCCCC,le15
4881,2methyl1hexene,267.0,1,C=C(C)CCCC,le15
4882,Cycloheptane,279.0,1,C1CCCCCC1,le15
4883,Ethylcyclopentane,288.0,1,CCC1CCCC1,le15
4884,"2,2,2-trifluoroethanamine",257.15,1,NCC(F)(F)F,le15
4885,methyl 2-cyanoacetate,315.85,1,COC(=O)CC#N,le15
4886,"2,5-Pyrrolidinedione",433.15,1,O=C1CCC(=O)N1,le15
4887,ethyl cyanoformate,297.55,1,CCOC(=O)C#N,le15
4888,5-methylpyrrolidin-2-one,400.65,1,CC1CCC(=O)N1,le15
4889,"Isocyanic acid, butyl ester",290.95,1,CCCCN=C=O,le15
4890,piperidin-2-one,406.25,1,O=C1CCCCN1,le15
4891,1-isocyanato-2-methylpropane,290.25,1,CC(C)CN=C=O,le15
4892,"Propionitrile, 3-ethoxy- (8CI)",337.05,1,CCOCCC#N,le15
4893,"Acetamide, N-ethenyl-N-methyl-",336.05,1,C=CN(C)C(C)=O,le15
4894,"Crotonamide, 3-methyl-",364.35,1,CC(C)=CC(N)=O,le15
4895,"2-Pyrrolidinone, 1-methyl-",364.15,1,CN1CCCC1=O,le15
4896,"2-Propenamide, N,N-dimethyl-",344.85,1,C=CC(=O)N(C)C,le15
4897,1methyl2pyrrolidinone,359.0,1,CN1CCCC1=O,le15
4898,2ethyloxazoline,302.0,1,CCC1=NCCO1,le15
4899,"Isothiocyanic acid, allyl ester",309.45,1,C=CCN=C=S,le15
4900,"2-methyl-1,3-thiazole",302.05,1,Cc1nccs1,le15
4901,"4-methyl-1,3-thiazole",305.15,1,Cc1cscn1,le15
4902,2-methylpiperidine,289.15,1,CC1CCCCN1,le15
4903,"1H-Azepine, hexahydro-",291.15,1,C1CCCNCC1,le15
4904,4-methylpiperidine,280.35,1,CC1CCNCC1,le15
4905,"Piperidine, 1-methyl-",276.45,1,CN1CCCCC1,le15
4906,1-ethylpyrrolidine,274.75,1,CCN1CCCC1,le15
4907,"Allylamine, N-ethyl-2-methyl- (6CI,8CI)",280.35,1,C=C(C)CNCC,le15
4908,"Cyclopentylamine, 1-methyl- (6CI)",282.35,1,CC1(N)CCCC1,le15
4909,Cyclohexylamine,300.0,1,NC1CCCCC1,le15
4910,"Ethanol, 2,2,2-trifluoro-",302.55,1,OCC(F)(F)F,le15
4911,"2-Propenoic acid, 2-methyl-, methyl ester",283.15,1,C=C(C)C(=O)OC,le15
4912,"1-Propen-2-ol, acetate",286.05,1,C=C(C)OC(C)=O,le15
4913,"2(3H)-Furanone, dihydro-5-methyl-",348.13,1,CC1CCC(=O)O1,le15
4914,Glutaraldehyde,339.15,1,O=CCCCC=O,le15
4915,"2,4-Pentanedione",316.25,1,CC(=O)CC(C)=O,le15
4916,"2-Propenoic acid, ethyl ester",288.70599999999996,1,C=CC(=O)OCC,le15
4917,"2-Butenoic acid, 3-methyl-",369.15,1,CC(C)=CC(=O)O,le15
4918,(Z)-2-methylbut-2-enoic acid,369.05,1,C/C=C(/C)C(=O)O,le15
4919,4-Pentenoic acid,362.15,1,C=CCCC(=O)O,le15
4920,"Acetic acid, 2-propenyl ester",279.85,1,C=CCOC(C)=O,le15
4921,"2,3-Pentanedione",292.85,1,CCC(=O)C(C)=O,le15
4922,"2-Butenoic acid, methyl ester, (2E)-",277.15,1,C/C=C/C(=O)OC,le15
4923,alpha-Methyl-gamma-butyrolactone,348.15,1,CC1CCOC1=O,le15
4924,cyclobutanecarboxylic acid,356.15,1,O=C(O)C1CCC1,le15
4925,"2-Vinyl-1,3-dioxolane",294.15,1,C=CC1OCCO1,le15
4926,2-methylcyclopropane-1-carboxylic acid,360.95,1,CC1CC1C(=O)O,le15
4927,oxan-2-one,354.15,1,O=C1CCCCO1,le15
4928,methyl cyclopropanecarboxylate,290.15,1,COC(=O)C1CC1,le15
4929,oxan-4-one,336.75,1,O=C1CCOCC1,le15
4930,Allylacetate,279.0,1,C=CCCC(=O)[O-],le15
4931,gammaValerolactone,354.0,1,CC1CCC(=O)O1,le15
4932,MethylCyclopropanecarboxylate,290.0,1,COC(=O)C1CC1,le15
4933,MethylMethacrylate,283.0,1,C=C(C)C(=O)OC,le15
4934,"Urea, N-2-propen-1-yl-",328.45,1,C=CCNC(N)=O,le15
4935,"Pyrrolidine, 1-nitroso-",356.45,1,O=NN1CCCC1,le15
4936,"2-Propen-1-amine, N-methyl-N-nitroso- (9CI)",338.95,1,C=CCN(C)N=O,le15
4937,"2-Butanone, 3,3-dimethyl-",297.05,1,CC(=O)C(C)(C)C,le15
4938,"2-Pentanone, 4-methyl-",286.45,1,CC(=O)CC(C)C,le15
4939,Cyclohexanol,340.92800000000005,1,OC1CCCCC1,le15
4940,"Valeraldehyde, 2-methyl- (8CI)",289.85,1,CCCC(C)C=O,le15
4941,(E)-hex-3-en-1-ol,317.55,1,CC/C=C/CCO,le15
4942,3-methylpentan-2-one,285.15,1,CCC(C)C(C)=O,le15
4943,2-methylpentan-3-one,283.95,1,CCC(=O)C(C)C,le15
4944,3-Hexanone,296.15,1,CCCC(=O)CC,le15
4945,2-Hexanone,296.15,1,CCCCC(C)=O,le15
4946,oxepane,287.35,1,C1CCCOCC1,le15
4947,Hex-5-en-1-ol,320.35,1,C=CCCCCO,le15
4948,"1-Penten-3-ol, 3-methyl-",299.15,1,C=CC(C)(O)CC,le15
4949,"4-Hexen-1-ol, (4E)-",334.25,1,C/C=C/CCCO,le15
4950,(Z)-hex-2-en-1-ol,334.85,1,CCC/C=C\CO,le15
4951,"3-Hexen-1-ol, (3Z)-",317.15,1,CC/C=C\CCO,le15
4952,"3-Hexen-1-ol, (3E)-",317.55,1,CC/C=C/CCO,le15
4953,"Valeraldehyde, 4-methyl-",290.95,1,CC(C)CCC=O,le15
4954,"Furan, tetrahydrodimethyl-",277.65,1,CC1(C)CCCO1,le15
4955,"Oxirane, butyl- (9CI)",294.95,1,CCCCC1CO1,le15
4956,"2-Penten-1-ol, 2-methyl-",333.95,1,CCC=C(C)CO,le15
4957,"3,3-Dimethylbutyraldehyde",283.75,1,CC(C)(C)CC=O,le15
4958,cyclopentylmethanol,335.35,1,OCC1CCCC1,le15
4959,1-Hexen-3-ol,308.15,1,C=CC(O)CCC,le15
4960,3-methylpentanal,290.95,1,CCC(C)CC=O,le15
4961,3-methylcyclopentan-1-ol,328.15,1,CC1CCC(O)C1,le15
4962,"(1R,2S)-2-methylcyclopentan-1-ol",320.35,1,C[C@H]1CCC[C@H]1O,le15
4963,2-methylpent-3-en-2-ol,297.35,1,CC=CC(C)(C)O,le15
4964,Hexaldehyde,305.15,1,CCCCCC=O,le15
4965,"Butyraldehyde, 2-ethyl-",294.25,1,CCC(C=O)CC,le15
4966,"2-Hexen-1-ol, (2E)-",327.15,1,CCC/C=C/CO,le15
4967,"Oxirane, 3-ethyl-2,2-dimethyl-",277.45,1,CCC1OC1(C)C,le15
4968,1-methylcyclopentan-1-ol,313.75,1,CC1(O)CCCC1,le15
4969,2ethylbutanal,294.0,1,CCC(C=O)CC,le15
4970,2methyl3pentanone,286.0,1,CCC(=O)C(C)C,le15
4971,3hexanone,287.0,1,CCCC(=O)CC,le15
4972,3methyl2pentanone,285.0,1,CCC(C)C(C)=O,le15
4973,5hexen1ol,320.0,1,C=CCCCCO,le15
4974,Butylvinylether,264.0,1,C=COCCCC,le15
4975,Hexanal,305.0,1,CCCCCC=O,le15
4976,MethylIsobutylKetone,287.0,1,CC(=O)CC(C)C,le15
4977,Pinacolone,278.0,1,CC(=O)C(C)(C)C,le15
4978,"Piperazine, 1-methyl-",315.35,1,CN1CCNCC1,le15
4979,"1H-1,4-Diazepine, hexahydro-",337.55,1,C1CNCCNC1,le15
4980,piperidin-1-amine,309.25,1,NN1CCCCC1,le15
4981,"1,2-Diethyldiaziridine",275.75,1,CCN1CN1CC,le15
4982,"Piperazine, 2-methyl-",318.25,1,CC1CNCCN1,le15
4983,"2,4-dimethylpentane",260.95,1,CC(C)CC(C)C,le15
4984,Heptane,272.05,1,CCCCCCC,le15
4985,2methylhexane,270.0,1,CCCCC(C)C,le15
4986,3methylhexane,270.0,1,CCCC(C)CC,le15
4987,"2,3-Butanedione, monooxime",458.65,1,CC(=O)C(C)=NO,le15
4988,N-acetylacetamide,374.95,1,CC(=O)NC(C)=O,le15
4989,"2-Propenamide, N-(hydroxymethyl)-",419.35,1,C=CC(=O)NCO,le15
4990,"1,3,4-Thiadiazole, 2-amino-",371.45,1,Nc1nncs1,le15
4991,3-methylbutanamide,367.25,1,CC(C)CC(N)=O,le15
4992,"Formamide, N,N-diethyl-",333.15,1,CCN(C=O)CC,le15
4993,(NZ)-N-pentan-2-ylidenehydroxylamine,351.15,1,CCC/C(C)=N\O,le15
4994,pentanamide,367.45,1,CCCCC(N)=O,le15
4995,"N,N-dimethylpropanamide",338.95,1,CCC(=O)N(C)C,le15
4996,N-tert-butylformamide,368.85,1,CC(C)(C)NC=O,le15
4997,"Propane, 1-isothiocyanato-",258.15,1,CCCN=C=S,le15
4998,"2-methyl-4,5-dihydro-1,3-thiazole",310.35,1,CC1=NCCS1,le15
4999,4-methylpentan-2-amine,285.15,1,CC(C)CC(C)N,le15
5000,1-Hexanamine,300.15,1,CCCCCCN,le15
5001,"N,N-dimethylbutan-1-amine",278.15,1,CCCCN(C)C,le15
5002,Isohexylamine,298.85,1,CC(C)CCCN,le15
5003,N-propan-2-ylpropan-1-amine,274.25,1,CCCNC(C)C,le15
5004,"2-Propanamine, N-(1-methylethyl)-",266.15,1,CC(C)NC(C)C,le15
5005,"1-Propanamine, N-propyl-",276.15,1,CCCNCCC,le15
5006,"3,3-dimethylbutan-1-amine",274.25,1,CC(C)(C)CCN,le15
5007,"1-Butanamine, N-ethyl-",291.15,1,CCCCNCC,le15
5008,"3,3-Dimethylbutylamine",278.75,1,CC(C)(C)CCN,le15
5009,3-oxobutanoic acid,384.95,1,CC(=O)CC(=O)O,le15
5010,methyl 2-oxopropanoate,312.15,1,COC(=O)C(C)=O,le15
5011,Aceticanhydride,322.0,1,CC(=O)OC(C)=O,le15
5012,"Propanoic acid, 2,2-dimethyl-",341.45,1,CC(C)(C)C(=O)O,le15
5013,"Propanoic acid, ethyl ester",285.35,1,CCOC(=O)CC,le15
5014,"Acetic acid, 1-methylethyl ester",289.85,1,CC(=O)OC(C)C,le15
5015,"Acetic acid, propyl ester",285.95,1,CCCOC(C)=O,le15
5016,"Ethanol, 2-(2-propenyloxy)-",328.15,1,C=CCOCCO,le15
5017,3-hydroxy-3-methylbutan-2-one,315.35,1,CC(=O)C(C)(C)O,le15
5018,"Butyric acid, 2-methyl- (6CI,8CI)",346.55,1,CCC(C)C(=O)O,le15
5019,"Butanoic acid, 3-methyl-",346.55,1,CC(C)CC(=O)O,le15
5020,"Formic acid, 2-methylpropyl ester",283.15,1,CC(C)COC=O,le15
5021,"Propanoic acid, 2-methyl-, methyl ester",277.55,1,COC(=O)C(C)C,le15
5022,"Hydracrylaldehyde, 2,2-dimethyl- (6CI,7CI,8CI)",333.45,1,CC(C)(C=O)CO,le15
5023,"2-Pentanone, 5-hydroxy- (8CI)(9CI)",366.15,1,CC(=O)CCCO,le15
5024,"Ethene, (2-methoxyethoxy)- (9CI)",282.45,1,C=COCCOC,le15
5025,"2,2-dimethyl-1,3-dioxolane",274.85,1,CC1(C)OCCO1,le15
5026,"Butanal, 3-methoxy- (9CI)",299.35,1,COC(C)CC=O,le15
5027,"3,3-dimethoxyprop-1-ene",270.35,1,C=CC(OC)OC,le15
5028,"Furfuryl alcohol, tetrahydro- (8CI)",347.15,1,OCC1CCCO1,le15
5029,"Formic acid, sec-butyl ester (8CI)",276.65,1,CCC(C)OC=O,le15
5030,"4-methyl-1,3-dioxane",295.35,1,CC1CCOCO1,le15
5031,2-(ethoxymethyl)oxirane,296.65,1,CCOCC1CO1,le15
5032,2methylbutyricacid,350.0,1,CCC(C)C(=O)O,le15
5033,3methylbutanoicacid,347.0,1,CC(C)CC(=O)O,le15
5034,MethylIsobutyrate,276.0,1,COC(=O)C(C)C,le15
5035,PivalicAcid,337.0,1,CC(C)(C)C(=O)O,le15
5036,tertButylFormate,264.0,1,CC(C)(C)OC=O,le15
5037,"Ethanamine, N-ethyl-N-nitroso-",332.15,1,CCN(CC)N=O,le15
5038,"1,1,3-trimethylurea",367.55,1,CNC(=O)N(C)C,le15
5039,Butyrohydrazide,378.05,1,CCCC(=O)NN,le15
5040,morpholin-4-amine,331.15,1,NN1CCOCC1,le15
5041,fluorocyclohexane,282.05,1,FC1CCCCC1,le15
5042,Fluorocyclohexane,278.0,1,FC1CCCCC1,le15
5043,2-Imidazolidinethione,316.65,1,S=C1NCCN1,le15
5044,Hexyl alcohol,333.15,1,CCCCCCO,le15
5045,"Propane, 1,1'-oxybis-",253.15,1,CCCOCCC,le15
5046,"2-Butanol, 3,3-dimethyl-",302.05,1,CC(O)C(C)(C)C,le15
5047,2-methylpentan-2-ol,294.25,1,CCCC(C)(C)O,le15
5048,hexan-3-ol,314.817,1,CCCC(O)CC,le15
5049,"1-Butanol, 3,3-dimethyl-",320.95,1,CC(C)(C)CCO,le15
5050,"1-Pentanol, 4-methyl- (9CI)",324.85,1,CC(C)CCCO,le15
5051,hexan-2-ol,314.15,1,CCCCC(C)O,le15
5052,"Ether, butyl ethyl",272.15,1,CCCCOCC,le15
5053,"Propane, 2-ethoxy-2-methyl-",254.15,1,CCOC(C)(C)C,le15
5054,"1-Butanol, 2,2-dimethyl-",310.55,1,CCC(C)(C)CO,le15
5055,"Pentanol, 4-methyl-",324.85,1,CC(C)CCCO,le15
5056,"2,3-dimethylbutan-2-ol",302.55,1,CC(C)C(C)(C)O,le15
5057,1ethoxybutane,268.0,1,CCCCOCC,le15
5058,2ethoxy2methylpropane,254.0,1,CCOC(C)(C)C,le15
5059,2ethyl1butanol,330.0,1,CCC(CC)CO,le15
5060,2methyl1pentanol,323.0,1,CCCC(C)CO,le15
5061,2methyl3pentanol,319.0,1,CCC(O)C(C)C,le15
5062,3methyl1pentanol,331.0,1,CCC(C)CCO,le15
5063,3methyl2pentanol,313.0,1,CCC(C)C(C)O,le15
5064,4methyl1pentanol,324.0,1,CC(C)CCCO,le15
5065,4methyl2pentanol,314.0,1,CC(C)CC(C)O,le15
5066,DiisopropylEther,245.0,1,CC(C)OC(C)C,le15
5067,methyltertpentylether,262.0,1,CCC(C)(C)OC,le15
5068,"N,N',N'-trimethylethane-1,2-diamine",282.55,1,CNCCN(C)C,le15
5069,thiane,294.25,1,C1CCSCC1,le15
5070,2-methylthiolane,301.25,1,CC1CCCS1,le15
5071,3-methylthiolane,301.25,1,CC1CCSC1,le15
5072,Cyclopentanethiol,298.0,1,SC1CCCC1,le15
5073,"Cyclopentene, 3-chloro-",281.85,1,ClC1C=CCC1,le15
5074,3-chloro-3-methylbut-1-yne,277.55,1,C#CC(C)(C)Cl,le15
5075,5chloro1pentyne,288.0,1,C#CCCCCl,le15
5076,"Urea, 1-methyl-1-nitroso- (8CI)",326.25,1,CN(N=O)C(N)=O,le15
5077,"Carbamic acid, N-methyl-, ethyl ester",330.95,1,CCOC(=O)NC,le15
5078,"Acetamide, N-(2-hydroxyethyl)-",449.85,1,CC(=O)NCCO,le15
5079,"Nitrous acid, butyl ester",261.15,1,CCCCON=O,le15
5080,"Propane, 2-methyl-2-nitro-",292.15,1,CC(C)(C)[N+](=O)[O-],le15
5081,2-methyl-1-nitropropane,311.35,1,CC(C)C[N+](=O)[O-],le15
5082,"Glycine, N,N-dimethyl-",332.95,1,CN(C)CC(=O)O,le15
5083,propan-2-yl carbamate,363.25,1,CC(C)OC(N)=O,le15
5084,"Nitrous acid, 2-methylpropyl ester",252.15,1,CC(C)CON=O,le15
5085,tertButylNitrite,250.0,1,CC(C)(C)ON=O,le15
5086,"2-Propanol, 1-(dimethylamino)-",308.15,1,CC(O)CN(C)C,le15
5087,2-(propan-2-ylamino)ethanol,343.45,1,CC(C)NCCO,le15
5088,5-Aminopentan-1-ol,338.75,1,NCCCCCO,le15
5089,"1-Pentanol, 2-amino-",368.15,1,CCCC(N)CO,le15
5090,"1-Propanamine, 3-ethoxy-",305.95,1,CCOCCCN,le15
5091,2-(dimethylamino)propan-1-ol,305.25,1,CC(CO)N(C)C,le15
5092,"Ethanol, 2-(propylamino)-",351.45,1,CCCNCCO,le15
5093,"1-Propanol, 3-(dimethylamino)-",309.25,1,CN(C)CCCO,le15
5094,"1,2-Ethanediamine, N-(2-aminoethyl)-",367.594,1,NCCNCCN,le15
5095,"Ethanamine, 2-hydrazino-N,N-dimethyl-",339.05,1,CN(C)CCNN,le15
5096,thiomorpholine,333.15,1,C1CSCCN1,le15
5097,"Butanenitrile, 4-chloro-",358.15,1,N#CCCCCl,le15
5098,Propanedioic acid,475.05,1,O=C(O)CC(=O)O,le15
5099,"Guanidine, 1-nitro-",422.45,1,N=C(N)N[N+](=O)[O-],le15
5100,4-Pyridinecarbonitrile,355.85,1,N#Cc1ccncc1,le15
5101,3-Pyridinecarbonitrile,357.594,1,N#Cc1cccnc1,le15
5102,Picolinonitrile (8CI),362.55,1,N#Cc1ccccn1,le15
5103,"Ethylene glycol, monoacetate",350.55,1,CC(=O)OCCO,le15
5104,methyl 2-hydroxypropanoate,322.15,1,COC(=O)C(C)O,le15
5105,"Acetic acid, 2-ethoxy-",366.25,1,CCOCC(=O)O,le15
5106,methyl 3-hydroxypropanoate,345.75,1,COC(=O)CCO,le15
5107,methyl 2-methoxyacetate,308.15,1,COCC(=O)OC,le15
5108,ethyl 2-hydroxyacetate,334.85,1,CCOC(=O)CO,le15
5109,"Benzene, ethenyl-",304.255,1,C=Cc1ccccc1,le15
5110,"Ethanol, 2-(1-methylethoxy)-",316.15,1,CC(C)OCCO,le15
5111,"1-Propanol, 3-ethoxy-",327.55,1,CCOCCCO,le15
5112,3-Hydroxy-3-methylbutan-1-ol,364.45,1,CC(C)(O)CCO,le15
5113,2-(Propyloxy)ethanol,324.35,1,CCCOCCO,le15
5114,"1,2-dimethoxypropane",273.75,1,COCC(C)OC,le15
5115,"1-Propanol, 2-ethoxy-",319.05,1,CCOC(C)CO,le15
5116,"1-Butanol, 3-methoxy-",319.85,1,COC(C)CCO,le15
5117,"Hydroperoxide, 1,1-dimethylpropyl",314.35,1,CCC(C)(C)OO,le15
5118,"Pentane-1,2-diol",377.15,1,CCCC(O)CO,le15
5119,"2-methylbutane-2,3-diol",343.35,1,CC(O)C(C)(C)O,le15
5120,2isopropoxyethanol,316.0,1,CC(C)OCCO,le15
5121,"Ethanol, 2-((2-aminoethyl)amino)-",363.65,1,NCCNCCO,le15
5122,2-(2-aminoethoxy)ethanamine,347.95,1,NCCOCCN,le15
5123,"Hexane, 1-fluoro-",300.35,1,CCCCCCF,le15
5124,S-ethyl ethanethioate,291.45,1,CCSC(C)=O,le15
5125,thiolane 1-oxide,389.65,1,O=S1CCCC1,le15
5126,"Propionaldehyde, 3-(methylthio)-",334.25,1,CSCCC=O,le15
5127,"1,4-Oxathiane",328.75,1,C1CSCCO1,le15
5128,4thiapentanal,331.0,1,CSCCC=O,le15
5129,"Urea, 1,3-dimethyl-2-thio-",473.15,1,CNC(=S)NC,le15
5130,2-methylbutane-1-thiol,292.55,1,CCC(C)CS,le15
5131,1-ethylsulfanylpropane,292.05,1,CCCSCC,le15
5132,3-methylbutane-1-thiol,291.45,1,CC(C)CCS,le15
5133,1-methylsulfanylbutane,293.75,1,CCCCSC,le15
5134,"2-Butanethiol, 2-methyl-",272.15,1,CCC(C)(C)S,le15
5135,2methyl1butanethiol,292.0,1,CCC(C)CS,le15
5136,2pentanethiol,282.0,1,CCCC(C)S,le15
5137,3methyl2butanethiol,292.0,1,CC(C)C(C)S,le15
5138,tertButylMethylSulfide,270.0,1,CSC(C)(C)C,le15
5139,2-methylprop-2-enoyl chloride,300.85,1,C=C(C)C(=O)Cl,le15
5140,(E)-but-2-enoyl chloride,308.15,1,C/C=C/C(=O)Cl,le15
5141,"2-Butenal, 2-chloro- (9CI)",316.95,1,CC=C(Cl)C=O,le15
5142,3-Chlorocrotonaldehyde,312.85,1,C/C(Cl)=C/C=O,le15
5143,1-chloro-3-methylbut-2-ene,277.15,1,CC(C)=CCCl,le15
5144,chlorocyclopentane,288.15,1,ClC1CCCC1,le15
5145,"1-Butene, 3-chloro-2-methyl-",275.15,1,C=C(C)C(C)Cl,le15
5146,"2-Butene, 1-chloro-2-methyl-",281.95,1,CC=C(C)CCl,le15
5147,Chlorocyclopentane,288.0,1,ClC1CCCC1,le15
5148,Serine,465.73199999999997,1,N[C@@H](CO)C(=O)O,le15
5149,propan-2-yl nitrate,285.95,1,CC(C)O[N+](=O)[O-],le15
5150,"Pyridine, 4-ethenyl-",324.817,1,C=Cc1ccncc1,le15
5151,"Pyridine, 2-ethenyl-",319.85,1,C=Cc1ccccn1,le15
5152,"Pyridine, 3-ethenyl-",324.05,1,C=Cc1cccnc1,le15
5153,"Ethanol, 2-(2-aminoethoxy)-",349.75,1,NCCOCCO,le15
5154,"Ethanol, 2,2'-iminobis-",410.92800000000005,1,OCCNCCO,le15
5155,"1,3-Propanediol, 2-amino-2-methyl-",382.85,1,CC(N)(CO)CO,le15
5156,Diethanolamine,410.0,1,OCCNCCO,le15
5157,"Semicarbazide, 4-methyl-3-thio- (8CI)",328.75,1,CNC(=S)NN,le15
5158,"Acetic acid, 2-fluoro-, ethyl ester",303.15,1,CCOC(=O)CF,le15
5159,(E)-hex-3-enedinitrile,419.35,1,N#CC/C=C/CC#N,le15
5160,"Ethanol, 2-(methoxymethoxy)-",310.95,1,COCOCCO,le15
5161,"Ethanol, 2,2'-oxybis-",416.483,1,OCCOCCO,le15
5162,trimethoxymethane,288.75,1,COC(OC)OC,le15
5163,Trimethoxymethane,288.0,1,COC(OC)OC,le15
5164,"Propanoic acid, 3-mercapto-",373.88699999999994,1,O=C(O)CCS,le15
5165,"Acetic acid, mercapto-, methyl ester",329.15,1,COC(=O)CS,le15
5166,"Ethene, (methylsulfonyl)- (9CI)",386.15,1,C=CS(C)(=O)=O,le15
5167,"Benzene, 1,3-dimethyl-",298.15,1,Cc1cccc(C)c1,le15
5168,"octa-1,7-diyne",296.45,1,C#CCCCCC#C,le15
5169,"(1Z,3Z,5Z)-cycloocta-1,3,5-triene",300.95,1,C1=C\C=C/CC\C=C/1,le15
5170,Carbonothioic dihydrazide,366.15,1,NNC(=S)NN,le15
5171,2-ethylsulfanylethanol,289.25,1,CCSCCO,le15
5172,"1,3-dithiolane",336.75,1,C1CSCS1,le15
5173,"Acrylic acid, 3-chloro-, (Z)- (8CI)",343.25,1,O=C(O)/C=C\Cl,le15
5174,2-methylpropanoyl chloride,274.25,1,CC(C)C(=O)Cl,le15
5175,"Ether, 2-chloroethyl vinyl",289.15,1,C=COCCCl,le15
5176,Butanoyl chloride,294.85,1,CCCC(=O)Cl,le15
5177,2-(chloromethyl)-2-methyloxirane,307.65,1,CC1(CCl)CO1,le15
5178,"2-Butanone, 3-chloro-",296.15,1,CC(=O)C(C)Cl,le15
5179,2-chloro-2-methylpropanal,298.65,1,CC(C)(Cl)C=O,le15
5180,1-chloropentane,284.25,1,CCCCCCl,le15
5181,2-chloro-2-methylbutane,276.55,1,CCC(C)(C)Cl,le15
5182,2-chloropentane,282.95,1,CCCC(C)Cl,le15
5183,"1-chloro-2,2-dimethylpropane",264.25,1,CC(C)(C)CCl,le15
5184,1-chloro-3-methylbutane,289.15,1,CC(C)CCCl,le15
5185,1chloropentane,314.0,1,CCCCCCl,le15
5186,2chloropentane,273.0,1,CCCC(C)Cl,le15
5187,Bromoethene (9CI),255.95,1,C=CBr,le15
5188,3-Pyridinecarboxaldehyde,357.15,1,O=Cc1cccnc1,le15
5189,pyridine-2-carbaldehyde,327.55,1,O=Cc1ccccn1,le15
5190,Benzenemethanamine,333.15,1,NCc1ccccc1,le15
5191,"Benzenamine, N-methyl-",352.039,1,CNc1ccccc1,le15
5192,"Pyridine, 2-ethyl-",302.55,1,CCc1ccccn1,le15
5193,"Pyridine, 2,6-dimethyl-",306.45,1,Cc1cccc(C)n1,le15
5194,4-ethylpyridine,320.15,1,CCc1ccncc1,le15
5195,3-ethylpyridine,322.05,1,CCc1cccnc1,le15
5196,"Pyridine, 3,4-dimethyl-",326.15,1,Cc1ccncc1C,le15
5197,"3,5-dimethylpyridine",326.15,1,Cc1cncc(C)c1,le15
5198,3-Cyclohexene-1-carbonitrile,338.95,1,N#CC1CC=CCC1,le15
5199,"2,3-dimethylpyridine",318.55,1,Cc1cccnc1C,le15
5200,"Pyridine, 2,5-dimethyl-",321.15,1,Cc1ccc(C)nc1,le15
5201,4methylaniline,359.0,1,Cc1ccc(N)cc1,le15
5202,"Carbamoyl chloride, dimethyl-",341.45,1,CN(C)C(=O)Cl,le15
5203,chloromethyl thiocyanate,357.05,1,N#CSCCl,le15
5204,"2,5-Cyclohexadiene-1,4-dione",332.45,1,O=C1C=CC(=O)C=C1,le15
5205,"Maleonitrile, diamino- (8CI)",495.85,1,N#C/C(N)=C(/N)C#N,le15
5206,"Methanesulfinic acid, 1-amino-1-imino-",441.85,1,N=C(N)S(=O)O,le15
5207,"Phenol, 2-methyl-",350.25,1,Cc1ccccc1O,le15
5208,Benzenemethanol,370.65,1,OCc1ccccc1,le15
5209,"Benzene, methoxy-",317.60400000000004,1,COc1ccccc1,le15
5210,"Phenol, 4-methyl-",354.15,1,Cc1ccc(O)cc1,le15
5211,"Phenol, 3-methyl-",359.26099999999997,1,Cc1cccc(O)c1,le15
5212,"Hydrazine, phenyl-",388.55,1,NNc1ccccc1,le15
5213,"1,4-Benzenediamine",409.05,1,Nc1ccc(N)cc1,le15
5214,"1,3-Benzenediamine",420.75,1,Nc1cccc(N)c1,le15
5215,"Pyrazine, 2,6-dimethyl-",325.95,1,Cc1cncc(C)n1,le15
5216,Hexanedinitrile,422.15,1,N#CCCCCC#N,le15
5217,"Pyrazine, 2,5-dimethyl-",337.05,1,Cc1cnc(C)cn1,le15
5218,"2-Pyridinamine, 4-methyl-",387.15,1,Cc1ccnc(N)c1,le15
5219,"4,6-dimethylpyrimidine",329.15,1,Cc1cc(C)ncn1,le15
5220,"Pyridine, 2-amino-3-methyl-",383.05,1,Cc1cccnc1N,le15
5221,"Pyridine, 2-amino-6-methyl-",376.15,1,Cc1cccc(N)n1,le15
5222,"4-Pyridinamine, 3-methyl- (9CI)",411.55,1,Cc1cnccc1N,le15
5223,pyridin-2-ylmethanamine,363.15,1,NCc1ccccn1,le15
5224,pyridin-3-ylmethanamine,373.15,1,NCc1cccnc1,le15
5225,pyridin-4-ylmethanamine,381.45,1,NCc1ccncc1,le15
5226,N-methylpyridin-2-amine,360.95,1,CNc1ccccn1,le15
5227,"Pyrazine, 2,3-dimethyl-",327.55,1,Cc1nccnc1C,le15
5228,"Pyrazine, 2-ethyl-",315.95,1,CCc1cnccn1,le15
5229,"2,4-dimethylpyrimidine",309.85,1,Cc1ccnc(C)n1,le15