compound,flashpoint,pure substance,smiles,source
"Heptane, 3-((ethenyloxy)methyl)- (9CI)",291.75,1.0,C=COCC(CC)CCCC,le15
"6-Octen-1-ol, 3,7-dimethyl-",371.45,1.0,CC(C)=CCCC(C)CCO,le15
"Cyclohexanemethanol, alpha,alpha,4-trimethyl-",362.85,1.0,CC1CCC(C(C)(C)O)CC1,le15
2-Decanone,344.15,1.0,CCCCCCCCC(C)=O,le15
3-Decanone,299.85,1.0,CCCCCCCC(=O)CC,le15
2-methyl-5-propan-2-ylcyclohexan-1-ol,359.85,1.0,CC(C)C1CCC(C)C(O)C1,le15
8-methylnonanal,343.85,1.0,CC(C)CCCCCCC=O,le15
1-methyl-4-propan-2-ylcyclohexan-1-ol,356.54999999999984,1.0,CC(C)C1CCC(C)(O)CC1,le15
9decen1ol,392.0,1.0,C=CCCCCCCCCO,le15
Decanal,358.0,1.0,CCCCCCCCCC=O,le15
"Piperidine, 4-amino-2,2,6,6-tetramethyl-",345.15,1.0,CC1(C)CC(N)CC(C)(C)N1,le15
4-methyldecane,322.5499999999999,1.0,CCCCCCC(C)CCC,le15
3-methyldecane,323.5499999999999,1.0,CCCCCCCC(C)CC,le15
chloro(diethoxy)phosphane,274.25,1.0,CCOP(Cl)OCC,le15
"Benzoic acid, 2-chloro-",393.65,1.0,O=C(O)c1ccccc1Cl,le15
"Benzoic acid, 3-chloro-",397.05,1.0,O=C(O)c1cccc(Cl)c1,le15
"Benzaldehyde, 5-chloro-2-hydroxy-",365.35,1.0,O=Cc1cc(Cl)ccc1O,le15
"Formic acid, chloro-, phenyl ester (8CI)",352.15,1.0,O=C(Cl)Oc1ccccc1,le15
"Benzoic acid, 4-chloro-",511.15,1.0,O=C(O)c1ccc(Cl)cc1,le15
"Phenol, 4-chloro-3,5-dimethyl-",379.05,1.0,Cc1cc(O)cc(C)c1Cl,le15
1-chloro-4-ethoxybenzene,356.85,1.0,CCOc1ccc(Cl)cc1,le15
2-chloroethoxybenzene,373.75,1.0,ClCCOc1ccccc1,le15
"Benzene, 1-(chloromethyl)-4-methoxy- (9CI)",382.55,1.0,COc1ccc(CCl)cc1,le15
1-chloro-3-ethoxybenzene,356.85,1.0,CCOc1cccc(Cl)c1,le15
1-chloro-2-ethoxybenzene,355.45,1.0,CCOc1ccccc1Cl,le15
"Phenol, 2-chloro-4,5-dimethyl- (9CI)",370.25,1.0,Cc1cc(O)c(Cl)cc1C,le15
3-chloropropyl carbonochloridate,347.65,1.0,O=C(Cl)OCCCCl,le15
"ethyl 2,2-dichloroacetate",328.75,1.0,CCOC(=O)C(Cl)Cl,le15
"p-Dioxane, 2,3-dichloro-, trans-",367.05,1.0,Cl[C@@H]1OCCO[C@H]1Cl,le15
5-Fluoro-2-nitrophenol,364.15,1.0,O=[N+]([O-])c1ccc(F)cc1O,le15
"Phenol, 3-fluoro-4-nitro-",422.65,1.0,O=[N+]([O-])c1ccc(O)cc1F,le15
"2,4-Oxazolidinedione, 5-ethyl-3,5-dimethyl-",335.0499999999999,1.0,CCC1(C)OC(=O)N(C)C1=O,le15
Benzenesulphonamide,417.75,1.0,NS(=O)(=O)c1ccccc1,le15
"Quinoline, 2,6-dimethyl-",379.65,1.0,Cc1ccc2nc(C)ccc2c1,le15
"2,4-dimethylquinoline",380.75,1.0,Cc1cc(C)c2ccccc2n1,le15
2-ethylquinoline,371.85,1.0,CCc1ccc2ccccc2n1,le15
"2,3-dimethylquinoline",382.85,1.0,Cc1cc2ccccc2nc1C,le15
3-ethylquinoline,381.15,1.0,CCc1cnc2ccccc2c1,le15
1-benzylpyrrole,376.35,1.0,c1ccc(Cn2cccc2)cc1,le15
"1-Naphthylamine, 2-methyl-",430.25,1.0,Cc1ccc2ccccc2c1N,le15
"3,4-dimethylquinoline",391.95,1.0,Cc1cnc2ccccc2c1C,le15
"6,8-dimethylquinoline",386.65,1.0,Cc1cc(C)c2ncccc2c1,le15
"5,8-dimethylquinoline",386.05,1.0,Cc1ccc(C)c2ncccc12,le15
"Cyclohexanecarboxylic acid, 4-(aminomethyl)-, trans-",408.507,1.0,NC[C@H]1CC[C@H](C(=O)O)CC1,le15
"2-Propenamide, N-(butoxymethyl)-",397.05,1.0,C=CC(=O)NCOCCCC,le15
"2-Propenoic acid, 2-methyl-, 2-(dimethylamino)ethyl ester",343.75,1.0,C=C(C)C(=O)OCCN(C)C,le15
"Hexanamide, 2,3-epoxy-2-ethyl-",418.95,1.0,CCCC1OC1(CC)C(N)=O,le15
"Butanamide, N,N-diethyl-3-oxo-",367.15,1.0,CCN(CC)C(=O)CC(C)=O,le15
"2-Pentanone, 5-(diethylamino)-",338.15,1.0,CCN(CC)CCCC(C)=O,le15
"N,N-diethyl-3-methylbutanamide",351.85,1.0,CCN(CC)C(=O)CC(C)C,le15
"Formamide, N,N-di-n-butyl-",373.15,1.0,CCCCN(C=O)CCCC,le15
"1-Butanamine, 3-methyl-N-(3-methylbutyl)-",319.75,1.0,CC(C)CCNCCC(C)C,le15
"Octylamine, N,N-dimethyl- (8CI)",338.15,1.0,CCCCCCCCN(C)C,le15
1decanamine,359.0,1.0,CCCCCCCCCCN,le15
"1,3-Butadiene, 1,1,2-trichloro-",349.15,1.0,C=CC(Cl)=C(Cl)Cl,le15
2-bromo-2-chloropropane,290.65,1.0,CC(C)(Cl)Br,le15
2-bromo-1-chloropropane,300.65,1.0,CC(Br)CCl,le15
1-bromo-2-chloropropane,300.7,1.0,CC(Cl)CBr,le15
"Propane, 1-bromo-3-chloro-",311.15,1.0,ClCCCBr,le15
"2-Pyridinecarboxylic acid, 6-chloro- (9CI)",422.413,1.0,O=C(O)c1cccc(Cl)n1,le15
4-chloro-2-methoxyaniline,382.05,1.0,COc1cc(Cl)ccc1N,le15
"1,1-dichloro-1-nitropropane",319.0499999999999,1.0,CCC(Cl)(Cl)[N+](=O)[O-],le15
3-bromopyridine,324.85,1.0,Brc1cccnc1,le15
"Pyridine, 2-bromo-",327.5499999999999,1.0,Brc1ccccn1,le15
"Benzoic acid, 2,6-difluoro-",366.65,1.0,O=C(O)c1c(F)cccc1F,le15
"Styrene, alpha,beta,beta-trifluoro-",305.35,1.0,FC(F)=C(F)c1ccccc1,le15
"Urea, N-(2,5-dioxo-4-imidazolidinyl)-",505.15,1.0,NC(=O)NC1NC(=O)NC1=O,le15
"1,4-Naphthalenedione",414.15,1.0,O=C1C=CC(=O)c2ccccc21,le15
"1,2-Naphthalenedione",390.55,1.0,O=C1C=Cc2ccccc2C1=O,le15
"ethyl 2,4-dioxopentanoate",358.905,1.0,CCOC(=O)C(=O)CC(C)=O,le15
"2-Propene-1,1-diol, diacetate",351.45,1.0,C=CC(OC(C)=O)OC(C)=O,le15
"Butanoic acid, 2-acetyl-3-oxo-, methyl ester (9CI)",355.54999999999984,1.0,COC(=O)C(C(C)=O)C(C)=O,le15
"2-Butenedioic acid, 2-methyl-, dimethyl ester, (E)-",364.65,1.0,COC(=O)/C=C(\C)C(=O)OC,le15
"1,3-Cyclopentanedicarboxylic acid",435.05,1.0,O=C(O)C1CCC(C(=O)O)C1,le15
"Pipecolic acid, 1-nitroso-",463.25,1.0,O=NN1CCCCC1C(=O)O,le15
Methyl 1-naphthyl ether,375.45,1.0,COc1cccc2ccccc12,le15
naphthalen-1-ylmethanol,427.15,1.0,OCc1cccc2ccccc12,le15
Methyl 2-naphthyl ether,375.45,1.0,COc1ccc2ccccc2c1,le15
2-methylpropanoyl 2-methylpropanoate,332.5499999999999,1.0,CC(C)C(=O)OC(=O)C(C)C,le15
"Butanoic acid, anhydride",355.15,1.0,CCCC(=O)OC(=O)CCC,le15
"1,8-Naphthalenediamine",471.85,1.0,Nc1cccc2cccc(N)c12,le15
3-(1-methylpyrrol-2-yl)pyridine,397.95,1.0,Cn1cccc1-c1cccnc1,le15
"Butanoic acid, 3-oxo-, butyl ester",352.75,1.0,CCCCOC(=O)CC(C)=O,le15
"ethyl 2,2-dimethyl-3-oxobutanoate",386.85,1.0,CCOC(=O)C(C)(C)C(C)=O,le15
ethyl 2-ethyl-3-oxobutanoate,348.85,1.0,CCOC(=O)C(CC)C(C)=O,le15
oxolan-2-ylmethyl propanoate,365.15,1.0,CCC(=O)OCC1CCCO1,le15
"Ethene, 1,1'-(oxybis(2,1-ethanediyloxy))bis-",335.35,1.0,C=COCCOCCOC=C,le15
3-methyl-1-phenylpyrazole,381.15,1.0,Cc1ccn(-c2ccccc2)n1,le15
tert-butyl 3-oxobutanoate,339.65,1.0,CC(=O)CC(=O)OC(C)(C)C,le15
"Naphthalene-1,4-diamine",484.65,1.0,Nc1ccc(N)c2ccccc12,le15
"Hexanoic acid, 3-oxo-, ethyl ester",351.45,1.0,CCCC(=O)CC(=O)OCC,le15
"1H-Pyrazole, 3-methyl-5-phenyl- (9CI)",429.35,1.0,Cc1cc(-c2ccccc2)[nH]n1,le15
2-methylquinolin-4-amine,451.15,1.0,Cc1cc(N)c2ccccc2n1,le15
"Hexanedial, 2-hydroxy-2,5-dimethyl- (9CI)",388.15,1.0,CC(C=O)CCC(C)(O)C=O,le15
ethyl 4-methyl-3-oxopentanoate,317.15,1.0,CCOC(=O)CC(=O)C(C)C,le15
"Oxirane, 2,2'-(oxybis(methylene))bis(2-methyl- (9CI)",343.25,1.0,CC1(COCC2(C)CO2)CO1,le15
propan-2-yl 4-oxopentanoate,357.54999999999984,1.0,CC(=O)CCC(=O)OC(C)C,le15
"2,3-Naphthalenediamine",485.45,1.0,Nc1cc2ccccc2cc1N,le15
"1,5-Naphthalenediamine",493.35,1.0,Nc1cccc2c(N)cccc12,le15
"2-Propenoic acid, 2-methyl-, 2-ethoxyethyl ester",344.85,1.0,C=C(C)C(=O)OCCOCC,le15
"Imidazole, 1-benzyl- (8CI)",414.45,1.0,c1ccc(Cn2ccnc2)cc1,le15
ethyl 5-oxohexanoate,342.5499999999999,1.0,CCOC(=O)CCCC(C)=O,le15
ButyricAnhydride,360.0,1.0,CCCC(=O)OC(=O)CCC,le15
tertButylAcetoAcetate,333.0,1.0,CC(=O)CC(=O)OC(C)(C)C,le15
ethyl piperazine-1-carboxylate,370.25,1.0,CCOC(=O)N1CCNCC1,le15
cyclohexen-1-ylbenzene,376.45,1.0,C1=C(c2ccccc2)CCCC1,le15
"Benzene, 1,3-bis(1-methylethenyl)-",364.25,1.0,C=C(C)c1cccc(C(=C)C)c1,le15
"Benzene, 3-cyclohexen-1-yl-",359.54999999999984,1.0,C1=C(c2ccccc2)CCCC1,le15
"Butanoic acid, 3-methylbutyl ester",330.95,1.0,CCCC(=O)OCCC(C)C,le15
"Heptanoic acid, ethyl ester",339.25,1.0,CCCCCCC(=O)OCC,le15
"Butanoic acid, 3-methyl-, butyl ester",335.95,1.0,CCCCOC(=O)CC(C)C,le15
"Octanoic acid, methyl ester",346.15,1.0,CCCCCCCC(=O)OC,le15
Nonanoic acid,388.05,1.0,CCCCCCCCC(=O)O,le15
"Acetic acid, heptyl ester",341.75,1.0,CCCCCCCOC(C)=O,le15
"Formic acid, octyl ester",350.35,1.0,CCCCCCCCOC=O,le15
"Butanoic acid, pentyl ester",340.95,1.0,CCCCCOC(=O)CCC,le15
"Butanoic acid, 3-methyl-, 2-methylpropyl ester",323.65,1.0,CC(C)COC(=O)CC(C)C,le15
"Pentanoic acid, butyl ester",337.85,1.0,CCCCOC(=O)CCCC,le15
ethyl 4-methylhexanoate,332.5499999999999,1.0,CCOC(=O)CCC(C)CC,le15
"Propionic acid, hexyl ester (6CI,7CI,8CI)",338.15,1.0,CCCCCCOC(=O)CC,le15
2-methyloctanoic acid,402.85,1.0,CCCCCCC(C)C(=O)O,le15
2-methylpropyl pentanoate,332.5499999999999,1.0,CCCCC(=O)OCC(C)C,le15
propyl hexanoate,324.85,1.0,CCCCCC(=O)OCCC,le15
"1-Butanamine, N-butyl-N-nitroso-",378.45,1.0,CCCCN(CCCC)N=O,le15
"1-Octanol, 3,7-dimethyl-",368.15,1.0,CC(C)CCCC(C)CCO,le15
"3-Octanol, 3,6-dimethyl-",368.15,1.0,CCC(C)CCC(C)(O)CC,le15
"Pentane, 1,1'-oxybis-",330.15,1.0,CCCCCOCCCCC,le15
3-ethyloctan-3-ol,354.25,1.0,CCCCCC(O)(CC)CC,le15
5-methyl-2-propan-2-ylhexan-1-ol,353.04999999999984,1.0,CC(C)CCC(CO)C(C)C,le15
Isodecyl alcohol,360.25,1.0,CC(C)CCCCCCCO,le15
Decan-4-ol,355.35,1.0,CCCCCCC(O)CCC,le15
decylalcohol,381.15,1.0,CCCCCCCCCCO,le15
Dipentylether,330.0,1.0,CCCCCOCCCCC,le15
"N,N,N',N'-tetraethylmethanediamine",315.45,1.0,CCN(CC)CN(CC)CC,le15
"1-N,1-N-diethylpentane-1,4-diamine",341.45,1.0,CCN(CC)CCCC(C)N,le15
"Benzoyl chloride, 2-fluoro-",355.15,1.0,O=C(Cl)c1ccccc1F,le15
3-fluorobenzoyl chloride,355.35,1.0,O=C(Cl)c1cccc(F)c1,le15
"Benzaldehyde, 2-chloro-6-fluoro-",374.15,1.0,O=Cc1c(F)cccc1Cl,le15
4-chloro-2-methoxyphenol,373.55,1.0,COc1cc(Cl)ccc1O,le15
"Benzene, 1-chloro-4-(methylthio)-",363.15,1.0,CSc1ccc(Cl)cc1,le15
"Ethane, 1,1'-thiobis(2-chloro-",362.55,1.0,ClCCSCCCl,le15
"Benzene, 1,4-difluoro-2-nitro-",363.15,1.0,O=[N+]([O-])c1cc(F)ccc1F,le15
"Benzene, 2,4-difluoro-1-nitro-",363.15,1.0,O=[N+]([O-])c1ccc(F)cc1F,le15
"1,3-difluoro-5-nitrobenzene",347.04999999999984,1.0,O=[N+]([O-])c1cc(F)cc(F)c1,le15
1-methylquinolin-2-one,379.95,1.0,Cn1c(=O)ccc2ccccc21,le15
"Quinoline, 4-methoxy-",362.85,1.0,COc1ccnc2ccccc12,le15
8-methoxyquinoline,375.85,1.0,COc1cccc2cccnc12,le15
6-methoxyquinoline,375.85,1.0,COc1ccc2ncccc2c1,le15
2-methylquinolin-8-ol,412.55,1.0,Cc1ccc2cccc(O)c2n1,le15
"1H-1,2,4-Triazole, 1-benzyl-",421.45,1.0,c1ccc(Cn2cncn2)cc1,le15
"Benzenemethanamine, N-methyl-N-2-propynyl-",356.15,1.0,C#CCN(C)Cc1ccccc1,le15
"3H-Indole, 2,3,3-trimethyl-",355.95,1.0,CC1=Nc2ccccc2C1(C)C,le15
"2,3,5-trimethyl-1H-indole",399.75,1.0,Cc1ccc2[nH]c(C)c(C)c2c1,le15
"1,2,3-trimethylindole",399.05,1.0,Cc1c(C)n(C)c2ccccc12,le15
"Thiazole, 4,5-dihydro-2-(2-propenylthio)- (9CI)",369.05,1.0,C=CCSC1=NCCS1,le15
"2-Propenal, 2,3,3-trichloro- (9CI)",344.25,1.0,O=CC(Cl)=C(Cl)Cl,le15
"1-Butene, 2,3,4-trichloro-",364.85,1.0,C=C(Cl)C(Cl)CCl,le15
"2-Butene, 1,2,4-trichloro-",378.65,1.0,ClCC=C(Cl)CCl,le15
"Isocyanic acid, p-phenylene ester (6CI,7CI,8CI)",365.55,1.0,O=C=Nc1ccc(N=C=O)cc1,le15
1-methyl-4-(trifluoromethyl)benzene,300.15,1.0,Cc1ccc(C(F)(F)F)cc1,le15
"2H-1-Benzopyran-2-one, 6-methyl-",397.45,1.0,Cc1ccc2oc(=O)ccc2c1,le15
"1,3-Naphthalenediol",458.65,1.0,Oc1cc(O)c2ccccc2c1,le15
benzenesulfonyl fluoride,360.35,1.0,O=S(=O)(F)c1ccccc1,le15
"1,4-Dihydroxynaphthalene",475.65,1.0,Oc1ccc(O)c2ccccc12,le15
3-methylchromen-2-one,393.75,1.0,Cc1cc2ccccc2oc1=O,le15
"2H-1-Benzopyran-2-one, 7-methyl-",399.05,1.0,Cc1ccc2ccc(=O)oc2c1,le15
"1,6-Dihydroxynaphthalene",466.65,1.0,Oc1ccc2c(O)cccc2c1,le15
Heptanedioic acid,455.05,1.0,O=C(O)CCCCCC(=O)O,le15
2-butylpropanedioic acid,442.55,1.0,CCCCC(C(=O)O)C(=O)O,le15
"1,2-Propanediol, diacetate",357.45,1.0,CC(=O)OCC(C)OC(C)=O,le15
"Glutaric acid, dimethyl ester (8CI)",376.45,1.0,COC(=O)CCCC(=O)OC,le15
dimethyl 2-methylbutanedioate,356.45,1.0,COC(=O)CC(C)C(=O)OC,le15
"Glutaric acid, 3,3-dimethyl- (8CI)",422.85,1.0,CC(C)(CC(=O)O)CC(=O)O,le15
"Propanedioic acid, diethyl ester",373.15,1.0,CCOC(=O)CC(=O)OCC,le15
"3-Buten-2-one, 3-methyl-4-phenyl-",369.45,1.0,CC(=O)C(C)=Cc1ccccc1,le15
cyclobutyl(phenyl)methanone,375.65,1.0,O=C(c1ccccc1)C1CCC1,le15
"Ethanol, 2-butoxy-, acetate",349.25,1.0,CCCCOCCOC(C)=O,le15
3-methylbutyl 2-hydroxypropanoate,347.15,1.0,CC(C)CCOC(=O)C(C)O,le15
naphthalene-2-thiol,407.35,1.0,Sc1ccc2ccccc2c1,le15
naphthalene-1-thiol,407.35,1.0,Sc1cccc2ccccc12,le15
"4,4-dimethyl-2,3-dihydro-1H-naphthalene",354.35,1.0,CC1(C)CCCc2ccccc21,le15
1-propan-2-yl-4-prop-1-en-2-ylbenzene,353.65,1.0,C=C(C)c1ccc(C(C)C)cc1,le15
"2,7-dimethyl-1,2,3,4-tetrahydronaphthalene",371.55,1.0,Cc1ccc2c(c1)CC(C)CC2,le15
"2-ethyl-1,2,3,4-tetrahydronaphthalene",365.95,1.0,CCC1CCc2ccccc2C1,le15
"5-ethyl-1,2,3,4-tetrahydronaphthalene",371.55,1.0,CCc1cccc2c1CCCC2,le15
"6,7-dimethyl-1,2,3,4-tetrahydronaphthalene",374.65,1.0,Cc1cc2c(cc1C)CCCC2,le15
"1,5-dimethyl-1,2,3,4-tetrahydronaphthalene",372.25,1.0,Cc1cccc2c1CCCC2C,le15
"6-ethyl-1,2,3,4-tetrahydronaphthalene",376.35,1.0,CCc1ccc2c(c1)CCCC2,le15
"1,3-Propanediol, 2-butyl-2-ethyl-",410.15,1.0,CCCCC(CC)(CO)CO,le15
"N,N,N',N'-Tetramethyl-2,2'-oxybis(ethylamine)",319.35,1.0,CN(C)CCOCCN(C)C,le15
"Decane, 1-fluoro-",379.25,1.0,CCCCCCCCCCF,le15
"Ether, 2-(butylthio)ethyl vinyl",353.65,1.0,C=COCCSCCCC,le15
"Thiourea, N,N'-bis(1-methylethyl)-",348.04999999999984,1.0,CC(C)NC(=S)NC(C)C,le15
ethenyl-diethoxy-methylsilane,290.95,1.0,C=C[Si](C)(OCC)OCC,le15
"Phosphorochloridothioic acid, O,O-dimethyl ester",366.15,1.0,COP(=S)(Cl)OC,le15
"Benzene, 2,4-dichloro-1-methyl-",352.54999999999984,1.0,Cc1ccc(Cl)cc1Cl,le15
"Toluene, 3,4-dichloro- (8CI)",359.15,1.0,Cc1ccc(Cl)c(Cl)c1,le15
"Toluene, alpha,alpha-dichloro- (8CI)",361.15,1.0,ClC(Cl)c1ccccc1,le15
"Benzene, 1-chloro-4-(chloromethyl)-",360.45,1.0,ClCc1ccc(Cl)cc1,le15
"1,3-dichloro-2-methylbenzene",355.95,1.0,Cc1c(Cl)cccc1Cl,le15
1-chloro-2-(chloromethyl)benzene,355.15,1.0,ClCc1ccccc1Cl,le15
1-chloro-3-(chloromethyl)benzene,371.15,1.0,ClCc1cccc(Cl)c1,le15
"1,3-dichloro-5-methylbenzene",352.35,1.0,Cc1cc(Cl)cc(Cl)c1,le15
"1,2-dichloro-3-methylbenzene",356.15,1.0,Cc1cccc(Cl)c1Cl,le15
"1,4-dichloro-2-methylbenzene",352.54999999999984,1.0,Cc1cc(Cl)ccc1Cl,le15
"o-Toluidine, alpha,alpha,alpha-trifluoro- (8CI)",339.15,1.0,Nc1ccccc1C(F)(F)F,le15
"m-Toluidine, alpha,alpha,alpha-trifluoro-",358.15,1.0,Nc1cccc(C(F)(F)F)c1,le15
"2(1H)-Quinolinone, 4-hydroxy-",410.65,1.0,O=c1cc(O)c2ccccc2[nH]1,le15
"2-methylisoindole-1,3-dione",390.55,1.0,CN1C(=O)c2ccccc2C1=O,le15
Methyl 4-cyanobenzoate,404.35,1.0,COC(=O)c1ccc(C#N)cc1,le15
8-Hydroxyquinoline-N-oxide,412.15,1.0,[O-][n+]1cccc2cccc(O)c21,le15
4-phenoxybutanenitrile,394.65,1.0,N#CCCCOc1ccccc1,le15
"Acetamide, N-phenyl-N-vinyl-",386.05,1.0,C=CN(C(C)=O)c1ccccc1,le15
"1,2-Dihydro-3,3-dimethyl-2-oxo-3H-indole",445.75,1.0,CC1(C)C(=O)Nc2ccccc21,le15
3-phenylpiperidine,388.63800000000003,1.0,c1ccc(C2CCCNC2)cc1,le15
1-phenylpiperidine,379.25,1.0,c1ccc(N2CCCCC2)cc1,le15
4-phenylpiperidine,386.12,1.0,c1ccc(C2CCNCC2)cc1,le15
"Ethanol, 2,2'-(butylimino)bis-",399.85,1.0,CCCCN(CCO)CCO,le15
"Ethanol, 2-(2-(diethylamino)ethoxy)-",368.95,1.0,CCN(CC)CCOCCO,le15
"Ethanol, 2,2'-(tert-butylimino)di- (6CI,7CI,8CI)",391.15,1.0,CC(C)(C)N(CCO)CCO,le15
"2,2-diethoxy-N,N-dimethylethanamine",318.15,1.0,CCOC(CN(C)C)OCC,le15
"4,4-diethoxybutan-1-amine",335.95,1.0,CCOC(CCCN)OCC,le15
1-(2-hydroxybutylamino)butan-2-ol,384.75,1.0,CCC(O)CNCC(O)CC,le15
"Carbamothioic acid, diethyl-, S-ethyl ester (9CI)",357.35,1.0,CCSC(=O)N(CC)CC,le15
"2-Propanone, 1,1,1-trichloro-",337.15,1.0,CC(=O)C(Cl)(Cl)Cl,le15
"1,1,3-trichloropropan-2-one",352.15,1.0,O=C(CCl)C(Cl)Cl,le15
2-(trichloromethyl)oxirane,337.45,1.0,ClC(Cl)(Cl)C1CO1,le15
"Propionaldehyde, 2,2,3-trichloro-",330.65,1.0,O=CC(Cl)(Cl)CCl,le15
"Silanamine, 1,1,1-trimethyl-N-(trimethylsilyl)-",303.15,1.0,C[Si](C)(C)N[Si](C)(C)C,le15
"1,1,3-trichlorobutane",344.95,1.0,CC(Cl)CC(Cl)Cl,le15
"1,2,3-trichloro-2-methylpropane",351.54999999999984,1.0,CC(Cl)(CCl)CCl,le15
"Silane, trichlorovinyl- (8CI)",283.75,1.0,[SiH3]C(Cl)=C(Cl)Cl,le15
"1H-Pyrazole, 3-chloro-5-methyl-4-nitro-",448.45,1.0,Cc1[nH]nc(Cl)c1[N+](=O)[O-],le15
"Benzenamine, 3,4-dichloro-",439.15,1.0,Nc1ccc(Cl)c(Cl)c1,le15
"Benzenamine, 2,5-dichloro-",412.15,1.0,Nc1cc(Cl)ccc1Cl,le15
"2,3-dichloroaniline",388.15,1.0,Nc1cccc(Cl)c1Cl,le15
"Benzenamine, 3,5-dichloro-",406.15,1.0,Nc1cc(Cl)cc(Cl)c1,le15
"Benzenamine, 2,4-dichloro-",373.35,1.0,Nc1ccc(Cl)cc1Cl,le15
5-Bromopentanenitrile,372.65,1.0,N#CCCCCBr,le15
2-(trifluoromethyl)phenol,338.15,1.0,Oc1ccccc1C(F)(F)F,le15
trifluoromethoxybenzene,285.35,1.0,FC(F)(F)Oc1ccccc1,le15
3-(trifluoromethyl)phenol,347.04999999999984,1.0,Oc1cccc(C(F)(F)F)c1,le15
"alpha,alpha,alpha-Trifluoro-p-cresol",353.25,1.0,Oc1ccc(C(F)(F)F)cc1,le15
1-benzofuran-2-carboxylic acid,416.45,1.0,O=C(O)c1cc2ccccc2o1,le15
"Acetonitrile, (o-nitrophenyl)-",411.15,1.0,N#CCc1ccccc1[N+](=O)[O-],le15
"1,4-Phthalazinedione, 2,3-dihydro-",543.55,1.0,O=c1[nH][nH]c(=O)c2ccccc12,le15
"Formic acid, oxydi-, diethyl ester",342.5499999999999,1.0,CCOC(=O)OC(=O)OCC,le15
"Phthalimide, N-amino- (8CI)",437.75,1.0,NN1C(=O)c2ccccc2C1=O,le15
"1H-Indole, 5-nitro- (9CI)",446.25,1.0,O=[N+]([O-])c1ccc2[nH]ccc2c1,le15
"Imidazole, 1,1'-carbonyldi- (8CI)",465.65,1.0,O=C(n1ccnc1)n1ccnc1,le15
"1,3-Butanedione, 1-phenyl-",370.05,1.0,CC(=O)CC(=O)c1ccccc1,le15
"Benzene, 4-allyl-1,2-(methylenedioxy)-",370.15,1.0,C=CCc1ccc2c(c1)OCO2,le15
"2-Propenoic acid, 3-phenyl-, methyl ester",414.45,1.0,COC(=O)C=Cc1ccccc1,le15
"Benzene, 1,2-(methylenedioxy)-4-propenyl-",383.15,1.0,CC=Cc1ccc2c(c1)OCO2,le15
"Silane, phenyltrifluoro-",288.35,1.0,F[Si](F)(F)c1ccccc1,le15
"2(3H)-Furanone, dihydro-5-phenyl- (8CI)(9CI)",408.65,1.0,O=C1CCC(c2ccccc2)O1,le15
"2-Propenal, 3-(2-methoxyphenyl)-",407.55,1.0,COc1ccccc1C=CC=O,le15
4-phenylbut-3-enoic acid,488.95,1.0,O=C(O)CC=Cc1ccccc1,le15
"2-Propenoic acid, phenylmethyl ester",388.65,1.0,C=CC(=O)OCc1ccccc1,le15
"Phenol, p-vinyl-, acetate (6CI,7CI,8CI)",361.15,1.0,C=Cc1ccc(OC(C)=O)cc1,le15
"2-Propen-1-ol, 3-phenyl-, formate",400.85,1.0,O=COCC=Cc1ccccc1,le15
"2-Pyrazolin-3-ol, 1-phenyl- (7CI)",410.85,1.0,OC1=NN(c2ccccc2)CC1,le15
"2,3-dihydroxypropyl butanoate",384.45,1.0,CCCC(=O)OCC(O)CO,le15
3-methyl-1-phenylbutan-1-one,362.841,1.0,CC(C)CC(=O)c1ccccc1,le15
"2,2-dimethyl-1-phenylpropan-1-one",359.15,1.0,CC(C)(C)C(=O)c1ccccc1,le15
"1-Pentanone, 1-phenyl-",372.85,1.0,CCCCC(=O)c1ccccc1,le15
"1-(2,4,6-trimethylphenyl)ethanone",372.15,1.0,CC(=O)c1c(C)cc(C)cc1C,le15
1-(4-methylphenyl)butan-1-one,383.25,1.0,CCCC(=O)c1ccc(C)cc1,le15
"1-(2,4,5-trimethylphenyl)ethanone",355.35,1.0,CC(=O)c1cc(C)c(C)cc1C,le15
"Pyridine, 3-(1-methyl-2-pyrrolidinyl)-, (S)- (9CI)",374.85,1.0,CN1CCC[C@H]1c1cccnc1,le15
"1,1,1-triethoxyethane",309.25,1.0,CCOC(C)(OCC)OCC,le15
Diethylene glycol monobutyl ether,373.15,1.0,CCCCOCCOCCO,le15
"Ethane, 1,1'-oxybis(2-ethoxy-",344.25,1.0,CCOCCOCCOCC,le15
3-piperidin-2-ylpyridine,366.15,1.0,c1cncc(C2CCCCN2)c1,le15
"Ethanol, 2-(2-(2-methylpropoxy)ethoxy)-",365.95,1.0,CC(C)COCCOCCO,le15
"Piperazine, 1-phenyl-",411.45,1.0,c1ccc(N2CCNCC2)cc1,le15
"1,2,3,4,5,6-hexamethylbenzene",534.55,1.0,Cc1c(C)c(C)c(C)c(C)c1C,le15
"Benzene, 1,3-bis(1-methylethyl)-",349.85,1.0,CC(C)c1cccc(C(C)C)c1,le15
"1,3,5-triethylbenzene",354.25,1.0,CCc1cc(CC)cc(CC)c1,le15
hexylbenzene,356.65,1.0,CCCCCCc1ccccc1,le15
2-methylpentan-2-ylbenzene,346.15,1.0,CCCC(C)(C)c1ccccc1,le15
1-tert-butyl-4-ethylbenzene,349.04999999999984,1.0,CCc1ccc(C(C)(C)C)cc1,le15
"1-tert-butyl-3,5-dimethylbenzene",344.95,1.0,Cc1cc(C)cc(C(C)(C)C)c1,le15
"1,4-di(propan-2-yl)benzene",349.15,1.0,CC(C)c1ccc(C(C)C)cc1,le15
"(1Z,5E,9E)-cyclododeca-1,5,9-triene",360.95,1.0,C1=C\CC/C=C/CC/C=C/CC/1,le15
hexan-3-ylbenzene,347.35,1.0,CCCC(CC)c1ccccc1,le15
"1,2,4-trimethyl-5-propan-2-ylbenzene",355.54999999999984,1.0,Cc1cc(C)c(C(C)C)cc1C,le15
"2H-1,3,5-Thiadiazine-2-thione, tetrahydro-3,5-dimethyl-",361.35,1.0,CN1CSC(=S)N(C)C1,le15
"Butane, 1,1'-sulfinylbis-",394.55,1.0,CCCCS(=O)CCCC,le15
"2,2,2-trichloroacetamide",361.65,1.0,NC(=O)C(Cl)(Cl)Cl,le15
"Disiloxane, 1,1,1,3,3,3-hexamethyl-",280.85,1.0,C[Si](C)(C)O[Si](C)(C)C,le15
"Naphthalene, 1-chloro-",394.25,1.0,Clc1cccc2ccccc12,le15
"Naphthalene, 2-chloro-",398.15,1.0,Clc1ccc2ccccc2c1,le15
1chlorononane,347.0,1.0,CCCCCCCCCCl,le15
"Phosphorodichloridic acid, ethyl ester",301.0499999999999,1.0,CCOP(=O)(Cl)Cl,le15
"Phenol, 2,6-dichloro-",368.05,1.0,Oc1c(Cl)cccc1Cl,le15
"Phenol, 3,4-dichloro-",382.25,1.0,Oc1ccc(Cl)c(Cl)c1,le15
"Phenol, 2,3-dichloro-",374.75,1.0,Oc1cccc(Cl)c1Cl,le15
"Phenol, 2,5-dichloro-",373.15,1.0,Oc1cc(Cl)ccc1Cl,le15
"Phenol, 3,5-dichloro-",380.05,1.0,Oc1cc(Cl)cc(Cl)c1,le15
"2,4-dichloro-5-methylpyrimidine",391.65,1.0,Cc1cnc(Cl)nc1Cl,le15
"2,4-dichloro-6-methylpyrimidine",380.15,1.0,Cc1cc(Cl)nc(Cl)n1,le15