smiles,compound,flashpoint,source,pure substance
C[SiH](C)O[SiH](C)C," 1,1,3,3-Tetramethyldisiloxane",251.15,wang11,1
CN([SiH3])[Si](C)(C)C, Tetramethyldisilazane,284.15,wang11,1
C=CC[Si](C)(C)Cl, Allyldimethylchlorosilane,278.15,wang11,1
CCCC(C)[Si](Cl)(Cl)Cl, sec-Amyltrichlorosilane,303.15,wang11,1
CCCC[Si](C)(Cl)Cl, n-Butylmethyldichlorosilane,303.15,wang11,1
CN(C)C([SiH3])N(C)C, Bis(dimethylamino)methylsilane,270.15,wang11,1
Cl[Si](Cl)(Cl)c1ccccc1, Phenyltrichlorosilane,364.15,wang11,1
CC(=O)O[Si](C)(C)OC(C)=O,Dimethyldiacetoxysilane,310.15,wang11,1
CC#C[Si](C)(C)C,1-Trimethylsilylpropyne,270.15,wang11,1
C=C[Si](C)(C)OCC,Vinyldimethylethoxysilane,277.15,wang11,1
C=CCO[Si](C)(C)C,Allyloxytrimethylsilane,273.15,wang11,1
C=CC[Si](OC)(OC)OC,Allyltrimethoxysilane,319.15,wang11,1
CO[Si](CCCCl)(OC)OC,3-Chloropropyltrimethoxysilane,348.15,wang11,1
CCC[Si](OC)(OC)OC,n-Propyltrimethoxysilane,298.15,wang11,1
C[Si](C)(C)O[Si](C)(C)C,Hexamethyldisiloxane,270.15,wang11,1
C[Si](C)(C)[Si](C)(C)C,Hexamethyldisilane,272.15,wang11,1
C=C[Si](C)(CC)CC,Vinyldiethylmethylsilane,288.15,wang11,1
CO[Si](CC(C)C)(OC)OC,Isobutyltrimethoxysilane,315.15,wang11,1
C[Si](C)(Cl)c1ccccc1,Phenyldimethylchlorosilane,334.15,wang11,1
CC[Si](CC)(CC)N(C)C,"(N,N-Dimethylamino)triethylsilane",299.15,wang11,1
C=C[Si](OC(C)=O)(OC(C)=O)OC(C)=O,Vinyltriacetoxysilane,361.15,wang11,1
CC[Si](OC(C)=O)(OC(C)=O)OC(C)=O,Ethyltriacetoxysilane,377.15,wang11,1
C[Si](C)(C)C1C=CCC1,3-(Trimethylsilyl)cyclopentene,299.15,wang11,1
C=C[Si](CC)(CC)CC,Vinyltriethylsilane,298.15,wang11,1
CCCCCCCC[SiH3],n-Octylsilane,309.15,wang11,1
CO[Si](C)(OC)c1ccccc1,Methylphenyldimethoxysilane,349.15,wang11,1
CCO[Si](CCC#N)(OCC)OCC,2-Cyanoethyltriethoxysilane,359.15,wang11,1
CO[Si](CCCOCC1CO1)(OC)OC,3-Glycidoxypropyltrimethoxysilane,383.15,wang11,1
CC(C)(C)[Si](C)(Cl)C(C)(C)C, Di-t-butylmethylchlorosilane,342.15,wang11,1
CCC[Si](Cl)(CCC)CCC,Tri-n-propylchlorosilane,349.15,wang11,1
CC(C)N(C(C)C)[Si](C)(C)C, (Diisopropylamino)trimethylsilane,301.15,wang11,1
C[Si](C)(C)O[Si](C)(C)O[Si](C)(C)O[Si](C)(C)Cl, 1-Chlorononamethyltetrasiloxane,347.15,wang11,1
C[Si](C)(C)OC([SiH3])(O[Si](C)(C)C)O[Si](C)(C)C, Tristrimethylsiloxymethylsilane,336.15,wang11,1
[SiH3]C(c1ccccc1)c1ccccc1,Diphenylmethylsilane,393.15,wang11,1
C=C(C)O[Si](C)(C)C,Trimethyl[(1-methylethenyl)oxy]silane,272.15,wang11,1
FC(F)(F)CC[SiH2]C(Cl)Cl,"Dichloromethyl-3,3,3-trifluoropropylsilane",288.15,wang11,1
C[Si](C)(C)CCOCCl,[2-(chloromethoxy)ethyl]trimethylsilane,319.15,wang11,1
c1ccc([SiH](c2ccccc2)c2ccccc2)cc1,Triphenylsilane,416.35,wang11,1
Cl[SiH](Cl)Cl,Trichlorosilane,245.15,wang11,1
NC1CCCC1,Cyclopentanamine,284.6,didier14,1
CCc1ccccc1,Ethylbenzene,296.1,didier14,1
CNc1ccccc1,"Benzenamine, N-methyl-",351.0,didier14,1
c1ccc(Oc2ccccc2)cc1,Diphenyl ether,388.1,didier14,1
,"Hexanedioic acid,1,6-bis",469.1,didier14,1
,"Benzene,propyl-",312.1,didier14,1
,"Benzenamine,N-ethyl-",358.1,didier14,1
CCCCC(CC)CO,2-Ethylhexanol,346.0,didier14,1
CCc1ccc(CC)cc1,"1,4-Diethylbenzene",330.0,didier14,1
CCCC(C)CO,"1-Pentanol, 2-methyl-",323.1,didier14,1
CCOC(=O)CC,Ethyl propionate,285.0,didier14,1
,DL-sec-Butylacetate,289.0,didier14,1
,"Butanoicacid, ethyl ester",297.1,didier14,1
CCOC(C)OCC,"Ethane, 1,1-diethoxy-",286.1,didier14,1
,"Butanoic acid, propylester",310.1,didier14,1
Cc1ccc(O)c(C)c1,"2,4-Dimethylphenol",368.1,didier14,1
CCCCC(=O)CC,3-Heptanone,310.1,didier14,1
,"Propanoic acid, propylester",294.1,didier14,1
Cc1ccc(C)cc1,"1,4-Dimethylbenzene",299.0,didier14,1
,"Phenol,4-methyl-",359.1,didier14,1
Cc1ccc(N)cc1,p-Toluidine,360.0,didier14,1
C=CC(=O)OCC(C)C,Isobutyl acrylate,304.3,didier14,1
,"Pentane,3-ethyl-3-methyl-",276.0,didier14,1
CCC(CC)(CC)CC,"Pentane, 3,3-diethyl-",294.0,didier14,1
,"Pentane,3-ethyl-2,4-dimethyl-",291.1,didier14,1
C=CC=C,"1,3-Butadiene",197.2,didier14,1
CCCS,1-Propanethiol,253.2,didier14,1
,"Pentane,2,2,4,4-tetramethyl-",278.1,didier14,1
CCC#N,Propanenitrile,279.1,didier14,1
CCCCCC(C)(C)C,"Heptane, 2,2-dimethyl-",292.1,didier14,1
NCCN,"1,2-Ethanediamine",311.0,didier14,1
CC(C)CCCCC(C)C,"Octane, 2,7-dimethyl-",310.9,didier14,1
CCCCCCc1ccccc1,1-Phenylhexane,356.1,didier14,1
CCCCCCCc1ccccc1,"Benzene, heptyl-",370.6,didier14,1
CCCC(C)=O,2-Pentanone,280.0,didier14,1
CCCC(=O)O,Butyric acid,345.1,didier14,1
,"2-Pentanone,4-methyl-",286.1,didier14,1
CC(C)CC(C)O,"2-Pentanol, 4-methyl-",314.0,didier14,1
CC(C)NC(C)C,Diisopropylamine,266.1,didier14,1
CC(C)OC(C)C,Isopropyl ether,245.0,didier14,1
Cc1cccc(C)c1,"1,3-Dimethylbenzene",298.1,didier14,1
Cc1cccc(O)c1,"Phenol, 3-methyl-",359.1,didier14,1
Cc1cccc(N)c1,m-Toluidine,359.0,didier14,1
Cc1cccc(C)n1,"Pyridine, 2,6-dimethyl-",306.0,didier14,1
Cc1cc(C)cc(C)c1,Mesitylene,317.6,didier14,1
,"4-Heptanone,2,6-dimethyl-",322.1,didier14,1
CC1CCCCC1,"Cyclohexane, methyl-",269.1,didier14,1
Cc1ccccc1,Toluene,279.1,didier14,1
Cc1ccncc1,"Pyridine, 4-methyl-",312.1,didier14,1
NC1CCCCC1,Cyclohexanamine,299.6,didier14,1
Oc1ccccc1,Phenol,352.1,didier14,1
Cc1cccnc1,"Pyridine, 3-methyl-",309.1,didier14,1
Cc1ccccn1,"Pyridine, 2-methyl-",299.1,didier14,1
CCCCOC(=O)CCC,"Butanoic acid, butyl ester",323.1,didier14,1
CCCCC(=O)O,Valeric acid,359.1,didier14,1
CCCOC(C)=O,Propyl acetate,283.7,didier14,1
CCCCC,Pentane,224.2,didier14,1
C=CCCC,1-Pentene,222.0,didier14,1
CCCCCl,1-Chlorobutane,263.8,didier14,1
CCCC#N,Butanenitrile,291.1,didier14,1
NCCCN,"1,3-Diaminopropane",322.1,didier14,1
CCCCS,Butanethiol,274.1,didier14,1
COCCO,"Ethanol, 2-methoxy-",312.1,didier14,1
,"Ethanamine,N-ethyl-",245.2,didier14,1
CC(=O)CCC(C)C,"2-Hexanone, 5-methyl-",308.1,didier14,1
CC(=O)OCC(C)C,Isobutyl acetate,291.0,didier14,1
,"Hexanedioic acid,1,6-dihexyl ester",464.0,didier14,1
,"Decanoic acid, methylester",367.1,didier14,1
CCCCCC(C)=O,2-Heptanone,312.1,didier14,1
,N-hexane,250.2,didier14,1
CCCCCN,Amylamine,280.1,didier14,1
CCCCC=O,Valeraldehyde,285.1,didier14,1
CCCCCS,1-Pentanethiol,291.1,didier14,1
COCCOC,"1,2-Dimethoxyethane",271.5,didier14,1
c1ccncc1,Pyridine,293.1,didier14,1
CCCCCCC(C)=O,2-Octanone,329.1,didier14,1
CCCCCCC(=O)O,Heptanoic acid,388.1,didier14,1
O=C(O)CCCCCC(=O)O,Pimelic acid,423.1,didier14,1
CCCCCCN,1-Hexanamine,300.1,didier14,1
CCCCCCO,Hexyl alcohol,333.1,didier14,1
CCCCCCS,1-Hexanethiol,305.6,didier14,1
C=COCCCC,n-Butylvinylether,272.0,didier14,1
CCCCCCCC,Octane,287.1,didier14,1
C=CCCCCCC,1-Octene,284.6,didier14,1
CCCCCCC=O,Heptaldehyde,308.1,didier14,1
,"Ethanol,2-butoxy-",334.1,didier14,1
,"Ethanol,2-",360.1,didier14,1
CCCCCCCCC,Nonane,304.1,didier14,1
CCCCCCCCO,1-Octanol,359.7,didier14,1
CCOCCOCCO,"Ethanol, 2-(2-ethoxyethoxy)-",363.1,didier14,1
CCCCNCCCC,"1-Butanamine, N-butyl-",315.0,didier14,1
CCCCCCCCCCC,Undecane,339.1,didier14,1
CCCCCCCCOC(C)=O,Acetic acid octyl ester,356.1,didier14,1
,"Acetic acid, decylester",386.5,didier14,1
CCCCCCCCCCO,Decyl alcohol,377.1,didier14,1
CCCCCCCCCC=O,Decanal,358.1,didier14,1
,"Formic acid, octylester",349.5,didier14,1
,"Ethanol,2-",378.1,didier14,1
C=CCCCCCCCCCC,1-Dodecene,346.1,didier14,1
CCCCCCCCCCCO,1-Undecanol,386.1,didier14,1
CCCCCCCCCCC=O,Undecanal,369.1,didier14,1
CCCCCCCCCCCCO,1-Dodecanol,400.0,didier14,1
,Dodecyl aldehyde,374.1,didier14,1
CCCCCCCCCCCCCCO,1-Tetradecanol,421.1,didier14,1
C=CCCCCCCCCCCCCCCCC,1-Octadecene,421.1,didier14,1
,"Pentane,2,2,3,4-tetramethyl-",284.0,didier14,1
CCN(CC)CC,Triethylamine,262.1,didier14,1
CN(C)c1ccccc1,"N,N-Dimethylaniline",348.1,didier14,1
,"Phenol,4-ethyl-",373.1,didier14,1
CCCC(=O)CCC,4-Heptanone,307.1,didier14,1
CCC=O,Propionaldehyde,243.2,didier14,1
CC(C)CCO,"1-Butanol, 3-methyl-",316.0,didier14,1
CCCC=O,Butyraldehyde,262.1,didier14,1
CCCCOC(C)=O,Butyl acetate,298.1,didier14,1
,"Octadecanoicacid, butyl ester",433.1,didier14,1
CCCCCCC(C)O,2-Octanol,344.1,didier14,1
CCCCCCCC(=O)O,Octanoic acid,400.1,didier14,1
NCCCCCCN,"1,6-Hexanediamine",354.1,didier14,1
C=CCCCCCCC,1-Nonene,299.1,didier14,1
CCCCCCCC=O,Octanal,324.1,didier14,1
CCCCCCCCCC,Decane,322.9,didier14,1
CCCCCCCCC=O,1-Nonanal,336.1,didier14,1
CNC,Dimethylamine,223.2,didier14,1
,"3-Hexene,",248.2,didier14,1
C=CCCCCCCCCCCCCC,1-Pentadecene,385.1,didier14,1
,"2-Octene,",287.1,didier14,1
CCc1ccccc1CC,"1,2-Diethylbenzene",330.4,didier14,1
,"Benzene,",325.0,didier14,1
CCC(C)CO,"1-Butanol, 2-methyl-",316.1,didier14,1
CCC(C)N,sec-Butylamine,254.2,didier14,1
CCOC(C)=O,Ethyl acetate,269.0,didier14,1
CCc1cccc(CC)c1,"1,3-Diethylbenzene",329.0,didier14,1
CCCCCC(=O)O,Hexanoic acid,375.1,didier14,1
,N-Heptane,269.0,didier14,1
CCCNCCC,Dipropylamine,280.6,didier14,1
CCCCCCCCCCCC(=O)O,Lauric acid,437.0,didier14,1
CCCCCCCCCO,1-Nonanol,369.1,didier14,1
CCCCCCCCCOC(C)=O,NONYL ACETATE,372.1,didier14,1
,"2-Heptene,",272.0,didier14,1
,"3-Heptene,",267.1,didier14,1
,"3-Octene,",290.0,didier14,1
,"4-Octene,",285.6,didier14,1
,"3-Octene,",287.1,didier14,1
CCCCC(CC)C(=O)O,"Hexanoicacid, 2-ethyl-",383.1,didier14,1
CCCOCC(C)O,1-PROPOXY-2-PROPANOL,321.1,didier14,1
CCCCC(CC)CC,"Heptane, 3-ethyl-",296.1,didier14,1
CCCCC(C)CCCC,"Nonane, 5-methyl-",312.0,didier14,1
,"Propane,2-methoxy-2-methyl-",244.2,didier14,1
CCCCCCCS,1-Heptanethiol,323.6,didier14,1
CCC1CCCC1,"Cyclopentane, ethyl-",273.1,didier14,1
,"Hexane,2,4,4-trimethyl-",283.1,didier14,1
,"Pentane,2,3,3,4-tetramethyl-",294.1,didier14,1
CCC1CCCCC1,"Cyclohexane, ethyl-",291.1,didier14,1
CCCCC1CCCCC1,"Cyclohexane, butyl-",325.6,didier14,1
CCCCCC(C)CCC,"Nonane, 4-methyl-",317.1,didier14,1
,"Cyclohexane,1,2-dimethyl-,",288.1,didier14,1
,"Cyclohexane,1,4-dimethyl-, trans-",284.3,didier14,1
CCCCCC(C)CC,"Octane, 3-methyl-",298.6,didier14,1
CCCCC(C)CCC,"Octane, 4-methyl-",296.1,didier14,1
CCCOCCO,"Ethanol, 2-propoxy-",322.1,didier14,1
CCCCCCC(C)C,"Octane, 2-methyl-",299.1,didier14,1
CCCCCCCCCC(=O)O,Decanoic acid,421.1,didier14,1
C=CC(C)CCC,"1-Hexene, 3-methyl-",267.1,didier14,1
,"Hexane,2,2,5-trimethyl-",282.1,didier14,1
,"Ethane,1,1'-[methylenebis",268.1,didier14,1
Cc1ccc(C)c(C)c1C,"1,2,3,4-Tetramethylbenzene",347.1,didier14,1
CCCCC(=O)CCCC,5-Nonanone,338.1,didier14,1
,"Butanoic acid,3-methyl-",351.1,didier14,1
CCCCOCC(C)O,1-Butoxy-2-propanol,332.1,didier14,1
CC=C(C)C,"2-Butene, 2-methyl-",228.2,didier14,1
,"1-Propanethiol,2-methyl-",264.1,didier14,1
Cc1cccc(C)c1C,"1,2,3-Trimethylbenzene",324.1,didier14,1
Cc1cccc(O)c1C,"2,3-Dimethylphenol",368.1,didier14,1
CCCCCc1ccccc1,"Benzene, pentyl-",339.1,didier14,1
,"Formic acid,2-methylpropyl ester",283.1,didier14,1
CCCCCC(C)O,2-Heptanol,332.1,didier14,1
CCCCCCl,"Pentane, 1-chloro-",284.1,didier14,1
CCCCCCCCCCCCCCCC,Hexadecane,407.1,didier14,1
,"Propanoic acid,2-methyl-, methyl ester",276.1,didier14,1
,"Propanoic acid, methylester",271.0,didier14,1
C=CC(C)(C)C,"1-Butene, 3,3-dimethyl-",241.2,didier14,1
,"Pentane,2,3,3-trimethyl-",275.6,didier14,1
C=CC(C)C,"1-Butene, 3-methyl-",217.2,didier14,1
CC(C)=C(C)C,"2-Butene, 2,3-dimethyl-",257.1,didier14,1
CC(=O)C(C)C,3-Methyl-2-butanone,272.1,didier14,1
,"Pentane,2,2,3-trimethyl-",272.6,didier14,1
CCC(C)C(C)=O,"2-Pentanone, 3-methyl-",285.1,didier14,1
CCC(=O)C(C)C,"3-Pentanone, 2-methyl-",286.1,didier14,1
,"Pentane,2,3,4-trimethyl-",277.1,didier14,1
,"3-Pentanone,2,4-dimethyl-",288.1,didier14,1
CCCCCCCCCCCCCCCCCC(=O)O,Stearic acid,469.0,didier14,1
Cc1cccc(C)c1O,"2,6-Dimethylphenol",358.1,didier14,1
CCC(C)C(C)CC,"Hexane, 3,4-dimethyl-",280.6,didier14,1
CCC(O)CC,3-Pentanol,303.1,didier14,1
CCC(C)CCO,"1-Pentanol, 3-methyl-",331.1,didier14,1
CCC(C)CC(C)C,"Hexane, 2,4-dimethyl-",276.1,didier14,1
CCCC(C)CCC,"Heptane, 4-methyl-",279.1,didier14,1
CCCCC(C)CC,"Heptane, 3-methyl-",279.1,didier14,1
,"Propanoic acid, butylester",313.1,didier14,1
,gem-Dimethylcyclohexane,280.1,didier14,1
CCCCCCC(C)CC,"Nonane, 3-methyl-",319.1,didier14,1
CCCCC(C)=O,2-Hexanone,296.1,didier14,1
C=CCOC(C)=O,Allyl acetate,283.0,didier14,1
CC(C)CCC(C)C,"Hexane, 2,5-dimethyl-",275.1,didier14,1
CCCCCC(C)C,"Heptane, 2-methyl-",279.1,didier14,1
C=CCCCC,1-Hexene,247.2,didier14,1
C=CCCCCC,1-Heptene,265.1,didier14,1
CCC(C)(C)C(=O)O,"2,2-Dimethylbutyric acid",352.1,didier14,1
CC(C)C(C)O,"2-Butanol, 3-methyl-",299.1,didier14,1
CCOCC,Diethyl ether,228.2,didier14,1
CCCC(C)O,2-Pentanol,307.1,didier14,1
C=C(C)CCCC,"1-Hexene, 2-methyl-",267.1,didier14,1
,"Benzene,1-ethyl-2-methyl-",316.1,didier14,1
,"2-Pentene, 3-methyl-,",246.2,didier14,1
,"Propane,2-methyl-2-",270.1,didier14,1
CCCC(CC)CC,"Hexane, 3-ethyl-",278.0,didier14,1
CCc1cccc(C)c1,m-Ethyltoluene,311.1,didier14,1
,"Benzene,1-ethyl-4-methyl-",312.1,didier14,1
,"Butanoicacid, methyl ester",287.0,didier14,1
C[C@H]1CC[C@@H](C)CC1,"Cyclohexane, 1,4-dimethyl-, cis-",284.3,didier14,1
,"Ethane,",258.1,didier14,1
Nc1ccccc1,Aniline,344.1,didier14,1
CCCCC(C)O,2-Hexanol,318.1,didier14,1
,"Butane, 1-",291.1,didier14,1
CCCOCC,"Propane, 1-ethoxy-",253.2,didier14,1
CCCCCOC(C)=O,Amyl acetate,310.1,didier14,1
CCCCCC#N,Hexanenitrile,316.1,didier14,1
CCCCCCCCCCCCC,Tridecane,363.1,didier14,1
CCCCCCCCCCCCCC,Tetradecane,382.4,didier14,1
C=CCCCCCCCCCCCCCC,1-Hexadecene,402.1,didier14,1
CCCCCCCCCCCCCCCCC,Heptadecane,421.1,didier14,1
CCCCCCCCCCCCCCCCCCC,Nonadecane,441.0,didier14,1
,"Cyclohexane,1,3-dimethyl-,",283.1,didier14,1
CCO,Ethanol,286.1,didier14,1
,Acetic acid glacial,312.0,didier14,1
,"2-Heptene,",270.9,didier14,1
,"2-Pentene,",228.0,didier14,1
O=C(O)c1ccccc1,Benzoic acid,394.3,didier14,1
CCCCCC=O,1-HEXANAL,300.0,didier14,1
CC(C)O,Isopropanol,285.1,didier14,1
CCCO,1-Propanol,297.6,didier14,1
CCCCO,1-Butanol,310.5,didier14,1
CCCCCO,1-Pentanol,322.1,didier14,1
c1ccccc1,Benzene,262.0,didier14,1
CCC(C)(C)C(C)(C)C,"Pentane, 2,2,3,3-tetramethyl-",294.6,didier14,1
CCC(C)CC(C)(C)CC,"3,3,5-Trimethylheptane",304.0,didier14,1
CSC,Dimethyl sulfide,237.2,didier14,1
CC(C)Cl,2-Chloropropane,238.2,didier14,1
CC(C)N,Isopropylamine,236.2,didier14,1
CC(C)S,2-Propanethiol,239.0,didier14,1
CC(Cl)Cl,"Ethane, 1,1-dichloro-",263.1,didier14,1
CC(C)(C)O,tert-Butanol,284.3,didier14,1
,"2-Propanethiol,2-methyl-",249.2,didier14,1
CCC(C)(C)O,"2-Butanol, 2-methyl-",292.1,didier14,1
CC(=O)C(C)(C)C,Pinacolone,282.1,didier14,1
C=CC(C)CC,"1-Pentene, 3-methyl-",245.2,didier14,1
,"2-Octene,",290.6,didier14,1
CCC(C)(O)CC,"3-Pentanol, 3-methyl-",297.1,didier14,1
COCC(C)OC,"1,2-Dimethoxypropane",273.1,didier14,1
,"1-Propanamine,2-methyl-",260.1,didier14,1
,"Propanenitrile,2-methyl-",281.5,didier14,1
CC(C)CO,2-Methyl-1-propanol,302.3,didier14,1
CCC(C)Cl,"Butane, 2-chloro-",258.1,didier14,1
CCC(C)O,sec-Butanol,296.1,didier14,1
COC(C)=O,Methyl acetate,260.1,didier14,1
,"Propanoic acid,2-methyl-",333.1,didier14,1
CCCCCCCC(C)=O,2-Nonanone,345.5,didier14,1
c1ccc(-c2ccccc2-c2ccccc2)cc1,"1,1':2',1''-Terphenyl",436.0,didier14,1
CCCCCCCC(C)C,"Nonane, 2-methyl-",314.0,didier14,1
C=CCCCCCCCC,1-Decene,320.1,didier14,1
CCc1ccccc1O,"Phenol, 2-ethyl-",358.1,didier14,1
,"Benzenamine,N,N-diethyl-",358.1,didier14,1
CCCCCCC(=O)CC,3-Nonanone,339.1,didier14,1
CCCCCC(=O)CCCCC,6-Undecanone,361.5,didier14,1
c1ccc(-c2ccc(-c3ccccc3)cc2)cc1,p-Terphenyl,480.0,didier14,1
Cc1ccccc1C,"1,2-Dimethylbenzene",305.1,didier14,1
,"Phenol,2-methyl-",354.0,didier14,1
Cc1ccccc1N,"Benzenamine, 2-methyl-",358.1,didier14,1
Cc1ccc(C)c(C)c1,"1,2,4-TRIMETHYL BENZENE",318.6,didier14,1
,"Phenol,2,5-dimethyl-",368.1,didier14,1
Cc1cc(C)c(C)cc1C,"1,2,4,5-Tetramethylbenzene",346.1,didier14,1
CCC(=O)CC,3-Pentanone,280.1,didier14,1
,"Propanoic acid,2-methyl-, ethyl ester",287.0,didier14,1
CCC(CC)CO,2-Ethyl-1-butanol,326.1,didier14,1
,"Benzene,",317.1,didier14,1
,"Butane,2-methoxy-2-methyl-",262.1,didier14,1
CN(C)c1ccc(C=O)cc1,p-DIMETHYLAMINOBENZALDEHYDE,420.1,didier14,1
CC(C)c1ccc(C(C)C)cc1,p-DIISOPROPYLBENZENE,354.1,didier14,1
CCCCCCCCC(C)CC,3-METHYLUNDECANE,344.0,didier14,1
CCCCCCCCCCCCCCC(=O)O,n-PENTADECANOIC ACID,454.0,didier14,1
CCN(CC)CCO,DIETHYLETHANOLAMINE,321.1,didier14,1
C=Cc1ccccc1,STYRENE,305.0,didier14,1
ClCc1ccccc1,BENZYL CHLORIDE,333.1,didier14,1
NCc1ccccc1,BENZYLAMINE,333.1,didier14,1
N#Cc1ccccc1,BENZONITRILE,344.1,didier14,1
OCc1ccccc1,BENZYL ALCOHOL,366.1,didier14,1
,sec-BUTENYL GLYCOL ETHER,328.0,didier14,1
O=Cc1ccccc1,BENZALDEHYDE,335.1,didier14,1
SCc1ccccc1,BENZYL MERCAPTAN,343.1,didier14,1
N#Cc1cccnc1,NICOTINONITRILE,357.1,didier14,1
COc1ccccc1,ANISOLE,325.1,didier14,1
CSc1ccccc1,METHYL PHENYL SULFIDE,342.0,didier14,1
C=Cc1cccc(C)c1,m-METHYLSTYRENE,324.1,didier14,1
CC(C)(C)c1ccc(C(C)(C)C)cc1,"1,4-DI-tert-BUTYLBENZENE",361.0,didier14,1
c1ccc(Cc2ccccc2)cc1,DIPHENYLMETHANE,403.1,didier14,1
CCc1cc(CC)cc(CC)c1,"1,3,5-TRIETHYLBENZENE",354.1,didier14,1
CCCN(CCC)CCC,TRIPROPYLAMINE,302.0,didier14,1
C=CCN(CC=C)CC=C,TRIALLYLAMINE,304.0,didier14,1
CCCCN(CCCC)CCCC,TRI-n-BUTYLAMINE,359.3,didier14,1
CCCCC(CC)COC(C)=O,2-ETHYLHEXYL ACETATE,344.1,didier14,1
C=CC(=O)OCC(CC)CCCC,2-ETHYLHEXYL ACRYLATE,355.1,didier14,1
c1ccc(CCc2ccccc2)cc1,"1,2-DIPHENYLETHANE",402.0,didier14,1
C(=C/c1ccccc1)\c1ccccc1,trans-STILBENE,418.0,didier14,1
c1ccc(COCc2ccccc2)cc1,DIBENZYL ETHER,408.1,didier14,1
CCOc1ccccc1,PHENETOLE,325.0,didier14,1
CC=Cc1ccc(OC)cc1,ANETHOLE,362.1,didier14,1
CCCCc1ccccc1,n-BUTYLBENZENE,323.1,didier14,1
O=COCc1ccccc1,BENZYL FORMATE,355.0,didier14,1
CCCCCCCCCCc1ccccc1,n-DECYLBENZENE,380.0,didier14,1
CCCCCCCCCCCCC=O,TRIDECANAL,390.0,didier14,1
Cc1ccc(C=O)cc1,p-TOLUALDEHYDE,353.0,didier14,1
CCCCCCCCCC(C)CO,2-METHYL-1-UNDECANOL,392.0,didier14,1
C=COC(=O)CC,VINYL PROPIONATE,274.0,didier14,1
CCOC(=O)OCC,DIETHYL CARBONATE,298.1,didier14,1
,DI-2-ETHYLHEXYLAMINE,405.0,didier14,1
CCCC(=O)OC(=O)CCC,BUTYRIC ANHYDRIDE,355.0,didier14,1
Cc1ccc(Cl)cc1,p-CHLOROTOLUENE,325.0,didier14,1
CCCCCC(=O)CC,3-OCTANONE,316.1,didier14,1
CCCC,n-BUTANE,199.2,didier14,1
C=CCC,1-BUTENE,193.2,didier14,1
C=CC=O,ACROLEIN,247.2,didier14,1
C=CCCl,3-CHLOROPROPENE,241.2,didier14,1
CCCN,n-PROPYLAMINE,261.0,didier14,1
C=CCN,ALLYLAMINE,244.3,didier14,1
C=CC#N,ACRYLONITRILE,273.1,didier14,1
CC(C)(C)CCC(C)(C)C,"2,2,5,5-TETRAMETHYLHEXANE",289.0,didier14,1
C=CCO,ALLYL ALCOHOL,294.0,didier14,1
CC(C)CCCC(C)C,"2,6-DIMETHYLHEPTANE",299.0,didier14,1
C=COC,METHYL VINYL ETHER,217.2,didier14,1
CC=NO,ACETALDOXIME,313.1,didier14,1
COC=O,METHYL FORMATE,254.0,didier14,1
C=C(C)CC(C)(C)C,"2,4,4-TRIMETHYL-1-PENTENE",267.1,didier14,1
CC(C)=CC(C)(C)C,"2,4,4-TRIMETHYL-2-PENTENE",272.1,didier14,1
CCCc1ccccc1C,1-METHYL-2-n-PROPYLBENZENE,326.0,didier14,1
CCCc1cccc(C)c1,1-METHYL-3-n-PROPYLBENZENE,325.0,didier14,1
CCCc1ccc(C)cc1,1-METHYL-4-n-PROPYLBENZENE,326.0,didier14,1
CC(C)(C)SC(C)(C)C,DI-tert-BUTYL SULFIDE,300.0,didier14,1
CCCC(C)C,2-METHYLPENTANE,238.0,didier14,1
C/C=C/C(=O)O,trans-CROTONIC ACID,368.0,didier14,1
CN(C)CCO,DIMETHYLETHANOLAMINE,314.1,didier14,1
C=COC(C)=O,VINYL ACETATE,265.0,didier14,1
CC(C)CC(C)C,"2,4-DIMETHYLPENTANE",261.0,didier14,1
CCCCCCCCCc1ccccc1,n-NONYLBENZENE,372.0,didier14,1
CC(=O)OC(C)C,ISOPROPYL ACETATE,275.0,didier14,1
C=C(C)OC(C)=O,1-METHYLVINYL ACETATE,283.0,didier14,1
CC(=O)OC(C)=O,ACETIC ANHYDRIDE,322.6,didier14,1
C=Cc1cccc(C=C)c1,m-DIVINYLBENZENE,338.0,didier14,1
CCOC(=O)CC(C)C,ETHYL ISOVALERATE,298.1,didier14,1
Cc1cc(C)cc(O)c1,"3,5-XYLENOL",373.0,didier14,1
Cc1cc(C)nc(C)c1,"2,4,6-TRIMETHYLPYRIDINE",330.1,didier14,1
CC(C)CC(O)CC(C)C,"2,6-DIMETHYL-4-HEPTANOL",339.0,didier14,1
Clc1ccccc1,MONOCHLOROBENZENE,305.0,didier14,1
Sc1ccccc1,PHENYL MERCAPTAN,346.1,didier14,1
C=CCCC(C)=O,5-HEXEN-2-ONE,296.1,didier14,1
CCCCN,n-BUTYLAMINE,261.0,didier14,1
C=CCC#N,VINYLACETONITRILE,296.1,didier14,1
C=COC=C,DIVINYL ETHER,226.2,didier14,1
CCOC=O,ETHYL FORMATE,253.2,didier14,1
CC(C)(C)SSC(C)(C)C,DI-tert-BUTYL DISULFIDE,337.1,didier14,1
CN(C)CCN(C)C,TETRAMETHYLETHYLENEDIAMINE,283.1,didier14,1
CCCCCCCCCCCCCC(=O)OC(C)C,ISOPROPYL MYRISTATE,423.0,didier14,1
CCCCC#N,VALERONITRILE,305.0,didier14,1
CCCOC=O,n-PROPYL FORMATE,270.0,didier14,1
CCSC(C)O,ETHYLTHIOETHANOL,350.1,didier14,1
CCSSCC,DIETHYL DISULFIDE,313.1,didier14,1
CC(C)CNCC(C)C,DIISOBUTYLAMINE,294.1,didier14,1
CCCOCCC,DI-n-PROPYL ETHER,294.1,didier14,1
CCCSCCC,DI-n-PROPYL SULFIDE,301.0,didier14,1
C=CC(C)C=C,"3-METHYL-1,4-PENTADIENE",235.0,didier14,1
CCCCCCCCN(CCCCCCCC)CCCCCCCC,TRI-n-OCTYLAMINE,457.0,didier14,1
CCCCCCCN,n-HEPTYLAMINE,308.1,didier14,1
CCCCCCCO,1-HEPTANOL,345.0,didier14,1
CCCCCCCCCCCC(=O)OC,METHYL DODECANOATE,391.0,didier14,1