compound,flashpoint,pure substance,smiles,source
"propan-2-yl (2E,4E)-11-methoxy-3,7,11-trimethyldodeca-2,4-dienoate",460.15,1,CC(C)OC(=O)C=C(C)C=CCC(C)CCCC(C)(C)OC,pubchem
magnesium,773.15,1,[Mg],pubchem
(E)-carbamoyliminourea,369.15,1,C(=O)(N)N=NC(=O)N,pubchem
(2-tert-butylphenyl) phenyl phosphate,519.15,1,CC(C)(C)C1=CC=CC=C1OP(=O)([O-])OC2=CC=CC=C2,pubchem
dimethoxy(oxo)phosphanium,302.15,1,CO[P+](=O)OC,pubchem
dibutoxy(oxo)phosphanium,322.15,1,CCCCO[P+](=O)OCCCC,pubchem
triphenyltin;hydrate,673.15,1,C1=CC=C(C=C1)[Sn](C2=CC=CC=C2)C3=CC=CC=C3.O,pubchem
λ1-boranyl-[[[[[[(λ1-boranyl-λ2-boranyl)-λ2-boranyl]-λ2-boranyl]-λ2-boranyl]-λ2-boranyl]-λ2-boranyl]-λ2-boranyl]boron,353.15,1,[B][B][B][B][B][B][B][B][B][B],pubchem
boranylidyneborane,183.15,1,B#B,pubchem
azaniumylsulfanylazanium,345.15,1,[NH3+]S[NH3+],pubchem
but-1-ene;(E)-but-2-ene,375.15,1,CCC=C.CC=CC,pubchem
"(E)-3-(5-methyl-2,4-dioxopyrimidin-1-yl)prop-2-enal",480.15,1,CC1=CN(C(=O)NC1=O)C=CC=O,pubchem
"1,2-xylene;1,3-xylene;1,4-xylene",298.15,1,CC1=CC=C(C=C1)C.CC1=CC(=CC=C1)C.CC1=CC=CC=C1C,pubchem
"2,2-diethylpropanedioate",358.15,1,CCC(CC)(C(=O)[O-])C(=O)[O-],pubchem
(2S)-2-[[4-[2-[4-[[(2S)-oxiran-2-yl]methoxy]phenyl]propan-2-yl]phenoxy]methyl]oxirane,352.15,1,CC(C)(C1=CC=C(C=C1)OCC2CO2)C3=CC=C(C=C3)OCC4CO4,pubchem
(NE)-N-(2-methyl-2-methylsulfanylpropylidene)hydroxylamine,391.15,1,CC(C)(C=NO)SC,pubchem
"tert-butyl 4-[[(E)-(1,3-dimethyl-5-phenoxypyrazol-4-yl)methylideneamino]oxymethyl]benzoate",358.15,1,CC1=NN(C(=C1C=NOCC2=CC=C(C=C2)C(=O)OC(C)(C)C)OC3=CC=CC=C3)C,pubchem
"(1R,4S,5'S,6R,6'R,8R,10E,13R,14E,16E,20R,21R,24S)-21,24-dihydroxy-5',6',11,13,22-pentamethylspiro[3,7,19-trioxatetracyclo[15.6.1.14,8.020,24]pentacosa-10,14,16,22-tetraene-6,2'-oxane]-2-one",316.15,1,CC1CCC2(CC3CC(O2)CC=C(CC(C=CC=C4COC5C4(C(C=C(C5O)C)C(=O)O3)O)C)C)OC1C,pubchem
[(S)-cyano-(3-phenoxyphenyl)methyl] (2S)-2-(4-chlorophenyl)-3-methylbutanoate,529.15,1,CC(C)C(C1=CC=C(C=C1)Cl)C(=O)OC(C#N)C2=CC(=CC=C2)OC3=CC=CC=C3,pubchem
"bis(7-methyloctyl) cyclohexane-1,2-dicarboxylate",497.15,1,CC(C)CCCCCCOC(=O)C1CCCCC1C(=O)OCCCCCCC(C)C,pubchem
"(2S)-2,6-diamino-N-[(2S)-1-phenylpropan-2-yl]hexanamide",260.15,1,CC(CC1=CC=CC=C1)NC(=O)C(CCCCN)N,pubchem
6-bromohexyl acetate,294.15,1,CC(=O)OCCCCCCBr,pubchem
"cyclopenta-1,3-diene;nickel",277.15,1,C1C=CC=C1.C1C=CC=C1.[Ni],pubchem
"but-1-ene-1,3-dione",306.15,1,CC(=O)C=C=O,pubchem
ethyl phosphate,389.15,1,CCOP(=O)([O-])[O-],pubchem
"2,3-bis[[(Z)-12-hydroxyoctadec-9-enoyl]oxy]propyl (Z)-12-hydroxyoctadec-9-enoate",502.15,1,CCCCCCC(CC=CCCCCCCCC(=O)OCC(COC(=O)CCCCCCCC=CCC(CCCCCC)O)OC(=O)CCCCCCCC=CCC(CCCCCC)O)O,pubchem
bis(2-ethylhexyl) phosphate,469.15,1,CCCCC(CC)COP(=O)([O-])OCC(CC)CCCC,pubchem
ethoxy-(4-nitrophenoxy)-phenyl-sulfanylidene-λ5-phosphane,303.15,1,CCOP(=S)(C1=CC=CC=C1)OC2=CC=C(C=C2)[N+](=O)[O-],pubchem
formaldehyde;isocyanatobenzene,491.15,1,C=O.C1=CC=C(C=C1)N=C=O,pubchem
1-ethenyl-2-methylbenzene;1-ethenyl-3-methylbenzene;1-ethenyl-4-methylbenzene,325.15,1,CC1=CC=C(C=C1)C=C.CC1=CC=CC(=C1)C=C.CC1=CC=CC=C1C=C,pubchem
acetyloxy(phenyl)mercury,333.15,1,CC(=O)O[Hg]C1=CC=CC=C1,pubchem
[dibutyl(dodecanoyloxy)stannyl] dodecanoate,508.15,1,CCCCCCCCCCCC(=O)O[Sn](CCCC)(CCCC)OC(=O)CCCCCCCCCCC,pubchem
[acetyloxy(dibutyl)stannyl] acetate,416.15,1,CCCC[Sn](CCCC)(OC(=O)C)OC(=O)C,pubchem
triethylalumane,220.15,1,CC[Al](CC)CC,pubchem
tris(2-methylpropyl)alumane,250.15,1,CC(C)C[Al](CC(C)C)CC(C)C,pubchem
"1,2-dichloropropane;(E)-1,3-dichloroprop-1-ene",290.15,1,CC(CCl)Cl.C(C=CCl)Cl,pubchem
2-[2-[2-(2-hydroxyethoxy)ethoxy]ethoxy]-1-methoxyethanol,434.15,1,COC(COCCOCCOCCO)O,pubchem
dimethyl phosphite,343.15,1,COP([O-])OC,pubchem
2-(2-methoxypropoxy)propyl acetate,359.15,1,CC(COC(C)COC(=O)C)OC,pubchem
3-methylhexanoate,305.15,1,CCCC(C)CC(=O)[O-],pubchem
zinc;bis(6-methylheptoxy)-sulfanylidene-sulfido-λ5-phosphane,433.15,1,CC(C)CCCCCOP(=S)(OCCCCCC(C)C)[S-].CC(C)CCCCCOP(=S)(OCCCCCC(C)C)[S-].[Zn+2],pubchem
zinc;octadecanoic acid,550.15,1,CCCCCCCCCCCCCCCCCC(=O)O.[Zn+2],pubchem
1-(3-methoxypropoxy)propan-1-ol,347.15,1,CCC(O)OCCCOC,pubchem
1-cyclohex-2-en-1-yl-4-cyclohex-3-en-1-ylbenzene,430.15,1,C1CC=CC(C1)C2=CC=C(C=C2)C3CCC=CC3,pubchem
aziridin-1-ium,262.15,1,C1C[NH2+]1,pubchem
potassium;methanolate,284.15,1,C[O-].[K+],pubchem
"(2R,3R,4R,5S,6R)-5-[(2R,3R,4R,5S,6R)-3,4-dihydroxy-6-(hydroxymethyl)-5-sulfanyloxan-2-yl]oxy-6-(hydroxymethyl)-2-methoxyoxane-3,4-diol",265.15,1,COC1C(C(C(C(O1)CO)OC2C(C(C(C(O2)CO)S)O)O)O)O,pubchem
butan-1-ol;titanium,350.15,1,CCCCO.[Ti],pubchem
"[2,3-dinitrooxy-6-(nitrooxymethyl)-5-[3,4,5-trinitrooxy-6-(nitrooxymethyl)oxan-2-yl]oxyoxan-4-yl] nitrate;2-(hydroxymethyl)-6-[4,5,6-trihydroxy-2-(hydroxymethyl)oxan-3-yl]oxyoxane-3,4,5-triol",228.15,1,C(C1C(C(C(C(O1)OC2C(OC(C(C2O)O)O)CO)O)O)O)O.C(C1C(C(C(C(O1)O[N+](=O)[O-])O[N+](=O)[O-])O[N+](=O)[O-])OC2C(C(C(C(O2)CO[N+](=O)[O-])O[N+](=O)[O-])O[N+](=O)[O-])O[N+](=O)[O-])O[N+](=O)[O-],pubchem
N-chloro-N-phenylnitramide,478.15,1,C1=CC=C(C=C1)N([N+](=O)[O-])Cl,pubchem
"[(2S,3R,4S,5R,6R)-2-[(2R,3R,4S,5R,6S)-4,5-dinitrooxy-2-(nitrooxymethyl)-6-[(2R,3R,4S,5R,6S)-4,5,6-trinitrooxy-2-(nitrooxymethyl)oxan-3-yl]oxyoxan-3-yl]oxy-3,5-dinitrooxy-6-(nitrooxymethyl)oxan-4-yl] nitrate",285.15,1,C(C1C(C(C(C(O1)OC2C(OC(C(C2O[N+](=O)[O-])O[N+](=O)[O-])O[N+](=O)[O-])CO[N+](=O)[O-])O[N+](=O)[O-])O[N+](=O)[O-])OC3C(C(C(C(O3)CO[N+](=O)[O-])O[N+](=O)[O-])O[N+](=O)[O-])O[N+](=O)[O-])O[N+](=O)[O-],pubchem
dichloro-chlorochloranuidyl-phenylsilane,397.15,1,C1=CC=C(C=C1)[Si](Cl)(Cl)[Cl-]Cl,pubchem
"InChI=1S/C9H12.H2O2/c1-8(2)9-6-4-3-5-7-9;1-2/h3-8H,1-2H3;1-2H/p-1",352.15,1,CC(C)C1=CC=CC=C1.O[O-],pubchem
3-[3-[4-(4-bromophenyl)phenyl]-3-hydroxy-1-phenylpropyl]-4-hydroxychromen-2-one,491.15,1,C1=CC=C(C=C1)C(CC(C2=CC=C(C=C2)C3=CC=C(C=C3)Br)O)C4=C(C5=CC=CC=C5OC4=O)O,pubchem
"2,3-dimethylaniline;2,4-dimethylaniline;2,5-dimethylaniline;2,6-dimethylaniline;3,4-dimethylaniline;3,5-dimethylaniline",370.15,1,CC1=CC(=C(C=C1)N)C.CC1=CC(=C(C=C1)C)N.CC1=C(C(=CC=C1)N)C.CC1=C(C(=CC=C1)C)N.CC1=C(C=C(C=C1)N)C.CC1=CC(=CC(=C1)N)C,pubchem
[4-(hydroxymethyl)cyclohexyl]methanol,439.15,1,C1CC(CCC1CO)CO.C1CC(CCC1CO)CO,pubchem
"2,3-bis[8-[3-[(3-pentyloxiran-2-yl)methyl]oxiran-2-yl]octanoyloxy]propyl 8-[3-[(3-pentyloxiran-2-yl)methyl]oxiran-2-yl]octanoate",580.15,1,CCCCCC1C(O1)CC2C(O2)CCCCCCCC(=O)OCC(COC(=O)CCCCCCCC3C(O3)CC4C(O4)CCCCC)OC(=O)CCCCCCCC5C(O5)CC6C(O6)CCCCC,pubchem
methoxy(dioxido)borane,266.15,1,B([O-])([O-])OC,pubchem
copper;3-(4-ethylcyclohexyl)propanoate;3-(3-ethylcyclopentyl)propanoate,311.15,1,CCC1CCC(CC1)CCC(=O)[O-].CCC1CCC(C1)CCC(=O)[O-].[Cu+2],pubchem
"1-hydroperoxy-3,5-di(propan-2-yl)benzene",352.15,1,CC(C)C1=CC(=CC(=C1)OO)C(C)C,pubchem
2-ethylsulfinyl-4-(3-prop-2-ynoxyphenyl)-6-(trifluoromethyl)pyrimidine,513.15,1,CCS(=O)C1=NC(=CC(=N1)C(F)(F)F)C2=CC(=CC=C2)OCC#C,pubchem
"(3,4,5-trihydroxybenzoyl)oxy 2-(2-ethylhexyl)-3,4,5-trihydroxybenzenecarboperoxoate",505.15,1,CCCCC(CC)CC1=C(C(=C(C=C1C(=O)OOOC(=O)C2=CC(=C(C(=C2)O)O)O)O)O)O,pubchem
"[(2R,3S,5R)-3-hydroxy-5-(6-oxo-1H-purin-9-yl)oxolan-2-yl]methyl phosphono hydrogen phosphate",502.15,1,C1C(C(OC1N2C=NC3=C2N=CNC3=O)COP(=O)(O)OP(=O)(O)O)O,pubchem
2-[(E)-N-[(E)-3-chloroprop-2-enoxy]-C-ethylcarbonimidoyl]-5-(2-ethylsulfanylpropyl)-3-hydroxycyclohex-2-en-1-one,345.15,1,CCC(=NOCC=CCl)C1=C(CC(CC1=O)CC(C)SCC)O,pubchem
"[[(2R,3S,5R)-3-hydroxy-5-(6-oxo-1H-purin-9-yl)oxolan-2-yl]methoxy-oxidophosphoryl] phosphate",502.15,1,C1C(C(OC1N2C=NC3=C2N=CNC3=O)COP(=O)([O-])OP(=O)([O-])[O-])O,pubchem
2-methylbutane,222.0,1,CC(C)CC,carroll11
2-methylpentane,241.0,1,CC(C)CCC,carroll11
2-methylheptane,277.0,1,CC(C)CCCCC,carroll11
2-methyloctane,297.0,1,CC(C)CCCCCC,carroll11
2-methylnonane,311.0,1,CC(C)CCCCCCC,carroll11
2-methyldecane,323.0,1,CC(C)CCCCCCCC,carroll11
2-methylundecane,334.0,1,CC(C)CCCCCCCCC,carroll11
2-methyldodecane,344.0,1,CC(C)CCCCCCCCCC,carroll11
"2,2-dimethylbutane",244.0,1,CC(C)(CC)C,carroll11
"2,2-dimethylpentane",250.0,1,CC(C)(CCC)C,carroll11
"2,2,3-trimethylbutane",249.0,1,CC(C)(C(C)C)C,carroll11
"3,3-dimethylpentane",254.0,1,CC(CC)(CC)C,carroll11
"1,1-dimethylcyclopentane",257.0,1,CC1(CCCC1)C,carroll11
"2,3-dimethylpentane",258.0,1,CC(C)C(CC)C,carroll11
3-methylpentane,241.0,1,CC(CC)CC,carroll11
3-methylhexane,258.0,1,CC(CC)CCC,carroll11
3-methylheptane,279.0,1,CC(CC)CCCC,carroll11
3-methyloctane,297.0,1,CC(CC)CCCCC,carroll11
3-methylnonane,314.0,1,CC(CC)CCCCCC,carroll11
3-ethylpentane,261.0,1,C(C)C(CC)CC,carroll11
"2,2,4-trimethylpentane",266.0,1,CC(C)(CC(C)C)C,carroll11
"cis-1,2-dimethylcyclopentane",269.0,1,C[C@H]1[C@H](CCC1)C,carroll11
ethylcyclopentane,269.0,1,C(C)C1CCCC1,carroll11
"2,2-dimethylhexane",270.0,1,CC(C)(CCCC)C,carroll11
"2,2,3,3-tetramethylbutane",273.0,1,CC(C)(C(C)(C)C)C,carroll11
"2,2,3-trimethylpentane",270.0,1,CC(C)(C(CC)C)C,carroll11
"3,3-dimethylhexane",272.0,1,CC(CC)(CCC)C,carroll11
"2,3,4-trimethylpentane",273.0,1,CC(C)C(C(C)C)C,carroll11
"2,3,3-trimethylpentane",278.0,1,CC(C)C(CC)(C)C,carroll11
3-ethyl-2-methylpentane,276.0,1,C(C)C(C(C)C)CC,carroll11
"2,3-dimethylhexane",278.0,1,CC(C)C(CCC)C,carroll11
"3,4-dimethylhexane",279.0,1,CC(CC)C(CC)C,carroll11
4-methylheptane,278.0,1,CC(CCC)CCC,carroll11
3-ethyl-3-methylpentane,276.0,1,C(C)C(CC)(CC)C,carroll11
3-ethylhexane,278.0,1,C(C)C(CC)CCC,carroll11
"trans-1,4-dimethylcyclohexane",279.0,1,C[C@@H]1CC[C@H](CC1)C,carroll11
"cis-1,3-dimethylcyclohexane",279.0,1,C[C@@H]1C[C@@H](CCC1)C,carroll11
"1,1-dimethylcyclohexane",280.0,1,CC1(CCCCC1)C,carroll11
"2,2,4,4-tetramethylpentane",279.0,1,CC(C)(CC(C)(C)C)C,carroll11
1-ethyl-1-methylcyclopentane,279.0,1,C(C)C1(CCCC1)C,carroll11
"2,2,5-trimethylhexane",286.0,1,CC(C)(CCC(C)C)C,carroll11
"trans-1,3-dimethylcyclohexane",281.0,1,C[C@@H]1C[C@H](CCC1)C,carroll11
"cis-1,4-dimethylcyclohexane",279.0,1,C[C@@H]1CC[C@@H](CC1)C,carroll11
isopropylcyclopentane,287.0,1,C(C)(C)C1CCCC1,carroll11
"2,2,4-trimethylhexane",286.0,1,CC(C)(CC(CC)C)C,carroll11
"cis-1,2-dimethylcyclohexane",285.0,1,C[C@H]1[C@H](CCCC1)C,carroll11
"2,4,4-trimethylhexane",288.0,1,CC(C)CC(CC)(C)C,carroll11
"2,3,5-trimethylhexane",288.0,1,CC(C)C(CC(C)C)C,carroll11
propylcyclopentane,289.0,1,C(CC)C1CCCC1,carroll11
ethylcyclohexane,291.0,1,C(C)C1CCCCC1,carroll11
"2,2,3,4-tetramethylpentane",284.0,1,CC(C)(C(C(C)C)C)C,carroll11
"2,4-dimethylheptane",288.0,1,CC(C)CC(CCC)C,carroll11
"2,2-dimethylheptane",297.0,1,CC(C)(CCCCC)C,carroll11
"3-ethyl-2,2-dimethylpentane",286.0,1,C(C)C(C(C)(C)C)CC,carroll11
"2,2,3-trimethylhexane",288.0,1,CC(C)(C(CCC)C)C,carroll11
"4,4-dimethylheptane",288.0,1,CC(CCC)(CCC)C,carroll11
"2,5-dimethylheptane",288.0,1,CC(C)CCC(CC)C,carroll11
"3,5-dimethylheptane",288.0,1,CC(CC)CC(CC)C,carroll11
"3-ethyl-2,4-dimethylpentane",288.0,1,C(C)C(C(C)C)C(C)C,carroll11
"2,2,5,5-tetramethylhexane",289.0,1,CC(C)(CCC(C)(C)C)C,carroll11
"2,3,3-trimethylhexane",288.0,1,CC(C)C(CCC)(C)C,carroll11
"2,3,4-trimethylhexane",288.0,1,CC(C)C(C(CC)C)C,carroll11
"2,3,3,4-tetramethylpentane",284.0,1,CC(C)C(C(C)C)(C)C,carroll11
"2,3-dimethylheptane",288.0,1,CC(C)C(CCCC)C,carroll11
"2,2,3,3-tetramethylpentane",289.0,1,CC(C)(C(CC)(C)C)C,carroll11
4-ethylheptane,288.0,1,C(C)C(CCC)CCC,carroll11
3-ethyl-4-methylhexane,288.0,1,C(C)C(CC)C(CC)C,carroll11
"3,4-dimethylheptane",288.0,1,CC(CC)C(CCC)C,carroll11
"3,3,4-trimethylhexane",288.0,1,CC(CC)(C(CC)C)C,carroll11
"3-ethyl-2,3-dimethylpentane",288.0,1,C(C)C(C(C)C)(CC)C,carroll11
4-methyloctane,295.0,1,CC(CCC)CCCC,carroll11
"3,3-diethylpentane",294.0,1,C(C)C(CC)(CC)CC,carroll11
"2,4,6-trimethylheptane",304.0,1,CC(C)CC(CC(C)C)C,carroll11
"2,2,4,4-tetramethylhexane",304.0,1,CC(C)(CC(CC)(C)C)C,carroll11
"2,2-dimethyloctane",304.0,1,CC(C)(CCCCCC)C,carroll11
"2,2,3,4-tetramethylhexane",304.0,1,CC(C)(C(C(CC)C)C)C,carroll11
isopropylcyclohexane,308.0,1,C(C)(C)C1CCCCC1,carroll11
"3,3,5-trimethylheptane",304.0,1,CC(CC)(CC(CC)C)C,carroll11
"2,3,4,5-tetramethylhexane",304.0,1,CC(C)C(C(C(C)C)C)C,carroll11
propylcyclohexane,304.0,1,C(CC)C1CCCCC1,carroll11
butylcyclopentane,305.0,1,C(CCC)C1CCCC1,carroll11
3-ethyl-5-methylheptane,304.0,1,C(C)C(CC)CC(CC)C,carroll11
"2,6-dimethyloctane",307.0,1,CC(C)CCCC(CC)C,carroll11
"3-ethyl-2,2-dimethylhexane",311.0,1,C(C)C(C(C)(C)C)CCC,carroll11
"3,5-dimethyloctane",314.0,1,CC(CC)CC(CCC)C,carroll11
"2,2,3,3-tetramethylhexane",304.0,1,CC(C)(C(CCC)(C)C)C,carroll11
"3,3-dimethyloctane",314.0,1,CC(CC)(CCCCC)C,carroll11
"2,3,4,4-tetramethylhexane",304.0,1,CC(C)C(C(CC)(C)C)C,carroll11
4-propylheptane,308.0,1,C(CC)C(CCC)CCC,carroll11
4-ethyloctane,314.0,1,C(C)C(CCC)CCCC,carroll11
"3,4,5-trimethylheptane",304.0,1,CC(CC)C(C(CC)C)C,carroll11
"2,3-dimethyloctane",309.0,1,CC(C)C(CCCCC)C,carroll11
3-ethyl-3-methylheptane,314.0,1,C(C)C(CC)(CCCC)C,carroll11
"2,3,3,4-tetramethylhexane",304.0,1,CC(C)C(C(CC)C)(C)C,carroll11
5-methylnonane,310.0,1,CC(CCCC)CCCC,carroll11
4-methylnonane,311.0,1,CC(CCC)CCCCC,carroll11
4-ethyl-3-methylheptane,314.0,1,C(C)C(C(CC)C)CCC,carroll11
"3-ethyl-2,3,4-trimethylpentane",304.0,1,C(C)C(C(C)C)(C(C)C)C,carroll11
"3,3,4,4-tetramethylhexane",304.0,1,CC(CC)(C(CC)(C)C)C,carroll11
tert-butylcyclohexane,313.0,1,C(C)(C)(C)C1CCCCC1,carroll11
butylcyclohexane,321.0,1,C(CCC)C1CCCCC1,carroll11
trans-decalin,326.0,1,C1CCC[C@@H]2CCCC[C@@H]12,carroll11
cis-decalin,330.0,1,C1CCC[C@@H]2CCCC[C@H]12,carroll11
pentylcyclohexane,336.0,1,C(CCCC)C1CCCCC1,carroll11
bicyclohexyl,365.0,1,C1(CCCCC1)C1CCCCC1,carroll11
"2,2,4,4,6,8,8-heptamethylnonane",368.0,1,CC(C)(CC(CC(CC(C)(C)C)C)(C)C)C,carroll11
1-pentene,222.0,1,C=CCCC,carroll11
1-hexene,247.0,1,C=CCCCC,carroll11
1-heptene,264.0,1,C=CCCCCC,carroll11
1-nonene,298.0,1,C=CCCCCCCC,carroll11
1-decene,311.0,1,C=CCCCCCCCC,carroll11
1-undecene,327.0,1,C=CCCCCCCCCC,carroll11
1-dodecene,346.0,1,C=CCCCCCCCCCC,carroll11
1-tridecene,365.0,1,C=CCCCCCCCCCCC,carroll11
1-tetradecene,370.0,1,C=CCCCCCCCCCCCC,carroll11
1-pentadecene,386.0,1,C=CCCCCCCCCCCCCC,carroll11
1-hexadecene,402.0,1,C=CCCCCCCCCCCCCCC,carroll11
1-heptadecene,414.0,1,C=CCCCCCCCCCCCCCCC,carroll11
1-octadecene,427.0,1,C=CCCCCCCCCCCCCCCCC,carroll11
cis-2-pentene,227.0,1,C\C=C/CC,carroll11
trans-2-pentene,228.0,1,C\C=C\CC,carroll11
cis-3-hexene,248.0,1,CC\C=C/CC,carroll11
trans-3-hexene,248.0,1,CC\C=C\CC,carroll11
trans-2-hexene,248.0,1,C\C=C\CCC,carroll11
cis-2-hexene,248.0,1,C\C=C/CCC,carroll11
cis-3-heptene,264.0,1,CC\C=C/CCC,carroll11
trans-3-heptene,266.0,1,CC\C=C\CCC,carroll11
trans-2-heptene,267.0,1,C\C=C\CCCC,carroll11
cis-2-heptene,267.0,1,C\C=C/CCCC,carroll11
trans-4-octene,281.0,1,CCC\C=C\CCC,carroll11
trans-3-octene,282.0,1,CC\C=C\CCCC,carroll11
cis-4-octene,290.0,1,CCC\C=C/CCC,carroll11
cis-3-octene,287.0,1,CC\C=C/CCCC,carroll11
trans-2-octene,287.0,1,C\C=C\CCCCC,carroll11
2-methyl-1-butene,226.0,1,CC(=C)CC,carroll11
2-methyl-2-butene,228.0,1,CC(C)=CC,carroll11
cyclopentene,243.0,1,C1=CCCC1,carroll11
4-methyl-1-pentene,241.0,1,CC(CC=C)C,carroll11
3-methyl-1-pentene,240.0,1,CC(C=C)CC,carroll11
cis-4-methyl-2-pentene,240.0,1,CC(\C=C/C)C,carroll11
trans-4-methyl-2-pentene,246.0,1,CC(/C=C/C)C,carroll11
2-methyl-1-pentene,246.0,1,CC(=C)CCC,carroll11
2-ethyl-1-butene,247.0,1,C(C)C(=C)CC,carroll11
"2,3-dimethyl-2-butene",253.0,1,CC(C)=C(C)C,carroll11
cyclohexene,256.0,1,C1=CCCCC1,carroll11
3-methyl-1-hexene,255.0,1,CC(C=C)CCC,carroll11
"2,3-dimethyl-1-pentene",256.0,1,CC(=C)C(CC)C,carroll11
3-ethyl-1-pentene,256.0,1,C(C)C(C=C)CC,carroll11
5-methyl-1-hexene,263.0,1,CC(CCC=C)C,carroll11
2-methyl-1-hexene,265.0,1,CC(=C)CCCC,carroll11
2-ethyl-1-pentene,263.0,1,C(C)C(=C)CCC,carroll11
3-ethyl-2-pentene,267.0,1,C(C)C(=CC)CC,carroll11
2-norbornene,259.0,1,C12C=CC(CC1)C2,carroll11
methylenecyclohexane,271.0,1,C=C1CCCCC1,carroll11
3-methylcyclohexene,270.0,1,CC1C=CCCC1,carroll11
3-ethyl-1-hexene,274.0,1,C(C)C(C=C)CCC,carroll11
4-methyl-1-heptene,275.0,1,CC(CC=C)CCC,carroll11
2-methyl-1-heptene,283.0,1,CC(=C)CCCCC,carroll11
2-methyl-2-heptene,282.0,1,CC(C)=CCCCC,carroll11
allylcyclopentane,285.0,1,C(C=C)C1CCCC1,carroll11
vinylcyclohexane,294.0,1,C(=C)C1CCCCC1,carroll11
7-methyl-1-octene,291.0,1,CC(CCCCC=C)C,carroll11
2-carene,311.0,1,C12C=C(CCC1C2(C)C)C,carroll11
isoprene,225.0,1,C=CC(C)=C,carroll11
"2,5-dimethyl-2,4-hexadiene",297.0,1,CC(C)=CC=C(C)C,carroll11
"1,3-cyclohexadiene",257.0,1,C1=CC=CCC1,carroll11
"1,4-cyclohexadiene",262.0,1,C1=CCC=CC1,carroll11
4-vinyl-1-cyclohexene,289.0,1,C(=C)C1CC=CCC1,carroll11
"1,5-cyclooctadiene",308.0,1,C1=CCCC=CCC1,carroll11
"2,5-norbornadiene",262.0,1,C12C=CC(C=C1)C2,carroll11
5-ethylidene-2-norbornene,302.0,1,C(C)=C1C2C=CC(C1)C2,carroll11
1-pentyne,239.0,1,C#CCCC,carroll11
1-hexyne,253.0,1,C#CCCCC,carroll11
1-heptyne,271.0,1,C#CCCCCC,carroll11
1-octyne,289.0,1,C#CCCCCCC,carroll11
1-nonyne,306.0,1,C#CCCCCCCC,carroll11
1-decyne,321.0,1,C#CCCCCCCCC,carroll11
1-undecyne,338.0,1,C#CCCCCCCCCC,carroll11
1-dodecyne,352.0,1,C#CCCCCCCCCCC,carroll11
1-tridecyne,366.0,1,C#CCCCCCCCCCCC,carroll11
2-pentyne,243.0,1,CC#CCC,carroll11
2-hexyne,263.0,1,CC#CCCC,carroll11
2-heptyne,281.0,1,CC#CCCCC,carroll11
2-octyne,297.0,1,CC#CCCCCC,carroll11
2-nonyne,312.0,1,CC#CCCCCCC,carroll11
2-decyne,326.0,1,CC#CCCCCCCC,carroll11
2-dodecyne,351.0,1,CC#CCCCCCCCCC,carroll11
3-hexyne,259.0,1,CCC#CCC,carroll11
3-heptyne,278.0,1,CCC#CCCC,carroll11
3-nonyne,311.0,1,CCC#CCCCCC,carroll11
4-nonyne,308.0,1,CCCC#CCCCC,carroll11
4-octyne,291.0,1,CCCC#CCCC,carroll11
3-decyne,325.0,1,CCC#CCCCCCC,carroll11
4-decyne,325.0,1,CCCC#CCCCCC,carroll11
4-undecyne,339.0,1,CCCC#CCCCCCC,carroll11
5-undecyne,339.0,1,CCCCC#CCCCCC,carroll11
"3,3-dimethyl-1-butyne",239.0,1,CC(C#C)(C)C,carroll11
4-methyl-1-pentyne,249.0,1,CC(CC#C)C,carroll11
"4,4-dimethyl-2-pentyne",263.0,1,CC(C#CC)(C)C,carroll11
5-methyl-1-hexyne,266.0,1,CC(CCC#C)C,carroll11
"1,6-heptadiyne",282.0,1,C#CCCCC#C,carroll11
"1,7-octadiyne",296.0,1,C#CCCCCC#C,carroll11
"1,8-nonadiyne",315.0,1,C#CCCCCCC#C,carroll11
ethylbenzene,294.0,1,C(C)C1=CC=CC=C1,carroll11
propylbenzene,303.0,1,C(CC)C1=CC=CC=C1,carroll11
butylbenzene,323.0,1,C(CCC)C1=CC=CC=C1,carroll11
pentylbenzene,339.0,1,C(CCCC)C1=CC=CC=C1,carroll11
hexylbenzene,356.0,1,C(CCCCC)C1=CC=CC=C1,carroll11
heptylbenzene,368.0,1,C(CCCCCC)C1=CC=CC=C1,carroll11
octylbenzene,380.0,1,C(CCCCCCC)C1=CC=CC=C1,carroll11
nonylbenzene,390.0,1,C(CCCCCCCC)C1=CC=CC=C1,carroll11
undecylbenzene,417.0,1,C(CCCCCCCCCC)C1=CC=CC=C1,carroll11
p-xylene,298.0,1,C1(=CC=C(C=C1)C)C,carroll11
m-xylene,298.0,1,C1(=CC(=CC=C1)C)C,carroll11
o-xylene,303.0,1,C=1(C(=CC=CC1)C)C,carroll11
cumene,304.0,1,C1(=CC=CC=C1)C(C)C,carroll11
p-ethyltoluene,309.0,1,C(C)C1=CC=C(C)C=C1,carroll11
m-ethyltoluene,311.0,1,C(C)C=1C=C(C)C=CC1,carroll11
o-ethyltoluene,312.0,1,C(C)C1=C(C)C=CC=C1,carroll11
"1,2,4-trimethylbenzene",319.0,1,CC1=C(C=C(C=C1)C)C,carroll11
tert-butylbenzene,317.0,1,C(C)(C)(C)C1=CC=CC=C1,carroll11
isobutylbenzene,323.0,1,C(C(C)C)C1=CC=CC=C1,carroll11
m-isopropyltoluene,320.0,1,C(C)(C)C=1C=C(C)C=CC1,carroll11
p-isopropyltoluene,320.0,1,C(C)(C)C1=CC=C(C)C=C1,carroll11
o-isopropyltoluene,323.0,1,C(C)(C)C1=C(C)C=CC=C1,carroll11
m-diethylbenzene,324.0,1,C(C)C1=CC(=CC=C1)CC,carroll11
m-propyltoluene,325.0,1,C(CC)C=1C=C(C)C=CC1,carroll11
p-diethylbenzene,328.0,1,C(C)C1=CC=C(C=C1)CC,carroll11
o-diethylbenzene,328.0,1,C(C)C1=C(C=CC=C1)CC,carroll11
neopentylbenzene,323.0,1,C(C(C)(C)C)C1=CC=CC=C1,carroll11
"2-ethyl-1,4-dimethylbenzene",329.0,1,C(C)C1=C(C=CC(=C1)C)C,carroll11
"1-ethyl-2,4-dimethylbenzene",330.0,1,C(C)C1=C(C=C(C=C1)C)C,carroll11
"4-ethyl-1,2-dimethylbenzene",331.0,1,C(C)C1=CC(=C(C=C1)C)C,carroll11
1-ethyl-3-isopropylbenzene,336.0,1,C(C)C1=CC(=CC=C1)C(C)C,carroll11
"1-ethyl-2,3-dimethylbenzene",338.0,1,C(C)C1=C(C(=CC=C1)C)C,carroll11
1-phenyl-2-methylbutane,337.0,1,C1(=CC=CC=C1)CC(CC)C,carroll11
isopentylbenzene,335.0,1,C(CC(C)C)C1=CC=CC=C1,carroll11
"1,2,3,5-tetramethylbenzene",336.0,1,CC1=C(C(=CC(=C1)C)C)C,carroll11
"1,3-diisopropylbenzene",349.0,1,C(C)(C)C1=CC(=CC=C1)C(C)C,carroll11
"1,2,3,4-tetramethylbenzene",341.0,1,CC1=C(C(=C(C=C1)C)C)C,carroll11
2-phenyl-2-methylbutane,332.0,1,C1(=CC=CC=C1)C(C)(CC)C,carroll11
"1,2-dimethyl-3-propylbenzene",345.0,1,CC1=C(C(=CC=C1)CCC)C,carroll11