compound,flashpoint,pure substance,smiles,source
"1,4-Benzenedicarboxylic acid, 2-amino-, dimethyl ester",445.75,1.0,COC(=O)c1ccc(C(=O)OC)c(N)c1,le15
"Formamide, N-9H-fluoren-2-yl- (9CI)",542.75,1.0,O=CNc1ccc2c(c1)Cc1ccccc1-2,le15
"Benzoxazole, 2-p-tolyl- (8CI)",398.55,1.0,Cc1ccc(-c2nc3ccccc3o2)cc1,le15
"Carbamic acid, methyl-, o-isopropoxyphenyl ester",405.65,1.0,CNC(=O)Oc1ccccc1OC(C)C,le15
"3,9-Acridinediamine (9CI)",557.45,1.0,Nc1ccc2c(N)c3ccccc3nc2c1,le15
"4(1H)-Pyrimidinone, 5-butyl-2-(dimethylamino)-6-methyl- (9CI)",406.05,1.0,CCCCc1c(C)[nH]c(N(C)C)nc1=O,le15
"Benzoyl chloride, 2,4-dichloro-",376.55,1.0,O=C(Cl)c1ccc(Cl)cc1Cl,le15
"3,4-dichlorobenzoyl chloride",415.15,1.0,O=C(Cl)c1ccc(Cl)c(Cl)c1,le15
"2,6-Dichlorobenzoyl chloride",380.55,1.0,O=C(Cl)c1c(Cl)cccc1Cl,le15
"Succinimide, N-(p-chlorophenyl)- (8CI)",499.25,1.0,O=C1CCC(=O)N1c1ccc(Cl)cc1,le15
"Propane, 1,3-dichloro-2,2-bis(chloromethyl)-",367.95,1.0,ClCC(CCl)(CCl)CCl,le15
"1,1,1-trifluoro-2-iodoethane",280.54999999999995,1.0,FC(F)(F)CI,le15
"(2,2,2-trifluoroacetyl) 2,2,2-trifluoroacetate",247.15,1.0,O=C(OC(=O)C(F)(F)F)C(F)(F)F,le15
2-iodothiophene,344.25,1.0,Ic1cccs1,le15
triethyl arsorite,322.5499999999999,1.0,CCO[As](OCC)OCC,le15
"benzene-1,2,4-tricarboxylic acid",546.764,1.0,O=C(O)c1ccc(C(=O)O)c(C(=O)O)c1,le15
"Acetamide, N-(2-methoxy-4-nitrophenyl)-",474.55,1.0,COc1cc([N+](=O)[O-])ccc1NC(C)=O,le15
"2-Furanacrylamide, N-ethyl-5-nitro-",482.05,1.0,CCNC(=O)C=Cc1ccc([N+](=O)[O-])o1,le15
"1H-Purine-2,6,8(3H)-trione, 7,9-dihydro-1,3,7-trimethyl-",515.25,1.0,Cn1c(=O)c2c([nH]c(=O)n2C)n(C)c1=O,le15
"Phosphoric acid, dibutyl ester",393.45,1.0,CCCCOP(=O)([O-])OCCCC,le15
"1,2-Ethanedione, 1,2-diphenyl-",415.75,1.0,O=C(C(=O)c1ccccc1)c1ccccc1,le15
"(1,1'-Biphenyl)-2,2'-dicarboxaldehyde (9CI)",424.25,1.0,O=Cc1ccccc1-c1ccccc1C=O,le15
"ethyl 3,4-dimethoxybenzoate",402.65,1.0,CCOC(=O)c1ccc(OC)c(OC)c1,le15
"Bicyclo(2.2.1)hept-5-ene-2,3-dicarboxylic acid, dimethyl ester (9CI)",402.55,1.0,COC(=O)C1C2C=CC(C2)C1C(=O)OC,le15
"2,3-Phenazinediamine (9CI)",555.8499999999998,1.0,Nc1cc2nc3ccccc3nc2cc1N,le15
"2,8-Diaminophenazine",576.25,1.0,Nc1ccc2nc3ccc(N)cc3nc2c1,le15
"2-Propanone, 1,3-diphenyl-",422.55,1.0,O=C(Cc1ccccc1)Cc1ccccc1,le15
"1,1-diphenylpropan-2-one",406.95,1.0,CC(=O)C(c1ccccc1)c1ccccc1,le15
"(3,4-dimethylphenyl)-phenylmethanone",426.85,1.0,Cc1ccc(C(=O)c2ccccc2)cc1C,le15
"2-phenyl-3,4-dihydro-2H-chromene",430.35,1.0,c1ccc(C2CCc3ccccc3O2)cc1,le15
"Benzenamine, 4,4'-(1,2-ethenediyl)bis- (9CI)",535.65,1.0,Nc1ccc(C=Cc2ccc(N)cc2)cc1,le15
"Benzene, 1,1'-ethylidenebis(4-methyl-",415.25,1.0,Cc1ccc(C(C)c2ccc(C)cc2)cc1,le15
"2,6-Octadien-1-ol, 3,7-dimethyl-, propanoate, (2Z)-",370.85,1.0,CCC(=O)OC/C=C(/C)CCC=C(C)C,le15
"1,6-Octadien-3-ol, 3,7-dimethyl-, propionate (7CI,8CI)",370.15,1.0,C=CC(C)(CCC=C(C)C)OC(=O)CC,le15
"2,6-Octadien-1-ol, 3,7-dimethyl-, propionate, (E)- (8CI)",386.15,1.0,CCC(=O)OC/C=C(\C)CCC=C(C)C,le15
"Cyclohexanamine, N-cyclohexyl-N-nitroso- (9CI)",440.45,1.0,O=NN(C1CCCCC1)C1CCCCC1,le15
4-(3-piperidin-4-ylpropyl)piperidine,405.25,1.0,C(CC1CCNCC1)CC1CCNCC1,le15
decylcyclopentane,388.55,1.0,CCCCCCCCCCC1CCCC1,le15
nonylcyclohexane,389.95,1.0,CCCCCCCCCC1CCCCC1,le15
"2-Propenoic acid, 3-(4-chlorophenyl)-, ethyl ester",425.05,1.0,CCOC(=O)C=Cc1ccc(Cl)cc1,le15
dichloro(iodo)methane,304.35,1.0,ClC(Cl)I,le15
dichlorophosphoryloxybenzene,372.25,1.0,O=P(Cl)(Cl)Oc1ccccc1,le15
"2-Propenal, 2-bromo-3-phenyl- (9CI)",383.35,1.0,O=CC(Br)=Cc1ccccc1,le15
"Benzenesulfonyl chloride, 4-chloro-",380.15,1.0,O=S(=O)(Cl)c1ccc(Cl)cc1,le15
"Benzenesulfonyl chloride, o-chloro- (6CI,7CI,8CI)",402.85,1.0,O=S(=O)(Cl)c1ccccc1Cl,le15
"Phthalic acid, 3-nitro- (8CI)",472.55,1.0,O=C(O)c1cccc([N+](=O)[O-])c1C(=O)O,le15
"Benzamide, 3,5-dinitro-",417.15,1.0,NC(=O)c1cc([N+](=O)[O-])cc([N+](=O)[O-])c1,le15
"Benzimidazole-5-carbonitrile, 2-(trifluoromethyl)-",439.65,1.0,N#Cc1ccc2nc(C(F)(F)F)[nH]c2c1,le15
"9-Thiabicyclo(3.3.1)nonane, 2,6-dichloro-",417.45,1.0,ClC1CCC2SC1CCC2Cl,le15
"9H-Fluorene, 3-nitro- (9CI)",463.75,1.0,O=[N+]([O-])c1ccc2c(c1)-c1ccccc1C2,le15
2-Amino-3-hydroxyphenazine,457.75,1.0,Nc1cc2nc3ccccc3nc2cc1O,le15
"Cytidine, 2',3'-dideoxy-",477.95,1.0,Nc1ccn([C@H]2CC[C@@H](CO)O2)c(=O)n1,le15
N-(2-phenylphenyl)acetamide,498.65,1.0,CC(=O)Nc1ccccc1-c1ccccc1,le15
"Benzeneacetamide, alpha-phenyl- (9CI)",463.45,1.0,NC(=O)C(c1ccccc1)c1ccccc1,le15
"Guanidine, N,N'-diphenyl-",431.65,1.0,N=C(Nc1ccccc1)Nc1ccccc1,le15
"1,3-Benzenediol, 5-(1-hydroxy-2-((1-methylethyl)amino)ethyl)- (9CI)",452.85,1.0,CC(C)NCC(O)c1cc(O)cc(O)c1,le15
"2-phenyl-1,3-benzothiazole",447.55,1.0,c1ccc(-c2nc3ccccc3s2)cc1,le15
"Cyclohexanamine, N-(2-ethylhexyl)- (9CI)",384.95,1.0,CCCCC(CC)CNC1CCCCC1,le15
"Benzene, 1,2,4-trichloro-3-methoxy-",373.55,1.0,COc1c(Cl)ccc(Cl)c1Cl,le15
"2,4,6-trichloro-3-methylphenol",388.35,1.0,Cc1c(Cl)cc(Cl)c(O)c1Cl,le15
"4H-1,3-Benzoxazin-4-one, 2-(2-chloroethyl)-2,3-dihydro-",498.95,1.0,O=C1NC(CCCl)Oc2ccccc21,le15
"Acetamide, N-(4-(chloroacetyl)phenyl)-",383.15,1.0,CC(=O)Nc1ccc(C(=O)CCl)cc1,le15
"Butanamide, N-(2-chlorophenyl)-3-oxo-",449.15,1.0,CC(=O)CC(=O)Nc1ccccc1Cl,le15
"Acetamide, 2-chloro-N-(1-methylethyl)-N-phenyl-",402.55,1.0,CC(C)N(C(=O)CCl)c1ccccc1,le15
trichloro(3-chloropropyl)silane,342.5499999999999,1.0,ClCCC[Si](Cl)(Cl)Cl,le15
"1-Propene, 1,3,3,3-tetrafluoro-1-methoxy-2-(trifluoromethyl)- (9CI)",287.75,1.0,COC(F)=C(C(F)(F)F)C(F)(F)F,le15
"2,3,4,5,6-pentafluorobenzoic acid",360.04999999999984,1.0,O=C(O)c1c(F)c(F)c(F)c(F)c1F,le15
"1-Naphthylamine, 5,8-dichloro-",448.35,1.0,Nc1cccc2c(Cl)ccc(Cl)c12,le15
"1,5-Pentanediol, 2,2,3,3,4,4-hexafluoro-",406.65,1.0,OCC(F)(F)C(F)(F)C(F)(F)CO,le15
"Benzoic acid, 3,5-dinitro-",452.35,1.0,O=C(O)c1cc([N+](=O)[O-])cc([N+](=O)[O-])c1,le15
"Benzoic acid, 3,4-dinitro-",481.55,1.0,O=C(O)c1ccc([N+](=O)[O-])c([N+](=O)[O-])c1,le15
"Benzoic acid, 2,4-dinitro-",460.45,1.0,O=C(O)c1ccc([N+](=O)[O-])cc1[N+](=O)[O-],le15
"9H-Carbazole, 3-nitro-",498.25,1.0,O=[N+]([O-])c1ccc2[nH]c3ccccc3c2c1,le15
"Benzoic acid, 3,4,5-trihydroxy-, propyl ester",454.45,1.0,CCCOC(=O)c1cc(O)c(O)c(O)c1,le15
"2,4,5-trimethoxybenzoic acid",407.15,1.0,COc1cc(OC)c(C(=O)O)cc1OC,le15
"Benzeneacetic acid, alpha-phenyl-",413.55,1.0,O=C(O)C(c1ccccc1)c1ccccc1,le15
"Methanone, (4-methoxyphenyl)phenyl-",428.85,1.0,COc1ccc(C(=O)c2ccccc2)cc1,le15
Benzyl 4-hydroxyphenyl ketone,445.35,1.0,O=C(Cc1ccccc1)c1ccc(O)cc1,le15
"(1,1'-Biphenyl)-4-acetic acid",559.75,1.0,O=C(O)Cc1ccc(-c2ccccc2)cc1,le15
"Benzoic acid, phenylmethyl ester",421.05,1.0,O=C(OCc1ccccc1)c1ccccc1,le15
"2,4,8,10-Tetraoxaspiro(5,5)undecane, 3,9-diethenyl- (9CI)",386.15,1.0,C=CC1OCC2(CO1)COC(C=C)OC2,le15
"Urea, N,N'-diphenyl-",364.25,1.0,O=C(Nc1ccccc1)Nc1ccccc1,le15
N'-phenylbenzohydrazide,394.15,1.0,O=C(NNc1ccccc1)c1ccccc1,le15
"Urea, N,N-diphenyl-",443.85,1.0,NC(=O)N(c1ccccc1)c1ccccc1,le15
(4-methoxyphenyl)-phenyldiazene,423.95,1.0,COc1ccc(N=Nc2ccccc2)cc1,le15
thioxanthen-9-one,476.95,1.0,O=c1c2ccccc2sc2ccccc12,le15
"1,3-Benzenediamine, 4-(phenylazo)-",487.95,1.0,Nc1ccc(N=Nc2ccccc2)c(N)c1,le15
"2,3-diphenylpropan-1-ol",407.55,1.0,OCC(Cc1ccccc1)c1ccccc1,le15
"Benzeneethanol, alpha-methyl-alpha-phenyl-",404.05,1.0,CC(O)(Cc1ccccc1)c1ccccc1,le15
"Hydrazine, 1,1-bis(phenylmethyl)- (9CI)",480.75,1.0,NN(Cc1ccccc1)Cc1ccccc1,le15
"1,8-dimethyldibenzothiophene",403.35,1.0,Cc1ccc2sc3cccc(C)c3c2c1,le15
"Phosphonodithioic acid, methyl-, S,S-dipropyl ester",402.95,1.0,CCCSP(C)(=O)SCCC,le15
"7-Octen-1-ol, 3,7-dimethyl-, propanoate",362.65,1.0,C=C(C)CCCC(C)CCOC(=O)CC,le15
"6-Octen-1-ol, 3,7-dimethyl-, propionate (7CI,8CI)",363.95,1.0,CCC(=O)OCCC(C)CCC=C(C)C,le15
"2-Propenoic acid, decyl ester",367.45,1.0,C=CC(=O)OCCCCCCCCCC,le15
"2-Propenoic acid, isodecyl ester",367.45,1.0,C=CC(=O)OCCCCCCCC(C)C,le15
Myristaldehyde (8CI),394.65,1.0,CCCCCCCCCCCCCC=O,le15
"Anthracene, 9-chloro-",452.35,1.0,Clc1c2ccccc2cc2ccccc12,le15
"Anthracene, 1-chloro- (8CI)(9CI)",452.35,1.0,Clc1cccc2cc3ccccc3cc12,le15
"1-Naphthol, 2,4-dichloro- (8CI)",407.15,1.0,Oc1c(Cl)cc(Cl)c2ccccc12,le15
Pentafluoronitrobenzene,363.75,1.0,O=[N+]([O-])c1c(F)c(F)c(F)c(F)c1F,le15
2-bromo-1-phenylpropan-1-one,348.75,1.0,CC(Br)C(=O)c1ccccc1,le15
"Benzene, 1,3,5-trinitro-",437.25,1.0,O=[N+]([O-])c1cc([N+](=O)[O-])cc([N+](=O)[O-])c1,le15
1-bromo-4-tert-butylbenzene,370.15,1.0,CC(C)(C)c1ccc(Br)cc1,le15
"Dibenzofuran, 3-nitro-",456.55,1.0,O=[N+]([O-])c1ccc2c(c1)oc1ccccc12,le15
"Benzamide, 2-hydroxy-N-phenyl-",404.95,1.0,O=C(Nc1ccccc1)c1ccccc1O,le15
"Phenol, 4-((4-aminophenyl)azo)-",467.05,1.0,Nc1ccc(N=Nc2ccc(O)cc2)cc1,le15
"2,6-Pyridinediamine, 3-(phenylazo)- (9CI)",494.45,1.0,Nc1ccc(N=Nc2ccccc2)c(N)n1,le15
"1,3,5-Triazine-2,4-diamine, N,N'-diethyl-6-(methylthio)- (9CI)",464.75,1.0,CCNc1nc(NCC)nc(SC)n1,le15
"1-Dodecanamine, N,N-dimethyl-",380.05,1.0,CCCCCCCCCCCCN(C)C,le15
Diheptylamine (8CI),381.05,1.0,CCCCCCCNCCCCCCC,le15
"Carbamic acid, (3-chlorophenyl)-, 1-methylethyl ester (9CI)",378.85,1.0,CC(C)OC(=O)Nc1cccc(Cl)c1,le15
"Carbamic acid, o-chloro-alpha-ethylbenzyl ester",440.15,1.0,CCC(OC(N)=O)c1ccccc1Cl,le15
"2-Butene, 1,4-dibromo-, trans-",345.04999999999984,1.0,BrC/C=C/CBr,le15
"2-Butene, 1,4-dibromo-",386.15,1.0,BrCC=CCBr,le15
"Acetic acid, iodo-, ethyl ester",350.15,1.0,CCOC(=O)CI,le15
"2,2,3,3,4,4,4-heptafluorobutanoic acid",291.15,1.0,O=C(O)C(F)(F)C(F)(F)C(F)(F)F,le15
2-Bromo-N-phenylacetamide,440.55,1.0,O=C(CBr)Nc1ccccc1,le15
"Isothiocyanic acid, p-bromophenyl ester",396.35,1.0,S=C=Nc1ccc(Br)cc1,le15
1-bromo-3-isothiocyanatobenzene,402.05,1.0,S=C=Nc1cccc(Br)c1,le15
"1,3-bis(trifluoromethyl)benzene",299.15,1.0,FC(F)(F)c1cccc(C(F)(F)F)c1,le15
"1,4-bis(trifluoromethyl)benzene",294.85,1.0,FC(F)(F)c1ccc(C(F)(F)F)cc1,le15
"1H-Benzimidazole, 5,6-dimethyl-2-(trifluoromethyl)- (9CI)",411.55,1.0,Cc1cc2nc(C(F)(F)F)[nH]c2cc1C,le15
"Carbonic acid, diphenyl ester",392.55,1.0,O=C(Oc1ccccc1)Oc1ccccc1,le15
"Benzoic acid, 2-hydroxy-, phenyl ester",410.45,1.0,O=C(Oc1ccccc1)c1ccccc1O,le15
"Methanone, (2,4-dihydroxyphenyl)phenyl-",398.15,1.0,O=C(c1ccccc1)c1ccc(O)cc1O,le15
"1,3-Benzenediol, monobenzoate",439.35,1.0,O=C(Oc1cccc(O)c1)c1ccccc1,le15
"2,2'-Dihydroxybenzophenone",439.95,1.0,O=C(c1ccccc1O)c1ccccc1O,le15
2-phenoxybenzoic acid,405.15,1.0,O=C(O)c1ccccc1Oc1ccccc1,le15
"Benzenamine, 4-nitro-N-phenyl-",458.35,1.0,O=[N+]([O-])c1ccc(Nc2ccccc2)cc1,le15
"4-Biphenylamine, 4'-nitro-",462.05,1.0,Nc1ccc(-c2ccc([N+](=O)[O-])cc2)cc1,le15
"Phosphine, ethyldiphenyl-",412.75,1.0,CCP(c1ccccc1)c1ccccc1,le15
"Sulfanilamide, N1-amidino- (8CI)",522.3499999999998,1.0,N=C(N)NS(=O)(=O)c1ccc(N)cc1,le15
1-methoxy-3-(3-methoxyphenyl)benzene,402.95,1.0,COc1cccc(-c2cccc(OC)c2)c1,le15
"Benzenemethanol, alpha-((2-pyridinylamino)methyl)- (9CI)",458.65,1.0,OC(CNc1ccccn1)c1ccccc1,le15
"1,1,2,3,3-pentachloroprop-1-ene",345.85,1.0,ClC(Cl)=C(Cl)C(Cl)Cl,le15
"diethyl cyclopentane-1,1-dicarboxylate",383.55,1.0,CCOC(=O)C1(C(=O)OCC)CCCC1,le15
Isopropyl toluene-4-sulphonate,416.85,1.0,Cc1ccc(S(=O)(=O)OC(C)C)cc1,le15
"Phosphorodithioic acid, O,O,S-triethyl ester",374.65,1.0,CCOP(=S)(OCC)SCC,le15
methyl dodecanoate,367.15,1.0,CCCCCCCCCCCC(=O)OC,le15
"Phosphorotrithious acid, triethyl ester",399.65,1.0,CCSP(SCC)SCC,le15
"Octanoic acid, 3-methylbutyl ester",377.85,1.0,CCCCCCCC(=O)OCCC(C)C,le15
octyl pentanoate,382.75,1.0,CCCCCCCCOC(=O)CCCC,le15
tetradecan-2-ol,379.15,1.0,CCCCCCCCCCCCC(C)O,le15
"Propanoic acid, 2-(4-chlorophenoxy)-2-methyl-",422.95,1.0,CC(C)(Oc1ccc(Cl)cc1)C(=O)O,le15
"Toluene, 2,5-dichloro-alpha,alpha,alpha-trifluoro- (6CI,7CI,8CI)",343.85,1.0,FC(F)(F)c1cc(Cl)ccc1Cl,le15
"Toluene, 2,4-dichloro-alpha,alpha,alpha-trifluoro- (8CI)",345.15,1.0,FC(F)(F)c1ccc(Cl)cc1Cl,le15
"Toluene, 3,4-dichloro-alpha,alpha,alpha-trifluoro- (6CI,8CI)",338.75,1.0,FC(F)(F)c1ccc(Cl)c(Cl)c1,le15
2-Bromo-1-(4-hydroxyphenyl)ethan-1-one,431.75,1.0,O=C(CBr)c1ccc(O)cc1,le15
methyl 2-bromobenzoate,372.75,1.0,COC(=O)c1ccccc1Br,le15
(4-bromophenyl)urea,402.85,1.0,NC(=O)Nc1ccc(Br)cc1,le15
"Furo(2,3-b)quinolin-8-ol, 4-methoxy-",476.05,1.0,COc1c2ccoc2nc2c(O)cccc12,le15
"1,2-Benzenediamine, 4-(4-aminophenoxy)- (9CI)",519.65,1.0,Nc1ccc(Oc2ccc(N)c(N)c2)cc1,le15
"Butanoic acid, 4-(diethylamino)-4-oxo-, propyl ester (9CI)",415.95,1.0,CCCOC(=O)CCC(=O)N(CC)CC,le15
"Bicyclo(2.2.1)heptan-2-amine, N-ethyl-3-phenyl-",426.05,1.0,CCNC1C2CCC(C2)C1c1ccccc1,le15
"2-Propanone, 1,1,3-trichloro-1,3,3-trifluoro-",295.25,1.0,O=C(C(F)(F)Cl)C(F)(Cl)Cl,le15
"Cyclohexanecarbamic acid, N-ethylthio-, S-ethyl ester",410.25,1.0,CCSC(=O)N(CC)C1CCCCC1,le15
"Benzoic acid, 2-chloro-5-nitro-, methyl ester",418.45,1.0,COC(=O)c1cc([N+](=O)[O-])ccc1Cl,le15
"Ethanol, 2,2'-((m-chlorophenyl)imino)di- (8CI)",467.35,1.0,OCCN(CCO)c1cccc(Cl)c1,le15
"1,3,5-Triazine-2,4-diamine, 6-chloro-N-ethyl-N'-(1-methylethyl)-",449.85,1.0,CCNc1nc(Cl)nc(NC(C)C)n1,le15
"Propanal, 2,3-dibromo- (9CI)",361.15,1.0,O=CC(Br)CBr,le15
"Benzene, 1,2,4,5-tetrachloro-",381.35,1.0,Clc1cc(Cl)c(Cl)cc1Cl,le15
"Benzene, 1,2,3,4-tetrachloro-",385.05,1.0,Clc1ccc(Cl)c(Cl)c1Cl,le15
"Benzene, 1,2,3,5-tetrachloro-",383.15,1.0,Clc1cc(Cl)c(Cl)c(Cl)c1,le15
"Butane, 1,4-dibromo-",338.35,1.0,BrCCCCBr,le15
"1,2-dibromobutane",317.15,1.0,CCC(Br)CBr,le15
"Propane, 1,2-dibromo-2-methyl-",299.35,1.0,CC(C)(Br)CBr,le15
"2,3-dibromobutane",306.15,1.0,CC(Br)C(C)Br,le15
"1,3-dibromobutane",321.95,1.0,CC(Br)CCBr,le15
"Benzene, 1-(bromomethyl)-4-nitro-",410.95,1.0,O=[N+]([O-])c1ccc(CBr)cc1,le15
"Benzene, 1-(bromomethyl)-3-nitro-",408.95,1.0,O=[N+]([O-])c1cccc(CBr)c1,le15
alpha-Bromo-2-nitrotoluene,393.35,1.0,O=[N+]([O-])c1ccccc1CBr,le15
2-Bromo-5-nitrotoluene,395.05,1.0,Cc1cc([N+](=O)[O-])ccc1Br,le15
1-bromo-3-methyl-5-nitrobenzene,393.15,1.0,Cc1cc(Br)cc([N+](=O)[O-])c1,le15
"7H-Furo(3,2-g)(1)benzopyran-7-one, 9-methoxy-",477.81099999999986,1.0,COc1c2occc2cc2ccc(=O)oc12,le15
"7H-Furo(3,2-g)(1)benzopyran-7-one, 4-methoxy-",476.35,1.0,COc1c2ccoc2cc2oc(=O)ccc12,le15
"2,6-Naphthalenedicarboxylic acid",505.55,1.0,O=C(O)c1ccc2cc(C(=O)O)ccc2c1,le15
"Acetic acid, naphthyloxy-, methyl ester",413.85,1.0,COC(=O)COc1cccc2ccccc12,le15
"Propanedioic acid, (ethoxymethylene)-, diethyl ester",380.75,1.0,CCOC=C(C(=O)OCC)C(=O)OCC,le15
diethyl 2-acetylbutanedioate,399.25,1.0,CCOC(=O)CC(C(C)=O)C(=O)OCC,le15
"(1,1'-Biphenyl)-3,3'-diol, 4,4'-diamino-",493.45,1.0,Nc1ccc(-c2ccc(N)c(O)c2)cc1O,le15
"Pyrene, 1-methyl-",452.05,1.0,Cc1ccc2ccc3cccc4ccc1c2c34,le15
"Phosphorothioic acid, O,O-dimethyl S-(2-(methylthio)ethyl) ester",390.45,1.0,COP(=O)(OC)SCCSC,le15
11H-benzo[a]fluorene,458.55,1.0,c1ccc2c(c1)Cc1c-2ccc2ccccc12,le15
"diethyl 2,2-diethylpropanedioate",367.55,1.0,CCOC(=O)C(CC)(CC)C(=O)OCC,le15
"Propanedioic acid, butyl-, diethyl ester",366.15,1.0,CCCCC(C(=O)OCC)C(=O)OCC,le15
dibutyl propanedioate,390.55,1.0,CCCCOC(=O)CC(=O)OCCCC,le15
"Heptanedioic acid, diethyl ester",390.55,1.0,CCOC(=O)CCCCCC(=O)OCC,le15
"1,1,2,3,3-pentachloropropane",353.04999999999984,1.0,ClC(Cl)C(Cl)C(Cl)Cl,le15
"Quinazoline, 4-((2-(dimethylamino)ethyl)amino)-",452.85,1.0,CN(C)CCNc1ncnc2ccccc12,le15
thianthrene,443.95,1.0,c1ccc2c(c1)Sc1ccccc1S2,le15
"Octanal, 2-(phenylmethylene)-",413.65,1.0,CCCCCCC(C=O)=Cc1ccccc1,le15
tridecane-1-thiol,385.55,1.0,CCCCCCCCCCCCCS,le15
"Acetic acid, (4-chloro-2-hydroxymethylphenoxy)-",463.65,1.0,O=C(O)COc1ccc(Cl)cc1CO,le15
3-Chlorobenzophenone,451.45,1.0,O=C(c1ccccc1)c1cccc(Cl)c1,le15
"Benzophenone, 4-chloro- (8CI)",449.25,1.0,O=C(c1ccccc1)c1ccc(Cl)cc1,le15
"Urea, 3-(chloro-2-norbornyl)-1,1-dimethyl-",468.05,1.0,CN(C)C(=O)NC1CC2CCC1(Cl)C2,le15
"Urea, N'-(chlorobicyclo(2.2.1)hept-2-yl)-N,N-dimethyl-",468.05,1.0,CN(C)C(=O)NC1CC2CCC1(Cl)C2,le15
"2,3,5,6-tetrachloropyridine",461.15,1.0,Clc1cc(Cl)c(Cl)nc1Cl,le15
"5,6-dichloro-2-benzofuran-1,3-dione",417.95,1.0,O=C1OC(=O)c2cc(Cl)c(Cl)cc21,le15
"Arsonic acid, (4-aminophenyl)-",546.55,1.0,Nc1ccc([As](=O)(O)O)cc1,le15
"4-bromo-1,2-dimethoxybenzene",382.15,1.0,COc1ccc(Br)cc1OC,le15
"Propanedioic acid, (acetylamino)-, diethyl ester",418.35,1.0,CCOC(=O)C(NC(C)=O)C(=O)OCC,le15
"Acetamide, 2-fluoro-N-methyl-N-1-naphthalenyl- (9CI)",436.65,1.0,CN(C(=O)CF)c1cccc2ccccc12,le15
Pyren-1-ylamine,519.3499999999998,1.0,Nc1ccc2ccc3cccc4ccc1c2c34,le15
2-Aminopyrene,523.75,1.0,Nc1cc2ccc3cccc4ccc(c1)c2c34,le15
Fluoranthen-3-ylamine,519.3499999999998,1.0,Nc1ccc2c3c(cccc13)-c1ccccc1-2,le15
8-Aminofluoranthene,523.75,1.0,Nc1ccc2c(c1)-c1cccc3cccc-2c13,le15
"2,6-Piperidinedione, 3-ethyl-3-phenyl-",434.95,1.0,CCC1(c2ccccc2)CCC(=O)NC1=O,le15
"Quinoline, 6-ethoxy-1,2-dihydro-2,2,4-trimethyl-",410.95,1.0,CCOc1ccc2c(c1)C(C)=CC(C)(C)N2,le15
"Propionitrile, 3-(triethoxysilyl)- (8CI)",378.45,1.0,CCO[Si](CCC#N)(OCC)OCC,le15
"Pyrrolidine, 1-(1-(phenylmethyl)butyl)- (9CI)",396.45,1.0,CCCC(Cc1ccccc1)N1CCCC1,le15
"Carbamothioic acid, bis(2-methylpropyl)-, S-ethyl ester",396.45,1.0,CCSC(=O)N(CC(C)C)CC(C)C,le15
"Benzenamine, 2-chloro-4,6-dinitro-",454.55,1.0,Nc1c(Cl)cc([N+](=O)[O-])cc1[N+](=O)[O-],le15
"Aniline, 4-chloro-2,6-dinitro- (8CI)",444.65,1.0,Nc1c([N+](=O)[O-])cc(Cl)cc1[N+](=O)[O-],le15
trichloromethanesulfonyl chloride,336.85,1.0,O=S(=O)(Cl)C(Cl)(Cl)Cl,le15
1-iodo-4-methylbenzene,359.45,1.0,Cc1ccc(I)cc1,le15
1iodo3methylbenzene,355.0,1.0,Cc1cccc(I)c1,le15
"Propanamide, N-(3,4-dichlorophenyl)-",450.65,1.0,CCC(=O)Nc1ccc(Cl)c(Cl)c1,le15
"1,2,4,5-Benzenetetracarboxylic 1,2:4,5-dianhydride (8CI)",456.65,1.0,O=c1oc(=O)c2cc3c(=O)oc(=O)c3cc12,le15
"Benzenamine, N,N-bis(2-chloroethyl)- (9CI)",410.85,1.0,ClCCN(CCCl)c1ccccc1,le15
"Phosphoric acid, triallyl ester (8CI)",393.25,1.0,C=CCOP(=O)(OCC=C)OCC=C,le15
Ethyl .alpha.-acetylcinnamate,385.05,1.0,CCOC(=O)C(=Cc1ccccc1)C(C)=O,le15
"4,6(1H,5H)-Pyrimidinedione, 5-ethyldihydro-5-phenyl-",501.35,1.0,CCC1(c2ccccc2)C(=O)NCNC1=O,le15
"1,3-Propanediol, 2-methyl-2-propyl-, dicarbamate",502.85,1.0,CCCC(C)(COC(N)=O)COC(N)=O,le15
benzenesulfonylbenzene,499.95,1.0,O=S(=O)(c1ccccc1)c1ccccc1,le15
"Phenol, 4,4'-thiobis-",492.85,1.0,Oc1ccc(Sc2ccc(O)cc2)cc1,le15
"Phosphonodithioic acid, methyl-, O-methyl S-phenyl ester",403.35,1.0,COP(C)(=S)Sc1ccccc1,le15
"Butanoic acid, 3-methyl-, 3-phenyl-2-propenyl ester",401.45,1.0,CC(C)CC(=O)OCC=Cc1ccccc1,le15
trichloro(dichloromethyl)silane,353.04999999999984,1.0,ClC(Cl)[Si](Cl)(Cl)Cl,le15
Diphenyl disulphide,450.95,1.0,c1ccc(SSc2ccccc2)cc1,le15
"Butane, 1,1'-(oxybis(2,1-ethanediyloxy))bis-",390.35,1.0,CCCCOCCOCCOCCCC,le15
"Benzhydrol, 4-chloro- (8CI)",439.95,1.0,OC(c1ccccc1)c1ccc(Cl)cc1,le15
"Phenol, 4-chloro-2-(phenylmethyl)-",432.35,1.0,Oc1ccc(Cl)cc1Cc1ccccc1,le15
"Methane, dibromonitro-",319.25,1.0,O=[N+]([O-])C(Br)Br,le15
"1,3-Dichloro-2,4,5,6-tetrafluorobenzene",437.15,1.0,Fc1c(F)c(Cl)c(F)c(Cl)c1F,le15
"Benzenamine, 4-iodo-",389.45,1.0,Nc1ccc(I)cc1,le15
"Benzenamine, 2-iodo-",385.45,1.0,Nc1ccccc1I,le15
"Urea, 1-(3,4-dichlorophenyl)-3-methyl- (6CI,7CI,8CI)",405.55,1.0,CNC(=O)Nc1ccc(Cl)c(Cl)c1,le15
"Pyrimidine, 4,6-dimethyl-2-(5-nitro-2-furyl)-",388.85,1.0,Cc1cc(C)nc(-c2ccc([N+](=O)[O-])o2)n1,le15
"beta-Alanine, N-(2,4-dihydroxy-3,3-dimethyl-1-oxobutyl)-, (R)- (9CI)",560.45,1.0,CC(C)(CO)[C@@H](O)C(=O)NCCC(=O)O,le15
"1-Naphthalenamine, N-phenyl-",463.35,1.0,c1ccc(Nc2cccc3ccccc23)cc1,le15
"2-Naphthalenamine, N-phenyl-",482.35,1.0,c1ccc(Nc2ccc3ccccc3c2)cc1,le15
"Carbamic acid, cyclopropyl(phenylmethyl)-, ethyl ester",422.95,1.0,CCOC(=O)N(Cc1ccccc1)C1CC1,le15
"Benzoic acid, 2-amino-, cyclohexyl ester",465.45,1.0,Nc1ccccc1C(=O)OC1CCCCC1,le15
"2,2',2''-(Hexahydro-1,3,5-triazine-1,3,5-triyl)triethanol",493.25,1.0,OCCN1CN(CCO)CN(CCO)C1,le15
2-bromobenzoyl chloride,380.15,1.0,O=C(Cl)c1ccccc1Br,le15
4-bromobenzoyl chloride,376.15,1.0,O=C(Cl)c1ccc(Br)cc1,le15
"butyl 2,2,2-trichloroacetate",346.04999999999984,1.0,CCCCOC(=O)C(Cl)(Cl)Cl,le15
"Cyclotrisilazane, 2,2,4,4,6,6-hexamethyl-",332.15,1.0,C[Si]1(C)N[Si](C)(C)N[Si](C)(C)N1,le15
trichloro(hexyl)silane,353.45,1.0,CCCCCC[Si](Cl)(Cl)Cl,le15
"Benzenamine, 4-(4-chlorophenoxy)-",438.45,1.0,Nc1ccc(Oc2ccc(Cl)cc2)cc1,le15
"Phenol, 4-iodo-",385.55,1.0,Oc1ccc(I)cc1,le15
"Carbanilic acid, 3,4-dichloro-, methyl ester",379.55,1.0,COC(=O)Nc1ccc(Cl)c(Cl)c1,le15
"Acetamide, 2-(2,4-dichlorophenoxy)-",470.05,1.0,NC(=O)COc1ccc(Cl)cc1Cl,le15