,compound,flashpoint,pure substance,smiles,source
12136,"N,N-DIETHYLMETHYLAMINE",250.0,1,CCN(C)CC,didier14
12137,3-ETHYLPENTANE,261.0,1,CCC(CC)CC,didier14
12138,2-PHENYL-2-PROPANOL,360.1,1,CC(C)(O)c1ccccc1,didier14
12139,"1,2,3-TRIMETHYL-4-ETHYLBENZENE",346.0,1,CCc1ccc(C)c(C)c1C,didier14
12140,"1,2,4-TRIMETHYL-3-ETHYLBENZENE",346.0,1,CCc1c(C)ccc(C)c1C,didier14
12141,m-ETHYLPHENOL,367.1,1,CCc1cccc(O)c1,didier14
12142,m-TOLUALDEHYDE,351.1,1,Cc1cccc(C=O)c1,didier14
12143,TRIAMYLAMINE,376.0,1,CCCCCN(CCCCC)CCCCC,didier14
12144,p-METHYLSTYRENE,319.0,1,C=Cc1ccc(C)cc1,didier14
12145,2-METHYL-2-PENTENAL,304.1,1,CCC=C(C)C=O,didier14
12146,2-METHYL-1-HEXANOL,333.0,1,CCCCC(C)CO,didier14
12147,ETHYL ISOAMYL KETONE,318.0,1,CCC(=O)CCC(C)C,didier14
12148,trans-2-BUTENE,201.0,1,C/C=C/C,didier14
12149,DIMETHYL DISULFIDE,280.0,1,CSSC,didier14
12150,2-METHYL-2-PENTENE,246.0,1,CCC=C(C)C,didier14
12151,METHYL ISOBUTYL ETHER,243.0,1,COCC(C)C,didier14
12152,ETHYL ISOPROPYL ETHER,228.0,1,CCOC(C)C,didier14
12153,ETHYL ISOBUTYL ETHER,259.0,1,CCOCC(C)C,didier14
12154,cis-2-PENTENE,226.0,1,C/C=C\CC,didier14
12155,"2,5-DIMETHYL-1,5-HEXADIENE",280.0,1,C=C(C)CCC(=C)C,didier14
12156,5-METHYL-1-HEXANOL,340.0,1,CC(C)CCCCO,didier14
12157,METHYL n-BUTYL ETHER,263.1,1,CCCCOC,didier14
12158,DIISOBUTYL ETHER,281.1,1,CC(C)COCC(C)C,didier14
12159,METHYL n-PENTYL ETHER,271.0,1,CCCCCOC,didier14
12160,n-BUTYL ETHYL ETHER,277.1,1,CCCCOCC,didier14
12161,2-NONANOL,355.4,1,CCCCCCCC(C)O,didier14
12162,DI-n-PROPYL DISULFIDE,339.1,1,CCCSSCCC,didier14
12163,n-HEXYL FORMATE,317.0,1,CCCCCCOC=O,didier14
12164,n-PENTADECANE,387.0,1,CCCCCCCCCCCCCCC,didier14
12165,1-PENTADECANOL,424.0,1,CCCCCCCCCCCCCCCO,didier14
12166,DI-n-OCTYL ETHER,385.1,1,CCCCCCCCOCCCCCCCC,didier14
12167,n-HENEICOSANE,450.0,1,CCCCCCCCCCCCCCCCCCCCC,didier14
12168,1-EICOSANOL,467.0,1,CCCCCCCCCCCCCCCCCCCCO,didier14
12169,n-DOCOSANE,458.0,1,CCCCCCCCCCCCCCCCCCCCCC,didier14
12170,n-PENTACOSANE,475.0,1,CCCCCCCCCCCCCCCCCCCCCCCCC,didier14
12171,n-HEXACOSANE,475.0,1,CCCCCCCCCCCCCCCCCCCCCCCCCC,didier14
12172,TETRAPHENYLMETHANE,525.0,1,c1ccc(C(c2ccccc2)(c2ccccc2)c2ccccc2)cc1,didier14
12173,"1,1,2,2-TETRAPHENYLETHANE",448.0,1,c1ccc(C(c2ccccc2)C(c2ccccc2)c2ccccc2)cc1,didier14
12174,TETRAPHENYLETHYLENE,538.0,1,c1ccc(C(=C(c2ccccc2)c2ccccc2)c2ccccc2)cc1,didier14
12175,4-ISOBUTYLSTYRENE,373.0,1,C=Cc1ccc(CC(C)C)cc1,didier14
12176,tert-BUTYL ETHYL ETHER,254.0,1,CCOC(C)(C)C,didier14
12177,n-PENTYL FORMATE,300.0,1,CCCCCOC=O,didier14
12178,n-TRIDECANOIC ACID,438.0,1,CCCCCCCCCCCCC(=O)O,didier14
12179,n-TRICOSANE,467.0,1,CCCCCCCCCCCCCCCCCCCCCCC,didier14
12180,FORMIC ACID,321.1,1,O=CO,didier14
12181,n-PROPYL ISOBUTYRATE,302.0,1,CCCOC(=O)C(C)C,didier14
12182,cis-STILBENE,394.0,1,C(=C\c1ccccc1)\c1ccccc1,didier14
12183,2-ETHYL-2-HEXENAL,341.1,1,CCCC=C(C=O)CC,didier14
12184,n-NONADECANOIC ACID,483.0,1,CCCCCCCCCCCCCCCCCCC(=O)O,didier14
12185,n-TETRACOSANE,475.0,1,CCCCCCCCCCCCCCCCCCCCCCCC,didier14
12186,ISOPENTYL ISOVALERATE,345.0,1,CC(C)CCOC(=O)CC(C)C,didier14
12187,sec-BUTENYL ACETATE,288.0,1,C=C(CC)OC(C)=O,didier14
12188,n-UNDECYLBENZENE,417.0,1,CCCCCCCCCCCc1ccccc1,didier14
12189,4-METHYL-trans-2-PENTENE,239.0,1,C/C=C/C(C)C,didier14
12190,ACETONE,255.0,1,CC(C)=O,didier14
12191,1-HEPTADECENE,408.0,1,C=CCCCCCCCCCCCCCCC,didier14
12192,METHYL sec-BUTYL ETHER,244.0,1,CCC(C)OC,didier14
12193,DI-sec-BUTYL ETHER,288.0,1,CCC(C)OC(C)CC,didier14
12194,ISOPROPYL ACRYLATE,281.0,1,C=CC(=O)OC(C)C,didier14
12195,4-METHYL-1-PENTENE,234.0,1,C=CCC(C)C,didier14
12196,4-METHYL-cis-2-PENTENE,237.0,1,C/C=C\C(C)C,didier14
12197,VINYL FORMATE,254.0,1,C=COC=O,didier14
12198,DI-n-PENTYL ETHER,330.1,1,CCCCCOCCCCC,didier14
12199,1-PHENYL-2-PROPANOL,358.1,1,CC(O)Cc1ccccc1,didier14
12200,PENTAMETHYLBENZENE,364.1,1,Cc1cc(C)c(C)c(C)c1C,didier14
12201,"2,3-DIMETHYLOCTANE",309.0,1,CCCCCC(C)C(C)C,didier14
12202,trans-2-DODECENE,351.0,1,C/C=C/CCCCCCCCC,didier14
12203,cis-2-DODECENE,351.0,1,C/C=C\CCCCCCCCC,didier14
12204,UNDECYLAMINE,365.1,1,CCCCCCCCCCCN,didier14
12205,p-tert-BUTYL ETHYLBENZENE,343.0,1,CCc1ccc(C(C)(C)C)cc1,didier14
12206,1-(4-ETHYLPHENYL)-2-PHENYLETHANE,404.0,1,CCc1ccc(CCc2ccccc2)cc1,didier14
12207,trans-2-PENTADECENE,396.0,1,C/C=C/CCCCCCCCCCCC,didier14
12208,METHYL CHLORIDE,205.0,1,CCl,didier14
12209,METHYL MERCAPTAN,217.0,1,CS,didier14
12210,ETHYL CHLORIDE,223.2,1,CCCl,didier14
12211,VINYL CHLORIDE,195.0,1,C=CCl,didier14
12212,ETHYLAMINE,228.0,1,CCN,didier14
12213,ETHYL MERCAPTAN,225.0,1,CCS,didier14
12214,m-ETHYLSTYRENE,333.0,1,C=Cc1cccc(CC)c1,didier14
12215,ISOBUTANE,190.2,1,CC(C)C,didier14
12216,ACETYL CHLORIDE,278.0,1,CC(=O)Cl,didier14
12217,o-ETHYLSTYRENE,331.0,1,C=Cc1ccccc1CC,didier14
12218,tert-BUTYLAMINE,264.1,1,CC(C)(C)N,didier14
12219,"2,2-DIMETHYLBUTANE",225.0,1,CCC(C)(C)C,didier14
12220,"2,2-DIMETHYL-1-PROPANOL",300.0,1,CC(C)(C)CO,didier14
12221,NEOPENTANOIC ACID,336.1,1,CC(C)(C)C(=O)O,didier14
12222,2-ETHYL-1-BUTENE,247.2,1,C=C(CC)CC,didier14
12223,tert-BUTYL FORMATE,264.1,1,CC(C)(C)OC=O,didier14
12224,2-METHYL-1-PENTENE,241.0,1,C=C(C)CCC,didier14
12225,"2,5-DIMETHYL-2,4-HEXADIENE",297.1,1,CC(C)=CC=C(C)C,didier14
12226,cis-3-HEXENE,245.0,1,CC/C=C\CC,didier14
12227,cis-3-HEPTENE,264.0,1,CC/C=C\CCC,didier14
12228,cis-1-PROPENYLBENZENE,311.0,1,C/C=C\c1ccccc1,didier14
12229,cis-2-HEXENE,247.0,1,C/C=C\CCC,didier14
12230,alpha-METHYLBENZYL ALCOHOL FORMATE,349.0,1,CC(OC=O)c1ccccc1,didier14
12231,2-METHYL OCTANAL,328.0,1,CCCCCCC(C)C=O,didier14
12232,ISOPROPYL ISOBUTYL ETHER,268.0,1,CC(C)COC(C)C,didier14
12233,ISOPENTANE,217.2,1,CCC(C)C,didier14
12234,ISOPRENE,219.3,1,C=CC(=C)C,didier14
12235,2-METHYLPROPANAL,266.0,1,CC(C)C=O,didier14
12236,METHACROLEIN,275.1,1,C=C(C)C=O,didier14
12237,METHYL ETHYL KETONE,267.0,1,CCC(C)=O,didier14
12238,"1,1-DICHLOROPROPANE",280.0,1,CCC(Cl)Cl,didier14
12239,PROPIONIC ACID,328.0,1,CCC(=O)O,didier14
12240,ACRYLIC ACID,324.0,1,C=CC(=O)O,didier14
12241,"2,3-DIMETHYLBUTANE",244.0,1,CC(C)C(C)C,didier14
12242,METHACRYLIC ACID,340.0,1,C=C(C)C(=O)O,didier14
12243,p-tert-AMYLPHENOL,384.0,1,CCC(C)(C)c1ccc(O)cc1,didier14
12244,METHYL METHACRYLATE,284.1,1,C=C(C)C(=O)OC,didier14
12245,METHYL ISOPROPENYL KETONE,294.1,1,C=C(C)C(C)=O,didier14
12246,1-UNDECENE,327.0,1,C=CCCCCCCCCC,didier14
12247,trans-1-PROPENYLBENZENE,325.1,1,C/C=C/c1ccccc1,didier14
12248,4-ETHYL-m-XYLENE,330.0,1,CCc1ccc(C)cc1C,didier14
12249,"1,2,4-TRIETHYLBENZENE",353.1,1,CCc1ccc(CC)c(CC)c1,didier14
12250,HEXAMETHYLBENZENE,387.0,1,Cc1c(C)c(C)c(C)c(C)c1C,didier14
12251,2-ETHYL BUTYRIC ACID,360.0,1,CCC(CC)C(=O)O,didier14
12252,DIPHENYL DISULFIDE,436.0,1,c1ccc(SSc2ccccc2)cc1,didier14
12253,THYMOL,374.1,1,Cc1ccc(C(C)C)c(O)c1,didier14
12254,ETHYL tert-PENTYL ETHER,268.0,1,CCOC(C)(C)CC,didier14
12255,m-TERPHENYL,464.0,1,c1ccc(-c2cccc(-c3ccccc3)c2)cc1,didier14
12256,BIPHENYL,386.0,1,c1ccc(-c2ccccc2)cc1,didier14
12257,2-METHYLHEXANAL,305.0,1,CCCCC(C)C=O,didier14
12258,n-PROPYL ACRYLATE,293.0,1,C=CC(=O)OCCC,didier14
12259,"trans-2-METHYL-1,3-PENTADIENE",253.2,1,C=C(C)/C=C/C,didier14
12260,"N,N-DIMETHYL-n-BUTYLAMINE",270.1,1,CCCCN(C)C,didier14
12261,3-ETHYL-o-XYLENE,338.1,1,CCc1cccc(C)c1C,didier14
12262,5-ETHYL-m-XYLENE,326.0,1,CCc1cc(C)cc(C)c1,didier14
12263,4-ETHYL-o-XYLENE,331.0,1,CCc1ccc(C)c(C)c1,didier14
12264,2-PHENYLPROPIONALDEHYDE,342.0,1,CC(C=O)c1ccccc1,didier14
12265,1-PHENYL-1-PROPANOL,363.1,1,CCC(O)c1ccccc1,didier14
12266,METHYL BENZOATE,355.1,1,COC(=O)c1ccccc1,didier14
12267,ETHYL BENZOATE,357.1,1,CCOC(=O)c1ccccc1,didier14
12268,o-CHLOROTOLUENE,324.0,1,Cc1ccccc1Cl,didier14
12269,"3,4-XYLENOL",376.0,1,Cc1ccc(O)cc1C,didier14
12270,ALLYL METHACRYLATE,306.1,1,C=CCOC(=O)C(=C)C,didier14
12271,3-METHYLPENTANE,241.0,1,CCC(C)CC,didier14
12272,2-METHYLBUTYRALDEHYDE,271.0,1,CCC(C)C=O,didier14
12273,METHYL ACRYLATE,270.0,1,C=CC(=O)OC,didier14
12274,ETHYL METHACRYLATE,293.1,1,C=C(C)C(=O)OCC,didier14
12275,ISOBUTYL ISOBUTYRATE,311.1,1,CC(C)COC(=O)C(C)C,didier14
12276,ISOBUTYL METHACRYLATE,314.1,1,C=C(C)C(=O)OCC(C)C,didier14
12277,n-BUTYL METHACRYLATE,322.0,1,C=C(C)C(=O)OCCCC,didier14
12278,BENZOTRICHLORIDE,354.0,1,ClC(Cl)(Cl)c1ccccc1,didier14
12279,p-tert-BUTYLPHENOL,386.0,1,CC(C)(C)c1ccc(O)cc1,didier14
12280,CUMENE,304.1,1,CC(C)c1ccccc1,didier14
12281,alpha-METHYLSTYRENE,313.1,1,C=C(C)c1ccccc1,didier14
12282,ACETOPHENONE,355.4,1,CC(=O)c1ccccc1,didier14
12283,BENZOYL CHLORIDE,345.0,1,O=C(Cl)c1ccccc1,didier14
12284,m-DIISOPROPYLBENZENE,349.8,1,CC(C)c1cccc(C(C)C)c1,didier14
12285,METHYL para-TOLUATE,363.7,1,COC(=O)c1ccc(C)cc1,didier14
12286,p-CYMENE,320.0,1,Cc1ccc(C(C)C)cc1,didier14
12287,p-CHLORONITROBENZENE,400.1,1,O=[N+]([O-])c1ccc(Cl)cc1,didier14
12288,p-NITROANILINE,472.1,1,Nc1ccc([N+](=O)[O-])cc1,didier14
12289,p-DINITROBENZENE,433.0,1,O=[N+]([O-])c1ccc([N+](=O)[O-])cc1,didier14
12290,CYCLOPENTYLAMINE,290.1,1,NC1CCCC1,didier14
12291,ETHYLBENZENE,288.1,1,CCc1ccccc1,didier14
12292,N-METHYLCYCLOHEXYLAMINE,302.1,1,CNC1CCCCC1,didier14
12293,N-METHYLANILINE,351.0,1,CNc1ccccc1,didier14
12294,PHENYLHYDRAZINE,362.1,1,NNc1ccccc1,didier14
12295,DICYCLOHEXYLAMINE,377.0,1,C1CCC(NC2CCCCC2)CC1,didier14
12296,DIPHENYL ETHER,369.0,1,c1ccc(Oc2ccccc2)cc1,didier14
12297,DI(2-ETHYLHEXYL)ADIPATE,466.0,1,CCCCC(CC)COC(=O)CCCCC(=O)OCC(CC)CCCC,didier14
12298,n-PROPYLBENZENE,303.1,1,CCCc1ccccc1,didier14
12299,N-ETHYLANILINE,358.1,1,CCNc1ccccc1,didier14
12300,ACETANILIDE,446.1,1,CC(=O)Nc1ccccc1,didier14
12301,4-METHOXYPHENYLACETIC ACID,437.0,1,COc1ccc(CC(=O)O)cc1,didier14
12302,2-ETHYL-1-HEXANOL,346.0,1,CCCCC(CC)CO,didier14
12303,p-DIETHYLBENZENE,329.1,1,CCc1ccc(CC)cc1,didier14
12304,"1,4-CYCLOHEXANEDIMETHANOL",434.1,1,OCC1CCC(CO)CC1,didier14
12305,2-METHYL-1-PENTANOL,319.0,1,CCCC(C)CO,didier14
12306,METHYL CYANOACETATE,383.1,1,COC(=O)CC#N,didier14
12307,ETHYL PROPIONATE,285.0,1,CCOC(=O)CC,didier14
12308,ETHYLCHLOROACETATE,311.0,1,CCOC(=O)CCl,didier14
12309,METHYL ACETOACETATE,343.0,1,COC(=O)CC(C)=O,didier14
12310,DIETHYL MALONATE,366.1,1,CCOC(=O)CC(=O)OCC,didier14
12311,ETHYL n-BUTYRATE,297.1,1,CCCC(=O)OCC,didier14
12312,ETHYL CYANOACETATE,383.1,1,CCOC(=O)CC#N,didier14
12313,METHYL DIETHANOLAMINE,399.8,1,CN(CCO)CCO,didier14
12314,n-PROPYL n-BUTYRATE,305.0,1,CCCOC(=O)CCC,didier14
12315,"2,4-XYLENOL",368.1,1,Cc1ccc(O)c(C)c1,didier14
12316,DIBUTYL MALEATE,413.0,1,CCCCOC(=O)/C=C\C(=O)OCCCC,didier14
12317,3-HEPTANONE,310.1,1,CCCCC(=O)CC,didier14
12318,n-PROPYL PROPIONATE,292.1,1,CCCOC(=O)CC,didier14
12319,p-XYLENE,298.1,1,Cc1ccc(C)cc1,didier14
12320,p-CRESOL,368.0,1,Cc1ccc(O)cc1,didier14
12321,p-DICHLOROBENZENE,339.0,1,Clc1ccc(Cl)cc1,didier14
12322,p-CHLOROANILINE,386.0,1,Nc1ccc(Cl)cc1,didier14
12323,p-CHLOROPHENOL,389.0,1,Oc1ccc(Cl)cc1,didier14
12324,p-TOLUIDINE,360.0,1,Cc1ccc(N)cc1,didier14
12325,p-PHENYLENEDIAMINE,428.7,1,Nc1ccc(N)cc1,didier14
12326,ISOBUTYL ACRYLATE,304.3,1,C=CC(=O)OCC(C)C,didier14
12327,DIMETHYL SUCCINATE,358.1,1,COC(=O)CCC(=O)OC,didier14
12328,3-METHYL-3-ETHYLPENTANE,276.0,1,CCC(C)(CC)CC,didier14
12329,"3,3-DIETHYLPENTANE",294.0,1,CCC(CC)(CC)CC,didier14
12330,"2,4-DIMETHYL-3-ETHYLPENTANE",288.0,1,CCC(C(C)C)C(C)C,didier14
12331,"1,3-BUTADIENE",197.2,1,C=CC=C,didier14
12332,n-PROPYL MERCAPTAN,253.2,1,CCCS,didier14
12333,"1,2-DICHLOROETHANE",286.0,1,ClCCCl,didier14
12334,2-CHLOROETHANOL,313.7,1,OCCCl,didier14
12335,"2,2,4,4-TETRAMETHYLPENTANE",276.0,1,CC(C)(C)CC(C)(C)C,didier14
12336,PROPIONITRILE,275.0,1,CCC#N,didier14
12337,"2,2-DIMETHYLHEPTANE",297.0,1,CCCCCC(C)(C)C,didier14
12338,ETHYLENEDIAMINE,306.1,1,NCCN,didier14
12339,ETHYLENE GLYCOL,383.1,1,OCCO,didier14
12340,"2,7-DIMETHYLOCTANE",306.0,1,CC(C)CCCCC(C)C,didier14
12341,GLYOXAL,262.0,1,O=CC=O,didier14
12342,CHLOROMETHYL METHYL ETHER,255.0,1,COCCl,didier14
12343,HEXYLENE GLYCOL,366.0,1,OCCCCCCO,didier14
12344,n-HEXYLBENZENE,353.1,1,CCCCCCc1ccccc1,didier14
12345,n-HEPTYLBENZENE,368.1,1,CCCCCCCc1ccccc1,didier14
12346,2-PENTANONE,280.0,1,CCCC(C)=O,didier14
12347,"1,3-BUTANEDIOL",382.0,1,CC(O)CCO,didier14
12348,n-BUTYRIC ACID,345.0,1,CCCC(=O)O,didier14
12349,PROPYLENE GLYCOL MONOMETHYL ETHER,305.0,1,COCC(C)O,didier14
12350,1-NITROPROPANE,306.1,1,CCC[N+](=O)[O-],didier14
12351,METHYL ISOBUTYL KETONE,286.1,1,CC(=O)CC(C)C,didier14
12352,4-METHYL-2-PENTANOL,314.0,1,CC(C)CC(C)O,didier14
12353,DIISOPROPYLAMINE,266.1,1,CC(C)NC(C)C,didier14
12354,DIISOPROPYL ETHER,245.0,1,CC(C)OC(C)C,didier14
12355,m-XYLENE,298.1,1,Cc1cccc(C)c1,didier14
12356,m-CRESOL,368.0,1,Cc1cccc(O)c1,didier14
12357,m-CHLOROANILINE,378.0,1,Nc1cccc(Cl)c1,didier14
12358,m-CHLOROPHENOL,364.0,1,Oc1cccc(Cl)c1,didier14
12359,m-TOLUIDINE,359.1,1,Cc1cccc(N)c1,didier14
12360,m-PHENYLENEDIAMINE,411.1,1,Nc1cccc(N)c1,didier14
12361,"1,3-BENZENEDIOL",400.0,1,Oc1cccc(O)c1,didier14
12362,"2,6-DIMETHYLPYRIDINE",306.0,1,Cc1cccc(C)n1,didier14
12363,DIMETHYLMALONATE,363.1,1,CC(C)(C(=O)[O-])C(=O)[O-],didier14
12364,PROPYLENE GLYCOL MONOMETHYL ETHER ACETATE,316.0,1,COCC(C)OC(C)=O,didier14
12365,MESITYLENE,317.6,1,Cc1cc(C)cc(C)c1,didier14
12366,DIISOBUTYL KETONE,322.1,1,CC(C)CC(=O)CC(C)C,didier14
12367,METHYLCYCLOHEXANE,267.1,1,CC1CCCCC1,didier14
12368,TOLUENE,277.1,1,Cc1ccccc1,didier14
12369,4-METHYLPYRIDINE,329.1,1,Cc1ccncc1,didier14
12370,CYCLOHEXYLAMINE,304.1,1,NC1CCCCC1,didier14
12371,CYCLOHEXANOL,341.0,1,OC1CCCCC1,didier14
12372,PHENOL,353.0,1,Oc1ccccc1,didier14
12373,3-METHYLPYRIDINE,309.1,1,Cc1cccnc1,didier14
12374,2-METHYLPYRIDINE,299.1,1,Cc1ccccn1,didier14
12375,n-BUTYL n-BUTYRATE,326.5,1,CCCCOC(=O)CCC,didier14
12376,DIBUTYL SEBACATE,451.1,1,CCCCOC(=O)CCCCCCCCC(=O)OCCCC,didier14
12377,n-PENTANOIC ACID,358.1,1,CCCCC(=O)O,didier14
12378,n-PROPYL ACETATE,288.0,1,CCCOC(C)=O,didier14
12379,n-PENTANE,233.2,1,CCCCC,didier14
12380,1-PENTENE,219.0,1,C=CCCC,didier14
12381,n-BUTYL CHLORIDE,263.8,1,CCCCCl,didier14
12382,n-BUTYRONITRILE,289.1,1,CCCC#N,didier14
12383,"1,3-PROPANEDIAMINE",321.1,1,NCCCN,didier14
12384,MALONONITRILE,385.1,1,N#CCC#N,didier14
12385,HYDRACRYLONITRILE,383.1,1,N#CCCO,didier14
12386,n-BUTYL MERCAPTAN,274.8,1,CCCCS,didier14
12387,METHYLETHANOLAMINE,345.1,1,CC(O)CN,didier14
12388,2-METHOXYETHANOL,312.0,1,COCCO,didier14
12389,METHYLAL,255.0,1,COCOC,didier14
12390,DIETHYLAMINE,234.2,1,CCNCC,didier14
12391,DI-t-BUTYL PEROXIDE,291.0,1,CC(C)(C)OOC(C)(C)C,didier14
12392,5-METHYL-2-HEXANONE,309.1,1,CC(=O)CCC(C)C,didier14
12393,SUCCINIC ACID,489.0,1,O=C(O)CCC(=O)O,didier14
12394,FUMARIC ACID,471.0,1,O=C(O)/C=C/C(=O)O,didier14
12395,ISOBUTYL ACETATE,291.0,1,CC(=O)OCC(C)C,didier14
12396,DIHEXYL ADIPATE,464.0,1,CCCCCCOC(=O)CCCCC(=O)OCCCCCC,didier14
12397,METHYL DECANOATE,367.1,1,CCCCCCCCCC(=O)OC,didier14
12398,2-HEPTANONE,312.1,1,CCCCCC(C)=O,didier14
12399,n-HEXANE,251.5,1,CCCCCC,didier14
12400,"1,4-DICHLOROBUTANE",313.1,1,ClCCCCCl,didier14
12401,"1,4-DICHLORO-trans-2-BUTENE",326.1,1,ClC/C=C/CCl,didier14
12402,n-PENTYLAMINE,272.1,1,CCCCCN,didier14
12403,SUCCINONITRILE,405.0,1,N#CCCC#N,didier14
12404,PENTANAL,285.1,1,CCCCC=O,didier14
12405,"1,4-BUTANEDIOL",407.1,1,OCCCCO,didier14
12406,n-PENTYL MERCAPTAN,291.0,1,CCCCCS,didier14
12407,3-METHOXYPROPIONITRILE,338.1,1,COCCC#N,didier14
12408,"1,2-DIMETHOXYETHANE",271.5,1,COCCOC,didier14
12409,2-ETHOXYETHANOL,316.0,1,CCOCCO,didier14
12410,CYCLOHEXANE,253.2,1,C1CCCCC1,didier14
12411,PYRIDINE,293.1,1,c1ccncc1,didier14
12412,GLUTARIC ACID,482.0,1,O=C(O)CCCC(=O)O,didier14
12413,DIGLYCOLIC ACID,500.0,1,O=C(O)COCC(=O)O,didier14
12414,SQUALANE,490.0,1,CC(C)CCCC(C)CCCC(C)CCCCC(C)CCCC(C)CCCC(C)C,didier14
12415,2-OCTANONE,324.1,1,CCCCCCC(C)=O,didier14
12416,n-HEPTANOIC ACID,382.0,1,CCCCCCC(=O)O,didier14
12417,2-ETHOXYETHYL ACETATE,328.0,1,CCOCCOC(C)=O,didier14
12418,PIMELIC ACID,488.0,1,O=C(O)CCCCCC(=O)O,didier14
12419,SEBACIC ACID,496.0,1,O=C(O)CCCCCCCCC(=O)O,didier14
12420,n-HEXYLAMINE,281.1,1,CCCCCCN,didier14
12421,1-HEXANOL,333.0,1,CCCCCCO,didier14
12422,"1,5-PENTANEDIOL",402.1,1,OCCCCCO,didier14
12423,GLUTARALDEHYDE,355.0,1,O=CCCCC=O,didier14
12424,n-HEXYL MERCAPTAN,293.1,1,CCCCCCS,didier14
12425,BUTYL VINYL ETHER,272.0,1,C=COCCCC,didier14
12426,DIETHYLENETRIAMINE,372.0,1,NCCNCCN,didier14
12427,N-AMINOETHYL ETHANOLAMINE,375.0,1,NCCNCCO,didier14
12428,DIETHANOLAMINE,425.0,1,OCCNCCO,didier14
12429,DI(2-CHLOROETHYL)ETHER,328.1,1,ClCCOCCCl,didier14
12430,DIETHYLENE GLYCOL,397.0,1,OCCOCCO,didier14
12431,HYDROXYPIVALYL HYDROXYPIVALATE,426.0,1,CC(C)(CO)C(=O)OC(=O)C(C)(C)CO,didier14
12432,ETHYLENE GLYCOL DIACETATE,361.1,1,CC(=O)OCCOC(C)=O,didier14
12433,n-OCTANE,286.0,1,CCCCCCCC,didier14
12434,1-OCTENE,281.0,1,C=CCCCCCC,didier14
12435,HEPTANAL,308.1,1,CCCCCCC=O,didier14
12436,2-BUTOXYETHANOL,333.1,1,CCCCOCCO,didier14
12437,2-(2-METHOXYETHOXY)ETHANOL,357.0,1,COCCOCCO,didier14
12438,n-NONANE,304.0,1,CCCCCCCCC,didier14
12439,1-OCTANOL,357.0,1,CCCCCCCCO,didier14
12440,2-(2-ETHOXYETHOXY)ETHANOL,356.4,1,CCOCCOCCO,didier14
12441,DI-(2-CHLOROETHOXY)METHANE,383.1,1,ClCCOCOCCCl,didier14
12442,DI-n-BUTYLAMINE,312.1,1,CCCCNCCCC,didier14
12443,DIETHYLENE GLYCOL DIMETHYL ETHER,335.9,1,COCCOCCOC,didier14
12444,"1,4-DICYANO-2-BUTENE",418.0,1,N#CCC=CCC#N,didier14
12445,n-UNDECANE,338.1,1,CCCCCCCCCCC,didier14
12446,ETHYLENE GLYCOL MONOBUTYL ETHER ACETATE,344.1,1,CCCCOCCOC(C)=O,didier14
12447,n-OCTYL ACETATE,359.1,1,CCCCCCCCOC(C)=O,didier14
12448,DIETHYLENE GLYCOL ETHYL ETHER ACETATE,380.0,1,CCOCCOCCOC(C)=O,didier14
12449,n-DECYL ACETATE,377.0,1,CCCCCCCCCCOC(C)=O,didier14
12450,TRIETHYLENETETRAMINE,408.1,1,NCCNCCNCCN,didier14
12451,2-HEXOXYETHANOL,355.0,1,CCCCCCOCCO,didier14
12452,TRIETHYLENE GLYCOL,429.1,1,OCCOCCOCCO,didier14
12453,CYCLOPENTYLACETIC ACID,382.1,1,O=C(O)CC1CCCC1,didier14
12454,1-DECANOL,355.4,1,CCCCCCCCCCO,didier14
12455,DECANAL,358.1,1,CCCCCCCCCC=O,didier14
12456,n-OCTYL FORMATE,337.0,1,CCCCCCCCOC=O,didier14
12457,2-(2-BUTOXYETHOXY)ETHANOL,351.0,1,CCCCOCCOCCO,didier14
12458,TRIETHYLENE GLYCOL MONOMETHYL ETHER,387.6,1,COCCOCCOCCO,didier14
12459,DIETHYLENE GLYCOL DIETHYL ETHER,355.1,1,CCOCCOCCOCC,didier14
12460,1-DODECENE,340.0,1,C=CCCCCCCCCCC,didier14
12461,1-UNDECANOL,388.0,1,CCCCCCCCCCCO,didier14
12462,UNDECANAL,369.1,1,CCCCCCCCCCC=O,didier14
12463,"DECAN-1,10-DIOL",425.1,1,OCCCCCCCCCCO,didier14
12464,TRIETHYLENE GLYCOL DIMETHYL ETHER,383.1,1,COCCOCCOCCOC,didier14
12465,TRIETHYLENE GLYCOL MONOETHYL ETHER,408.1,1,CCOCCOCCOCCO,didier14
12466,1-DODECANOL,398.0,1,CCCCCCCCCCCCO,didier14
12467,DODECANAL,374.1,1,CCCCCCCCCCCC=O,didier14
12468,TETRAETHYLENEPENTAMINE,436.0,1,NCCNCCNCCNCCN,didier14
12469,2-(2-HEXOXYETHOXY)ETHANOL,408.1,1,CCCCCCOCCOCCO,didier14
12470,TETRAETHYLENE GLYCOL,469.0,1,OCCOCCOCCOCCO,didier14
12471,1-TETRADECANOL,416.0,1,CCCCCCCCCCCCCCO,didier14
12472,DIETHYLENE GLYCOL DI-n-BUTYL ETHER,391.1,1,CCCCOCCOCCOCCCC,didier14
12473,1-ETHYLNAPHTHALENE,384.1,1,CCc1cccc2ccccc12,didier14
12474,1-OCTADECENE,421.1,1,C=CCCCCCCCCCCCCCCCC,didier14
12475,"2,6-NAPHTHALENEDICARBOXYLIC ACID",544.0,1,O=C(O)c1ccc2cc(C(=O)O)ccc2c1,didier14
12476,PROPYLENE,165.0,1,C=CC,didier14
12477,PENTAERYTHRITOL,533.1,1,OCC(CO)(CO)CO,didier14
12478,DIOCTYL PHTHALATE,489.0,1,CCCCCCCCOC(=O)c1ccccc1C(=O)OCCCCCCCC,didier14
12479,"2,2,3,4-TETRAMETHYLPENTANE",284.0,1,CC(C)C(C)C(C)(C)C,didier14
12480,o-CHLOROBENZOIC ACID,435.0,1,O=C(O)c1ccccc1Cl,didier14
12481,2-HYDROXYACETOPHENONE,371.1,1,O=C(CO)c1ccccc1,didier14
12482,6-HYDROXYHEXANOIC ACID,444.0,1,O=C(O)CCCCCO,didier14
12483,PENTAETHYLENE GLYCOL DIMETHYL ETHER,468.0,1,COCCOCCOCCOCCOCCOC,didier14
12484,METHYL SALICYLATE,369.0,1,COC(=O)c1ccccc1O,didier14
12485,ISOQUINOLINE,380.1,1,c1ccc2cnccc2c1,didier14
12486,2-FORMYL BENZOIC ACID,436.0,1,O=Cc1ccccc1C(=O)O,didier14
12487,DIMETHYL TEREPHTHALATE,414.1,1,COC(=O)c1ccc(C(=O)OC)cc1,didier14
12488,"1,2-BENZENEDIOL",400.0,1,Oc1ccccc1O,didier14
12489,"1,2,4-TRICHLOROBENZENE",378.7,1,Clc1ccc(Cl)c(Cl)c1,didier14
12490,ETHYL VANILLIN,445.0,1,CCOc1cc(C=O)ccc1O,didier14
12491,VANILLIN,432.0,1,COc1cc(C=O)ccc1O,didier14
12492,TRIETHYLAMINE,258.1,1,CCN(CC)CC,didier14
12493,"N,N-DIMETHYLANILINE",335.1,1,CN(C)c1ccccc1,didier14
12494,m-CHLORONITROBENZENE,400.1,1,O=[N+]([O-])c1cccc(Cl)c1,didier14
12495,ISOPHTHALIC ACID,601.0,1,O=C(O)c1cccc(C(=O)O)c1,didier14
12496,HYDRAZOBENZENE,503.0,1,c1ccc(NNc2ccccc2)cc1,didier14
12497,p-ETHYLPHENOL,373.1,1,CCc1ccc(O)cc1,didier14