compound,flashpoint,pure substance,smiles,source
ethanesulfonyl chloride,326.45,1.0,CCS(=O)(=O)Cl,le15
chloromethyl carbonochloridate,298.65,1.0,O=C(Cl)OCCl,le15
"s-Triazine-2,4,6(1H,3H,5H)-trione (8CI)",706.75,1.0,O=c1[nH]c(=O)[nH]c(=O)[nH]1,le15
"Benzenamine, 2,4-difluoro-",335.15,1.0,Nc1ccc(F)cc1F,le15
"Benzenamine, 3,4-difluoro-",358.15,1.0,Nc1ccc(F)c(F)c1,le15
"Proline, 5-oxo-, L-",500.95,1.0,O=C1CC[C@@H](C(=O)O)N1,le15
"Urea, N-nitroso-N-2-propenyl- (9CI)",349.15,1.0,C=CCN(N=O)C(N)=O,le15
2-nitrothiophene,367.05,1.0,O=[N+]([O-])c1cccs1,le15
3-nitrothiophene,363.65,1.0,O=[N+]([O-])c1ccsc1,le15
Quinoline,374.15,1.0,c1ccc2ncccc2c1,le15
Isoquinoline,374.25,1.0,c1ccc2cnccc2c1,le15
(E)-3-phenylprop-2-enenitrile,378.35,1.0,N#C/C=C/c1ccccc1,le15
1-Aminocyclopentane-1-carboxylic acid,381.85,1.0,NC1(C(=O)O)CCCC1,le15
nitrocyclohexane,354.35,1.0,O=[N+]([O-])C1CCCCC1,le15
"Morpholine, 4-acetyl-",395.15,1.0,CC(=O)N1CCOCC1,le15
"Butanamide, N,N-dimethyl-3-oxo-",355.54999999999984,1.0,CC(=O)CC(=O)N(C)C,le15
"2-Pyrrolidinone, 1-(2-hydroxyethyl)-",373.15,1.0,O=C1CCCN1CCO,le15
"3-Hexene, 3-nitro-",338.75,1.0,CCC=C(CC)[N+](=O)[O-],le15
N-acetyl-N-ethylacetamide,347.54999999999984,1.0,CCN(C(C)=O)C(C)=O,le15
2-piperidin-4-ylethanol,374.85,1.0,OCCC1CCNCC1,le15
"N-(2,4-dimethylpentan-3-ylidene)hydroxylamine",371.95,1.0,CC(C)C(=NO)C(C)C,le15
"N,N-diethylpropanamide",346.75,1.0,CCC(=O)N(CC)CC,le15
2-piperidin-2-ylethanol,375.35,1.0,OCCC1CCCCN1,le15
"Oxiranemethanamine, N,N-diethyl- (9CI)",314.25,1.0,CCN(CC)CC1CO1,le15
"2-Heptanone, oxime",613.8499999999998,1.0,CCCCCC(C)=NO,le15
(1-methylpiperidin-3-yl)methanol,367.55,1.0,CN1CCCC(CO)C1,le15
1-Piperidineethanol,364.35,1.0,OCCN1CCCCC1,le15
"1,3,5-trimethyl-1,3,5-triazinane",322.5499999999999,1.0,CN1CN(C)CN(C)C1,le15
"Piperazine, 1-(2-aminoethyl)-",366.15,1.0,NCCN1CCNCC1,le15
Neopentyl isothiocyanate,327.503,1.0,CC(C)(C)CN=C=S,le15
Pentyl isothiocyanate,338.35,1.0,CCCCCN=C=S,le15
"1-Hexanamine, 2-ethyl-",325.35,1.0,CCCCC(CC)CN,le15
"Butylamine, 1,1,3,3-tetramethyl- (6CI,7CI,8CI)",305.15,1.0,CC(C)(C)CC(C)(C)N,le15
"1-Propanamine, 2-methyl-N-(2-methylpropyl)-",302.5499999999999,1.0,CC(C)CNCC(C)C,le15
N-butan-2-ylbutan-2-amine,293.75,1.0,CCC(C)NC(C)CC,le15
"Heptylamine, 1-methyl-",335.95,1.0,CCCCCCC(C)N,le15
"1-Butanamine, N,N-diethyl-",299.95,1.0,CCCCN(CC)CC,le15
N-ethyl-N-propan-2-ylpropan-2-amine,283.75,1.0,CCN(C(C)C)C(C)C,le15
"1-Butanamine, N-butyl-",314.25,1.0,CCCCNCCCC,le15
2ethyl1hexanamine,323.0,1.0,CCCCC(CC)CN,le15
"Methane, bromochloro-",284.15,1.0,ClCBr,le15
5-Chloropyridin-2-ol,402.75,1.0,Oc1ccc(Cl)cn1,le15
"3-Pyridinol, 2-chloro-",418.15,1.0,Oc1cccnc1Cl,le15
"Methane, dichloronitro-",296.35,1.0,O=[N+]([O-])C(Cl)Cl,le15
"2,4(1H,3H)-Pyrimidinedione, 5-fluoro-",469.65,1.0,O=c1[nH]cc(F)c(=O)[nH]1,le15
2-methylidenebutanedioic acid,471.85,1.0,C=C(CC(=O)O)C(=O)O,le15
"Propiolaldehyde, phenyl- (8CI)",367.55,1.0,O=CC#Cc1ccccc1,le15
Quinoxaline,371.15,1.0,c1ccc2nccnc2c1,le15
"Hexanedial, 2-hydroxy-",380.75,1.0,O=CCCCC(O)C=O,le15
"Butanoic acid, 3-oxo-, ethyl ester",340.15,1.0,CCOC(=O)CC(C)=O,le15
"3,3-dimethyl-2-oxobutanoic acid",351.54999999999984,1.0,CC(C)(C)C(=O)C(=O)O,le15
"2-Propenoic acid, 2-methyl-, 2-hydroxyethyl ester",370.372,1.0,C=C(C)C(=O)OCCO,le15
"2-Propenoic acid, 2-hydroxypropyl ester (9CI)",353.04999999999984,1.0,C=CC(=O)OCC(C)O,le15
"Oxirane, 2,2'-(oxybis(methylene))bis-",343.75,1.0,C(OCC1CO1)C1CO1,le15
"Acrylic acid, 2-methoxyethyl ester (8CI)",333.15,1.0,C=CC(=O)OCCOC,le15
quinazoline,379.81699999999995,1.0,c1ccc2ncncc2c1,le15
"2,5-dimethoxy-2,5-dihydrofuran",320.35,1.0,COC1C=CC(OC)O1,le15
"Butanoic acid, 4-oxo-, ethyl ester",341.65,1.0,CCOC(=O)CCC=O,le15
methyl 2-methyl-3-oxobutanoate,505.55,1.0,COC(=O)C(C)C(C)=O,le15
ethyl3oxobutanoat,343.0,1.0,CCOC(=O)CC(C)=O,le15
PropionicAnhydride,336.0,1.0,CCC(=O)OC(=O)CC,le15
1-nitropiperidine,391.25,1.0,O=[N+]([O-])N1CCCCC1,le15
"Naphthalene, 1,2-dihydro-",343.5,1.0,C1=Cc2ccccc2CC1,le15
"1,4-dihydronaphthalene",343.85,1.0,C1=CCc2ccccc2C1,le15
4-methyl-1H-indene,347.85,1.0,Cc1cccc2c1C=CC2,le15
7-methyl-1H-indene,348.04999999999984,1.0,Cc1cccc2c1CC=C2,le15
6-methyl-1H-indene,346.45,1.0,Cc1ccc2c(c1)CC=C2,le15
"1,3-bis(ethenyl)benzene",347.75,1.0,C=Cc1cccc(C=C)c1,le15
"Butanoic acid, propyl ester",312.0499999999999,1.0,CCCOC(=O)CCC,le15
"Hexanoic acid, methyl ester",315.15,1.0,CCCCCC(=O)OC,le15
"2-Pentanone, 4-methoxy-4-methyl-",314.45,1.0,COC(C)(C)CC(C)=O,le15
"Butyric acid, 3-methyl-, ethyl ester (6CI,7CI,8CI)",299.15,1.0,CCOC(=O)CC(C)C,le15
"1-Butanol, 3-methyl-, acetate",298.15,1.0,CC(=O)OCCC(C)C,le15
"Valeric acid, ethyl ester (8CI)",312.0499999999999,1.0,CCCCC(=O)OCC,le15
"Propanoic acid, 2-methylpropyl ester",299.15,1.0,CCC(=O)OCC(C)C,le15
"Propanoic acid, butyl ester",311.15,1.0,CCCCOC(=O)CC,le15
butan-2-yl propanoate,306.5499999999999,1.0,CCC(=O)OC(C)CC,le15
2-methylbutyl acetate,308.15,1.0,CCC(C)COC(C)=O,le15
"Formic acid, hexyl ester",320.95,1.0,CCCCCCOC=O,le15
propan-2-yl butanoate,303.15,1.0,CCCC(=O)OC(C)C,le15
propyl 2-methylpropanoate,306.5499999999999,1.0,CCCOC(=O)C(C)C,le15
"ethyl 2,2-dimethylpropanoate",289.15,1.0,CCOC(=O)C(C)(C)C,le15
2-methylhexanoic acid,330.15,1.0,CCCCC(C)C(=O)O,le15
"Thiocyanic acid, methylene ester",399.45,1.0,N#CSCSC#N,le15
"Butyric acid, 2-methyl-, ethyl ester (8CI)",306.5499999999999,1.0,CCOC(=O)C(C)CC,le15
"Butanoic acid, 2-ethyl-2-methyl-",365.15,1.0,CCC(C)(CC)C(=O)O,le15
"Propanoic acid, 1,1-dimethylethyl ester",298.5499999999999,1.0,CCC(=O)OC(C)(C)C,le15
"2,2-dimethylpentanoic acid",365.15,1.0,CCCC(C)(C)C(=O)O,le15
"Propane, 1-butoxy-2,3-epoxy-",328.75,1.0,CCCCOCC1CO1,le15
"Oxirane, ((1,1-dimethylethoxy)methyl)-",316.45,1.0,CC(C)(C)OCC1CO1,le15
2pentylacetate,305.0,1.0,CCCCCCC(=O)[O-],le15
tertButylPropionate,293.0,1.0,CCC(=O)OC(C)(C)C,le15
N-(2-Hydroxyethyl)piperazine,375.05,1.0,OCCN1CCNCC1,le15
6-aminohexanamide,414.35,1.0,NCCCCCC(N)=O,le15
"tert-Butylamine, N-ethyl-N-nitroso-",346.75,1.0,CCN(N=O)C(C)(C)C,le15
"Morpholine, 4-(2-aminoethyl)-",448.15,1.0,NCCN1CCOCC1,le15
"1-Butanamine, N-ethyl-N-nitroso- (9CI)",355.75,1.0,CCCCN(CC)N=O,le15
"1-Hexanol, 2-ethyl-",350.35,1.0,CCCCC(CC)CO,le15
"1-Pentanol, 2,2,4-trimethyl-",329.75,1.0,CC(C)CC(C)(C)CO,le15
"Butane, 1,1'-oxybis-",298.15,1.0,CCCCOCCCC,le15
octan-4-ol,344.25,1.0,CCCCC(O)CCC,le15
3-ethylhexan-3-ol,333.75,1.0,CCCC(O)(CC)CC,le15
4-methylheptan-4-ol,333.75,1.0,CCCC(C)(O)CCC,le15
"1-Heptanol, 6-methyl-",344.25,1.0,CC(C)CCCCCO,le15
"1-Hexanol, 2,2-dimethyl-",333.75,1.0,CCCCC(C)(C)CO,le15
"2,2-dimethylhexan-3-ol",329.75,1.0,CCCC(O)C(C)(C)C,le15
6-methylheptan-2-ol,340.35,1.0,CC(C)CCCC(C)O,le15
"2,2,4-trimethylpentan-3-ol",323.15,1.0,CC(C)C(O)C(C)(C)C,le15
"3-Heptanol, 3-methyl- (8CI)(9CI)",333.75,1.0,CCCCC(C)(O)CC,le15
1-ethoxyhexane,304.35,1.0,CCCCCCOCC,le15
1-(2-methylpropoxy)butane,295.95,1.0,CCCCOCC(C)C,le15
"2,3-dimethylhexan-2-ol",329.75,1.0,CCCC(C)C(C)(C)O,le15
"3,4-dimethylhexan-2-ol",332.35,1.0,CCC(C)C(C)C(C)O,le15
2-Methylheptan-4-ol,337.35,1.0,CCCC(O)CC(C)C,le15
"2-Heptanol, 3-methyl- (8CI)(9CI)",337.35,1.0,CCCCC(C)C(C)O,le15
"1-Pentanol, 2-propyl-",344.85,1.0,CCCC(CO)CCC,le15
3-ethyl-2-methylpentan-3-ol,329.75,1.0,CCC(O)(CC)C(C)C,le15
"2,3,4-trimethylpentan-2-ol",323.15,1.0,CC(C)C(C)C(C)(C)O,le15
"2,5-dimethylhexan-2-ol",329.75,1.0,CC(C)CCC(C)(C)O,le15
"3-Heptanol, 5-methyl-",337.35,1.0,CCC(C)CC(O)CC,le15
2ethylhexanol,346.0,1.0,CCCCC(CC)CO,le15
3octanol,338.0,1.0,CCCCCC(O)CC,le15
"1,3-Propanediamine, N,N,N',N'-tetramethyl-",304.85,1.0,CN(C)CCCN(C)C,le15
"1,3-Propanediamine, N,N-diethyl-",326.15,1.0,CCN(CC)CCCN,le15
"heptane-1,7-diamine",360.95,1.0,NCCCCCCCN,le15
Butyltrimethylsilane,281.65,1.0,CCCC[Si](C)(C)C,le15
"2-chloro-2,2-difluoroacetic acid",299.0499999999999,1.0,O=C(O)C(F)(F)Cl,le15
furan-2-carbonyl chloride,330.25,1.0,O=C(Cl)c1ccco1,le15
1-chloro-2-fluorobenzene,310.15,1.0,Fc1ccccc1Cl,le15
1-chloro-4-fluorobenzene,302.15,1.0,Fc1ccc(Cl)cc1,le15
1-chloro-2-fluorobenzene,293.15,1.0,Fc1ccccc1Cl,le15
chlorosulfonyloxymethane,306.95,1.0,COS(=O)(=O)Cl,le15
"5-Chloro-1,3-dimethyl-1H-pyrazole",335.85,1.0,Cc1cc(Cl)n(C)n1,le15
dichloro(ethyl)phosphane,305.95,1.0,CCP(Cl)Cl,le15
"1,2-dichloro-2-fluoropropane",276.75,1.0,CC(F)(Cl)CCl,le15
"Glyoxylonitrile, phenyl- (8CI)",357.15,1.0,N#CC(=O)c1ccccc1,le15
m-Formylbenzonitrile,354.45,1.0,N#Cc1cccc(C=O)c1,le15
"Pentanoic acid, 5-amino-4-oxo-",407.45,1.0,NCC(=O)CCC(=O)O,le15
"Pyrido(2,3-d)pyridazine",452.45,1.0,c1cnc2cnncc2c1,le15
"Pyrido(3,4-d)pyridazine",467.05,1.0,c1cc2cnncc2cn1,le15
"Urea, 1,1,3-trimethyl-3-nitroso-",316.85,1.0,CN(C)C(=O)N(C)N=O,le15
2-methyl-1H-indole,385.65,1.0,Cc1cc2ccccc2[nH]1,le15
5-methyl-1H-indole,387.85,1.0,Cc1ccc2[nH]ccc2c1,le15
7-methyl-1H-indole,383.65,1.0,Cc1cccc2cc[nH]c12,le15
2-(3-methylphenyl)acetonitrile,381.55,1.0,Cc1cccc(CC#N)c1,le15
2-(4-methylphenyl)acetonitrile,379.25,1.0,Cc1ccc(CC#N)cc1,le15
"Benzonitrile, 2,3-dimethyl-",373.15,1.0,Cc1cccc(C#N)c1C,le15
2-(2-methylphenyl)acetonitrile,384.45,1.0,Cc1ccccc1CC#N,le15
"1H-Indole, 3-methyl-",405.15,1.0,Cc1c[nH]c2ccccc12,le15
"Benzeneacetonitrile, alpha-methyl-",367.05,1.0,CC(C#N)c1ccccc1,le15
4-methyl-1H-indole,387.25,1.0,Cc1cccc2[nH]ccc12,le15
"Carbamic acid, 1-methylbutyl ester",367.35,1.0,CCCC(C)OC(N)=O,le15
2-Morpholinoethanol,372.55,1.0,OCCN1CCOCC1,le15
"Hexane, 1-nitro-",345.15,1.0,CCCCCC[N+](=O)[O-],le15
2-dimethylaminoethyl acetate,529.95,1.0,CC(=O)OCCN(C)C,le15
"Hexanoic acid, 6-amino-",381.55,1.0,NCCCCCC(=O)O,le15
"Hydrazinecarbothioamide, 2-(1-methylethylidene)-",356.25,1.0,CC(C)=NNC(N)=S,le15
3butoxypropylamine,336.0,1.0,CCCCOCCCN,le15
"1,3-Propanediamine, N-(3-aminopropyl)-",391.15,1.0,NCCCNCCCN,le15
"1,1,2-Trichloroethylene",285.25,1.0,ClC=C(Cl)Cl,le15
"2,2,3,3-tetrafluoropropan-1-ol",316.15,1.0,OCC(F)(F)C(F)F,le15
"1,2,4-trifluorobenzene",277.15,1.0,Fc1ccc(F)c(F)c1,le15
"1,3,5-trifluorobenzene",333.65,1.0,Fc1cc(F)cc(F)c1,le15
"Propanedioic acid, dimethyl ester",363.15,1.0,COC(=O)CC(=O)OC,le15
Pentanedioic acid,424.35,1.0,O=C(O)CCCC(=O)O,le15
"2,3-dihydroinden-1-one",384.85,1.0,O=C1CCc2ccccc21,le15
2-methyl-1-benzofuran,340.15,1.0,Cc1cc2ccccc2o1,le15
"2-Propenal, 3-phenyl-, (E)- (9CI)",344.15,1.0,O=C/C=C/c1ccccc1,le15
7-methyl-1-benzofuran,344.54999999999984,1.0,Cc1cccc2ccoc12,le15
5-methyl-1-benzofuran,362.55,1.0,Cc1ccc2occc2c1,le15
3-methyl-1-benzofuran,346.35,1.0,Cc1coc2ccccc12,le15
Cinnamaldehyde,344.0,1.0,O=CC=Cc1ccccc1,le15
ethyl 2-hydroxy-2-methylpropanoate,317.15,1.0,CCOC(=O)C(C)(C)O,le15
"Ethaneperoxoic acid, 1,1-dimethylethyl ester",312.95,1.0,CC(=O)OOC(C)(C)C,le15
"Acetic acid, 2-methoxy-1-methylethyl ester",321.0499999999999,1.0,COCC(C)OC(C)=O,le15
"Ethanol, 2-ethoxy-, acetate",323.75,1.0,CCOCCOC(C)=O,le15
"1,3,5-Trioxane, 2,4,6-trimethyl-",312.35,1.0,CC1OC(C)OC(C)O1,le15
"2,5-dimethoxyoxolane",308.15,1.0,COC1CCC(OC)O1,le15
ethyl 2-ethoxyacetate,321.45,1.0,CCOCC(=O)OCC,le15
"Ethanol, 2-(2-(ethenyloxy)ethoxy)- (9CI)",351.54999999999984,1.0,C=COCCOCCO,le15
6-hydroxyhexanoic acid,406.05,1.0,O=C(O)CCCCCO,le15
"Acetic acid, butoxy-",370.65,1.0,CCCCOCC(=O)O,le15
4-Aminophenylacetonitrile,409.45,1.0,N#CCc1ccc(N)cc1,le15
"Butanoic acid, 3-hydroxy-, ethyl ester",337.15,1.0,CCOC(=O)CC(C)O,le15
"1,3-Dioxolane-4-methanol, 2,2-dimethyl-",353.15,1.0,CC1(C)OCC(CO)O1,le15
[5-(hydroxymethyl)oxolan-2-yl]methanol,385.15,1.0,OCC1CCC(CO)O1,le15
propan-2-yl 2-hydroxypropanoate,330.35,1.0,CC(C)OC(=O)C(C)O,le15
"4,7-Methano-1H-indene, 3a,4,7,7a-tetrahydro-",319.949,1.0,C1=CC2C3C=CC(C3)C2C1,le15
"Naphthalene, 1,2,3,4-tetrahydro-",350.15,1.0,c1ccc2c(c1)CCCC2,le15
but-3-enylbenzene,333.15,1.0,C=CCCc1ccccc1,le15
[(E)-but-1-enyl]benzene,336.75,1.0,CC/C=C/c1ccccc1,le15
1-methyl-3-prop-1-en-2-ylbenzene,331.35,1.0,C=C(C)c1cccc(C)c1,le15
[(E)-but-2-enyl]benzene,329.35,1.0,C/C=C/Cc1ccccc1,le15
1-ethenyl-4-ethylbenzene,335.25,1.0,C=Cc1ccc(CC)cc1,le15
1-methyl-2-prop-1-en-2-ylbenzene,328.75,1.0,C=C(C)c1ccccc1C,le15
1-methyl-4-prop-1-en-2-ylbenzene,332.5499999999999,1.0,C=C(C)c1ccc(C)cc1,le15
1-methyl-2-prop-2-enylbenzene,330.45,1.0,C=CCc1ccccc1C,le15
but-1-en-2-ylbenzene,330.25,1.0,C=C(CC)c1ccccc1,le15
"1,3-Propanediol, 2,2-diethyl-",374.25,1.0,CCC(CC)(CO)CO,le15
1-(propoxymethoxy)propane,298.5499999999999,1.0,CCCOCOCCC,le15
"heptane-1,7-diol",394.05,1.0,OCCCCCCCO,le15
"1,1-diethoxypropane",285.95,1.0,CCOC(CC)OCC,le15
"2-Propanol, 1-butoxy-",327.65,1.0,CCCCOCC(C)O,le15
"2,2-diethoxypropane",275.15,1.0,CCOC(C)(C)OCC,le15
1-fluorooctane,337.25,1.0,CCCCCCCCF,le15
"Urea, 1,3-diethyl-2-thio-",329.35,1.0,CCNC(=S)NCC,le15
"Urea, 1-butyl-2-thio-",349.25,1.0,CCCCNC(N)=S,le15
"Acetic acid, (trimethylsilyl)-",334.65,1.0,C[Si](C)(C)CC(=O)O,le15
"Urea, 1,1,3,3-tetramethyl-2-thio-",463.15,1.0,CN(C)C(=S)N(C)C,le15
triethyl(hydroxy)silane,330.372,1.0,CC[Si](O)(CC)CC,le15
3-trimethylsilylpropan-1-ol,325.95,1.0,C[Si](C)(C)CCCO,le15
"3-chlorofuran-2,5-dione",368.65,1.0,O=C1C=C(Cl)C(=O)O1,le15
"2,4,6-Trifluoropyridine",300.65,1.0,Fc1cc(F)nc(F)c1,le15
"2-methyl-1,3-benzoxazole",348.15,1.0,Cc1nc2ccccc2o1,le15
"2,3-dihydroisoindol-1-one",493.35,1.0,O=C1NCc2ccccc21,le15
"Isocyanic acid, p-tolyl ester (7CI,8CI)",337.0499999999999,1.0,Cc1ccc(N=C=O)cc1,le15
p-Cyanobenzyl alcohol,406.75,1.0,N#Cc1ccc(CO)cc1,le15
m-Anisonitrile (8CI),378.15,1.0,COc1cccc(C#N)c1,le15
"Benzeneacetonitrile, 4-hydroxy- (9CI)",410.35,1.0,N#CCc1ccc(O)cc1,le15
"Isocyanic acid, o-tolyl ester (7CI,8CI)",365.15,1.0,Cc1ccccc1N=C=O,le15
p-Anisonitrile (8CI),529.65,1.0,COc1ccc(C#N)cc1,le15
1H-Indol-5-ol (9CI),434.55,1.0,Oc1ccc2[nH]ccc2c1,le15
2-methoxybenzonitrile,376.55,1.0,COc1ccccc1C#N,le15
"1H-Benzotriazole, 5-methyl-",410.55,1.0,Cc1ccc2[nH]nnc2c1,le15
pentyl nitrate,329.95,1.0,CCCCCO[N+](=O)[O-],le15
"Propanamide, 2-hydroxy-N-(2-hydroxyethyl)-",456.95,1.0,CC(O)C(=O)NCCO,le15
1-methylbenzotriazole,390.55,1.0,Cn1nnc2ccccc21,le15
1H-Benzimidazol-2-amine,477.75,1.0,Nc1nc2ccccc2[nH]1,le15
3-Nitropentan-2-ol,363.75,1.0,CCC(C(C)O)[N+](=O)[O-],le15
"Acetamide, 2-fluoro-N-isobutyl-",367.65,1.0,CC(C)CNC(=O)CF,le15
4-Thiazolidinecarboxylic acid,438.85,1.0,O=C(O)C1CSCN1,le15
"4-Thiazolidinone, 2-thioxo-",358.85,1.0,O=C1CSC(=S)N1,le15
"Benzenamine, N-2-propenyl-",362.55,1.0,C=CCNc1ccccc1,le15
"1,2,3,4-tetrahydroquinoline",373.75,1.0,c1ccc2c(c1)CCCN2,le15
"Pyridine, 2-ethenyl-5-ethyl- (9CI)",349.35,1.0,C=Cc1ccc(CC)cn1,le15
"5,6,7,8-tetrahydroquinoline",359.261,1.0,c1cnc2c(c1)CCCC2,le15
"2,3-dihydro-1H-inden-5-amine",383.15,1.0,Nc1ccc2c(c1)CCC2,le15
"Isoquinoline, 1,2,3,4-tetrahydro-",372.05,1.0,c1ccc2c(c1)CCNC2,le15
"5,6,7,8-tetrahydroisoquinoline",373.15,1.0,c1cc2c(cn1)CCCC2,le15
"Ethanol, 2,2'-(ethylimino)bis-",397.05,1.0,CCN(CCO)CCO,le15
"2,2-diethoxyethanamine",318.15,1.0,CCOC(CN)OCC,le15
"Ethanol, 2-(2-(dimethylamino)ethoxy)-",344.75,1.0,CN(C)CCOCCO,le15
"1,3,4-Thiadiazole-2(3H)-thione, 5-amino-",373.45,1.0,Nc1n[nH]c(=S)s1,le15
"Propionaldehyde, 2-methyl-2-(methylthio)-, oxime",354.25,1.0,CSC(C)(C)C=NO,le15
"1-chloropyrrolidine-2,5-dione",348.25,1.0,O=C1CCC(=O)N1Cl,le15
"2,4,6-trifluoropyrimidine",308.85,1.0,Fc1cc(F)nc(F)n1,le15
"Acetic acid, 2,2'-oxybis-",474.85,1.0,O=C(O)COCC(=O)O,le15
"Formic acid, oxydi-, dimethyl ester (7CI,8CI)",353.15,1.0,COC(=O)OC(=O)OC,le15
2-hydroxybutanedioic acid,426.55,1.0,O=C(O)CC(O)C(=O)O,le15
"2,2-dinitropropane",348.35,1.0,CC(C)([N+](=O)[O-])[N+](=O)[O-],le15
3H-1-benzofuran-2-one,370.05,1.0,O=C1Cc2ccccc2O1,le15
"1,3-Benzenedicarboxaldehyde (9CI)",367.25,1.0,O=Cc1cccc(C=O)c1,le15
"1,2-Benzenedicarboxaldehyde",371.65,1.0,O=Cc1ccccc1C=O,le15
"Benzeneacetaldehyde, alpha-oxo- (9CI)",342.95,1.0,O=CC(=O)c1ccccc1,le15
3H-2-benzofuran-1-one,425.15,1.0,O=C1OCc2ccccc21,le15
"Benzoxazole, 2-amino-",395.05,1.0,Nc1nc2ccccc2o1,le15
"Ethanol, 2,2'-(nitrosoimino)bis-",454.25,1.0,O=NN(CCO)CCO,le15
1-phenylpropan-2-one,360.65,1.0,CC(=O)Cc1ccccc1,le15
2-(4-methylphenyl)acetaldehyde,375.25,1.0,Cc1ccc(CC=O)cc1,le15
3-Phenylpropionaldehyde,368.15,1.0,O=CCCc1ccccc1,le15
"2-Propen-1-ol, 3-phenyl-",397.912,1.0,OCC=Cc1ccccc1,le15
"Phenol, p-allyl- (8CI)",375.75,1.0,C=CCc1ccc(O)cc1,le15
1-ethenyl-2-methoxybenzene,343.75,1.0,C=Cc1ccccc1OC,le15
"Benzene, 1-ethenyl-4-methoxy- (9CI)",350.865,1.0,C=Cc1ccc(OC)cc1,le15
"1H-Inden-5-ol, 2,3-dihydro-",383.15,1.0,Oc1ccc2c(c1)CCC2,le15
"3a,7a-Epoxy-1H-indene, 2,3-dihydro-",361.75,1.0,C1=CC23CCCC2(C=C1)O3,le15
"Phenol, 2-(2-propenyl)-",361.15,1.0,C=CCc1ccccc1O,le15
"2-methyl-2,3-dihydro-1-benzofuran",338.35,1.0,CC1Cc2ccccc2O1,le15
prop-2-enoxybenzene,335.95,1.0,C=CCOc1ccccc1,le15
[(E)-2-methoxyethenyl]benzene,350.45,1.0,CO/C=C/c1ccccc1,le15
"Benzaldehyde, 4-ethyl-",365.35,1.0,CCc1ccc(C=O)cc1,le15
"2,3-dihydro-1H-inden-1-ol",418.15,1.0,OC1CCc2ccccc21,le15
2-(2-methylphenyl)acetaldehyde,377.75,1.0,Cc1ccccc1CC=O,le15
"Benzeneacetaldehyde, alpha-methyl-",349.261,1.0,CC(C=O)c1ccccc1,le15
"1-Propanone, 1-phenyl-",360.54,1.0,CCC(=O)c1ccccc1,le15
"Oxirane, (phenylmethyl)- (9CI)",354.85,1.0,c1ccc(CC2CO2)cc1,le15
"2,5-dimethylbenzaldehyde",360.15,1.0,Cc1ccc(C)c(C=O)c1,le15
"1,3-Propanediol, 2-ethyl-2-(hydroxymethyl)-",420.85,1.0,CCC(CO)(CO)CO,le15
"1,2,6-Hexanetriol",438.65,1.0,OCCCCC(O)CO,le15
"2-Propanol, 1,1'-oxybis-",410.95,1.0,CC(O)COCC(C)O,le15
"Ethanol, 2-(2-ethoxyethoxy)-",369.25,1.0,CCOCCOCCO,le15
"Ethane, 1,1'-oxybis(2-methoxy-",343.15,1.0,COCCOCCOC,le15
"1,2,3,4-tetrahydroquinoxaline",449.25,1.0,c1ccc2c(c1)NCCN2,le15
"1,2,3-trimethoxypropane",315.85,1.0,COCC(COC)OC,le15
1-benzothiophene,335.15,1.0,c1ccc2sccc2c1,le15
Benzo(b)thiophene,335.15,1.0,c1ccc2sccc2c1,le15
"Thiophene, tetrahydro-3-methyl-, 1,1-dioxide",427.55,1.0,CC1CCS(=O)(=O)C1,le15
"Benzene, 1,2,4,5-tetramethyl-",347.04999999999984,1.0,Cc1cc(C)c(C)cc1C,le15
"Benzene, (1,1-dimethylethyl)-",307.5499999999999,1.0,CC(C)(C)c1ccccc1,le15
"Benzene, 1,4-diethyl-",329.85,1.0,CCc1ccc(CC)cc1,le15
"Benzene, (1-methylpropyl)-",325.15,1.0,CCC(C)c1ccccc1,le15
"Benzene, 1-methyl-2-(1-methylethyl)-",323.15,1.0,Cc1ccccc1C(C)C,le15
2-methylpropylbenzene,323.0499999999999,1.0,CC(C)Cc1ccccc1,le15
1-methyl-4-propylbenzene,329.45,1.0,CCCc1ccc(C)cc1,le15
"Benzene, 1-methyl-4-(1-methylethyl)-",320.35,1.0,Cc1ccc(C(C)C)cc1,le15
Butylbenzene,322.0,1.0,CCCCc1ccccc1,le15
Propyl sulfoxide (8CI),374.45,1.0,CCCS(=O)CCC,le15
triethyl(fluoro)silane,292.15,1.0,CC[Si](F)(CC)CC,le15
"2,4-Pentanedione, 3-chloro-",285.35,1.0,CC(=O)C(Cl)C(C)=O,le15
Hexanoyl chloride,352.15,1.0,CCCCCC(=O)Cl,le15
"Oxetane, 3-(chloromethyl)-3-ethyl-",322.5499999999999,1.0,CCC1(CCl)COC1,le15
2-ethylbutanoyl chloride,314.25,1.0,CCC(CC)C(=O)Cl,le15
"3,3-dimethylbutanoyl chloride",303.35,1.0,CC(C)(C)CC(=O)Cl,le15
"2-Butanone, 1-chloro-3,3-dimethyl-",340.15,1.0,CC(C)(C)C(=O)CCl,le15
"2,2-dimethylbutanoyl chloride",303.35,1.0,CCC(C)(C)C(=O)Cl,le15
3-chloroheptane,312.35,1.0,CCCCC(Cl)CC,le15
1-chloroheptane,314.15,1.0,CCCCCCCCl,le15
1chloroheptane,314.0,1.0,CCCCCCCCl,le15
chloro-dimethyl-prop-2-enylsilane,278.75,1.0,C=CC[Si](C)(C)Cl,le15
(Z)-2-bromobut-2-ene,284.25,1.0,C/C=C(/C)Br,le15
4-bromobut-1-ene,282.5499999999999,1.0,C=CCCBr,le15
(E)-2-bromobut-2-ene,274.25,1.0,C/C=C(\C)Br,le15
2-bromobut-1-ene,284.75,1.0,C=C(Br)CC,le15
(E)-1-bromobut-1-ene,287.65,1.0,CC/C=C/Br,le15
4bromo1butene,282.0,1.0,C=CCCBr,le15
"2,4,6-trifluoro-1,3,5-triazine",418.15,1.0,Fc1nc(F)nc(F)n1,le15
2(3H)-Benzoxazolone,433.15,1.0,O=c1[nH]c2ccccc2o1,le15
"1H-Benzotriazole, 1-hydroxy-, hydrate",435.35,1.0,O.On1nnc2ccccc21,le15
1H-Purin-2-amine,636.05,1.0,Nc1nc2ncnc-2c[nH]1,le15
1H-Purin-6-amine,595.8599999999999,1.0,Nc1[nH]cnc2ncnc1-2,le15
2-(2-fluorophenyl)acetonitrile,316.15,1.0,N#CCc1ccccc1F,le15
"1H-Pyrazolo(3,4-d)pyrimidine, 4-amino-",517.55,1.0,Nc1ncnc2[nH]ncc12,le15
N-(2-methylphenyl)formamide,436.95,1.0,Cc1ccccc1NC=O,le15
"Ethanone, 1-(3-aminophenyl)-",354.54999999999984,1.0,CC(=O)c1cccc(N)c1,le15
"Acetophenone, 4'-amino- (8CI)",367.45,1.0,CC(=O)c1ccc(N)cc1,le15
2-amino-1-phenylethanone,376.55,1.0,NCC(=O)c1ccccc1,le15
(NE)-N-(1-phenylethylidene)hydroxylamine,411.25,1.0,C/C(=N\O)c1ccccc1,le15
N-methyl-N-phenylformamide,399.15,1.0,CN(C=O)c1ccccc1,le15
"Benzamide, 2-methyl-",380.75,1.0,Cc1ccccc1C(N)=O,le15