compound,flashpoint,pure substance,smiles,source
"2-Imidazolidinone, 1,3-dimethyl-",349.65,1.0,CN1CCN(C)C1=O,le15
"Piperidine, 1-nitroso-",365.95,1.0,O=NN1CCCCC1,le15
furan-2-ylmethanethiol,318.15,1.0,SCc1ccco1,le15
thiophen-2-ylmethanol,349.85,1.0,OCc1cccs1,le15
"2H-Imidazole-2-thione, 1,3-dihydro-1-methyl-",320.5499999999999,1.0,Cn1cc[nH]c1=S,le15
"2,5-dimethyl-1,3,4-thiadiazole",354.35,1.0,Cc1nnc(C)s1,le15
cyclohexylmethanol,344.25,1.0,OCC1CCCCC1,le15
4-methylhexan-2-one,304.15,1.0,CCC(C)CC(C)=O,le15
"2-Hexanone, 5-methyl-",314.25,1.0,CC(=O)CCC(C)C,le15
"2,2-dimethylpentan-3-one",295.5499999999999,1.0,CCC(=O)C(C)(C)C,le15
"4,4-dimethylpentan-2-one",292.0499999999999,1.0,CC(=O)CC(C)(C)C,le15
2-cyclopentylethanol,343.5499999999999,1.0,OCCC1CCCC1,le15
2-methylhexanal,305.75,1.0,CCCCC(C)C=O,le15
methoxycyclohexane,293.85,1.0,COC1CCCCC1,le15
3-methylhexan-2-one,304.15,1.0,CCCC(C)C(C)=O,le15
"(1R,3S)-3-methylcyclohexan-1-ol",335.95,1.0,C[C@H]1CCC[C@@H](O)C1,le15
"3-Hexanone, 2-methyl-",297.0499999999999,1.0,CCCC(=O)C(C)C,le15
(1R)-3-methylcyclohexan-1-ol,335.95,1.0,CC1CCC[C@@H](O)C1,le15
"(1R,2S)-2-methylcyclohexan-1-ol",332.0499999999999,1.0,C[C@H]1CCCC[C@H]1O,le15
4-methylhexan-3-one,304.15,1.0,CCC(=O)C(C)CC,le15
3-methylhexanal,305.75,1.0,CCCC(C)CC=O,le15
"2-Hepten-1-ol, (E)- (8CI)(9CI)",341.65,1.0,CCCC/C=C/CO,le15
1-methylcyclohexan-1-ol,340.92800000000005,1.0,CC1(O)CCCCC1,le15
5-methylhexan-3-one,304.15,1.0,CCC(=O)CC(C)C,le15
hept-1-en-4-ol,329.5499999999999,1.0,C=CCC(O)CCC,le15
2methylcyclohexanol,331.0,1.0,CC1CCCCC1O,le15
3methylcyclohexanol,335.0,1.0,CC1CCCC(O)C1,le15
Cycloheptanol,344.0,1.0,OC1CCCCCC1,le15
Heptanal,314.0,1.0,CCCCCCC=O,le15
"Piperazine, 2,5-dimethyl-",331.45,1.0,CC1CNC(C)CN1,le15
piperidin-4-ylmethanamine,351.15,1.0,NCC1CCNCC1,le15
"1-Propene, 3,3'-thiobis-",319.25,1.0,C=CCSCC=C,le15
"3,3-dimethylhexane",282.45,1.0,CCCC(C)(C)CC,le15
"2,2,3-trimethylpentane",281.85,1.0,CCC(C)C(C)(C)C,le15
"3,4-dimethylhexane",304.75,1.0,CCC(C)C(C)CC,le15
4-methylheptane,279.85,1.0,CCCC(C)CCC,le15
"2,5-dimethylhexane",299.85,1.0,CC(C)CCC(C)C,le15
"2,2,3,3-tetramethylbutane",277.54999999999995,1.0,CC(C)(C)C(C)(C)C,le15
Octane,286.15,1.0,CCCCCCCC,le15
"2,3,3-trimethylpentane",284.5499999999999,1.0,CCC(C)(C)C(C)C,le15
"2,3,4-trimethylpentane",278.15,1.0,CC(C)C(C)C(C)C,le15
3-ethyl-3-methylpentane,286.25,1.0,CCC(C)(CC)CC,le15
2methylheptane,277.0,1.0,CCCCCC(C)C,le15
3ethylhexane,279.0,1.0,CCCC(CC)CC,le15
3methylheptane,280.0,1.0,CCCCC(C)CC,le15
Isooctane,261.0,1.0,CC(C)CC(C)(C)C,le15
trimethyl(prop-2-enyl)silane,280.35,1.0,C=CC[Si](C)(C)C,le15
2-chloropyrazine,330.15,1.0,Clc1cnccn1,le15
Methanesulphonyl chloride,315.35,1.0,CS(=O)(=O)Cl,le15
"Ether, bis(chloromethyl)",348.04999999999984,1.0,ClCOCCl,le15
"Ethanol, 2,2-dichloro-",351.45,1.0,OCC(Cl)Cl,le15
Carbonothioic dichloride,335.15,1.0,S=C(Cl)Cl,le15
"Silane, dichloromethyl-",240.95,1.0,[SiH3]C(Cl)Cl,le15
"Pyridine, 2,6-difluoro-",307.0499999999999,1.0,Fc1cccc(F)n1,le15
"Succinimide, N-hydroxy- (8CI)",385.65,1.0,O=C1CCC(=O)N1O,le15
"Acrylamide, N-(hydroxymethyl)-2-methyl- (6CI,8CI)",412.15,1.0,C=C(C)C(=O)NCO,le15
N-acetyl-N-methylacetamide,339.65,1.0,CC(=O)N(C)C(C)=O,le15
"Piperazine, 1-nitroso-",386.95,1.0,O=NN1CCNCC1,le15
"3(2H)-Isothiazolone, 2-methyl-",337.45,1.0,Cn1sccc1=O,le15
1-methylpiperidin-4-ol,360.95,1.0,CN1CCC(O)CC1,le15
"Morpholine, 2,6-dimethyl-",317.5499999999999,1.0,CC1CNCC(C)O1,le15
Hexanamide,375.374,1.0,CCCCCC(N)=O,le15
"Acetamide, N,N-diethyl-",342.45,1.0,CCN(CC)C(C)=O,le15
N-butylacetamide,387.65,1.0,CCCCNC(C)=O,le15
"Ethylamine, N,N-dimethyl-2-(vinyloxy)- (6CI,7CI,8CI)",301.5499999999999,1.0,C=COCCN(C)C,le15
"Morpholine, 4-ethyl-",300.95,1.0,CCN1CCOCC1,le15
4-amino-4-methylpentan-2-one,329.35,1.0,CC(=O)CC(C)(C)N,le15
"Guanidine, 1,1,3,3-tetramethyl- (8CI)",333.15,1.0,CN(C)C(=N)N(C)C,le15
2-isothiocyanato-2-methylpropane,311.45,1.0,CC(C)(C)N=C=S,le15
"Isothiocyanic acid, butyl ester",339.25,1.0,CCCCN=C=S,le15
1-isothiocyanato-2-methylpropane,317.35,1.0,CC(C)CN=C=S,le15
butyl thiocyanate,338.0499999999999,1.0,CCCCSC#N,le15
"Silane, azidotrimethyl-",279.15,1.0,C[Si](C)(C)N=[N+]=[N-],le15
heptan-2-amine,327.15,1.0,CCCCCC(C)N,le15
"1-Butanamine, N,N,3-trimethyl-",283.15,1.0,CC(C)CCN(C)C,le15
"Propylamine, N-ethyl-1,2-dimethyl- (7CI)",278.75,1.0,CCNC(C)C(C)C,le15
heptan-4-amine,314.45,1.0,CCCC(N)CCC,le15
4-methylhexan-2-amine,302.0499999999999,1.0,CCC(C)CC(C)N,le15
1-Heptanamine,317.15,1.0,CCCCCCCN,le15
"Formamide, 1,1'-azobis-",399.15,1.0,NC(=O)N=NC(N)=O,le15
"Butanoic acid, 3-oxo-, methyl ester",334.75,1.0,COC(=O)CC(C)=O,le15
"Pentanoic acid, 4-oxo-",388.15,1.0,CC(=O)CCC(=O)O,le15
2-oxopropyl acetate,325.0499999999999,1.0,CC(=O)COC(C)=O,le15
"Pyruvic acid, ethyl ester (8CI)",318.15,1.0,CCOC(=O)C(C)=O,le15
"2-Propenoic acid, 2-hydroxyethyl ester",371.45,1.0,C=CC(=O)OCCO,le15
2-oxopentanoic acid,349.75,1.0,CCCC(=O)C(=O)O,le15
"1,3-Dioxolan-2-one, 4-ethyl-",401.55,1.0,CCC1COC(=O)O1,le15
3-methyl-2-oxobutanoic acid,344.15,1.0,CC(C)C(=O)C(=O)O,le15
"Morpholine, N-nitroso-",363.65,1.0,O=NN1CCOCC1,le15
"Hydrazine, 1,2-diacetyl- (8CI)",456.45,1.0,CC(=O)NNC(C)=O,le15
prop-1-ynylbenzene,335.372,1.0,CC#Cc1ccccc1,le15
1-ethynyl-4-methylbenzene,322.039,1.0,C#Cc1ccc(C)cc1,le15
1H-Indene,331.15,1.0,C1=Cc2ccccc2C1,le15
"Butanoic acid, 2-ethyl-",360.15,1.0,CCC(CC)C(=O)O,le15
"Pentanoic acid, 2-methyl-",364.15,1.0,CCCC(C)C(=O)O,le15
"Propanoic acid, 2-methyl-, ethyl ester",286.15,1.0,CCOC(=O)C(C)C,le15
"2H-Pyran-2-methanol, tetrahydro-",366.45,1.0,OCC1CCCCO1,le15
"Pentanoic acid, 3-methyl-",361.55,1.0,CCC(C)CC(=O)O,le15
"Acetic acid, 1-methylpropyl ester",289.25,1.0,CCC(C)OC(C)=O,le15
"Butanoic acid, ethyl ester",292.594,1.0,CCCC(=O)OCC,le15
"Propanoic acid, propyl ester",297.5499999999999,1.0,CCCOC(=O)CC,le15
"Acetic acid, 2-methylpropyl ester",294.85,1.0,CC(=O)OCC(C)C,le15
"1-Butanol, 3-methyl-, formate",295.45,1.0,CC(C)CCOC=O,le15
"2-Pentanone, 4-hydroxy-4-methyl-",331.15,1.0,CC(=O)CC(C)(C)O,le15
"1,3-Dioxolane, 2-ethyl-2-methyl-",286.15,1.0,CCC1(C)OCCO1,le15
"Acetic acid, 1,1-dimethylethyl ester",284.15,1.0,CC(=O)OC(C)(C)C,le15
methyl 3-methylbutanoate,292.5499999999999,1.0,COC(=O)CC(C)C,le15
"2,2-dimethylbutanoic acid",352.54999999999984,1.0,CCC(C)(C)C(=O)O,le15
"Pentanoic acid, methyl ester",295.35,1.0,CCCCC(=O)OC,le15
propan-2-yl propanoate,292.5499999999999,1.0,CCC(=O)OC(C)C,le15
"3,3-dimethylbutanoic acid",353.75,1.0,CC(C)(C)CC(=O)O,le15
"Oxirane, ((1-methylethoxy)methyl)-",306.45,1.0,CC(C)OCC1CO1,le15
"2,3-dimethylbutanoic acid",356.54999999999984,1.0,CC(C)C(C)C(=O)O,le15
2-(methoxymethyl)oxolane,306.45,1.0,COCC1CCCO1,le15
6-hydroxyhexan-2-one,365.35,1.0,CC(=O)CCCCO,le15
"methyl 2,2-dimethylpropanoate",279.85,1.0,COC(=O)C(C)(C)C,le15
"Butanoic acid, 2-methyl-, methyl ester",292.5499999999999,1.0,CCC(C)C(=O)OC,le15
2ethylbutyricacid,360.0,1.0,CCC(CC)C(=O)O,le15
IsopropylGlycidylEther,306.0,1.0,CC(C)OCC1CO1,le15
Methylvalerate,295.0,1.0,CCCCC(=O)OC,le15
secButylacetate,289.0,1.0,CCC(C)OC(C)=O,le15
tertButylacetate,288.0,1.0,CC(=O)OC(C)(C)C,le15
"Urea, butyl-",335.45,1.0,CCCCNC(N)=O,le15
"1,3-diethylurea",394.25,1.0,CCNC(=O)NCC,le15
"Urea, 1,1,3,3-tetramethyl-",327.0499999999999,1.0,CN(C)C(=O)N(C)C,le15
"2-Tetrazene, 1,1,4,4-tetramethyl-",535.55,1.0,CN(C)N=NN(C)C,le15
4-Heptanol,334.95,1.0,CCCC(O)CCC,le15
3-Heptanol,327.5499999999999,1.0,CCCCC(O)CC,le15
"2,3,3-trimethylbutan-2-ol",306.75,1.0,CC(C)(C)C(C)(C)O,le15
"2,3-dimethylpentan-3-ol",313.75,1.0,CCC(C)(O)C(C)C,le15
3-ethylpentan-3-ol,313.15,1.0,CCC(O)(CC)CC,le15
3-methylhexan-3-ol,322.5499999999999,1.0,CCCC(C)(O)CC,le15
2-methylhexan-3-ol,313.706,1.0,CCCC(O)C(C)C,le15
2-ethoxy-2-methylbutane,278.15,1.0,CCOC(C)(C)CC,le15
1-propan-2-yloxybutane,280.45,1.0,CCCCOC(C)C,le15
1-propoxybutane,288.75,1.0,CCCCOCCC,le15
"2,2-dimethylpentan-3-ol",311.45,1.0,CCC(O)C(C)(C)C,le15
1-methoxyhexane,294.15,1.0,CCCCCCOC,le15
2-methyl-1-propoxypropane,282.15,1.0,CCCOCC(C)C,le15
1-ethoxypentane,289.5499999999999,1.0,CCCCCOCC,le15
"3-Pentanol, 2,4-dimethyl-",310.15,1.0,CC(C)C(O)C(C)C,le15
2-methylhexan-1-ol,334.95,1.0,CCCCC(C)CO,le15
2heptanol,344.0,1.0,CCCCCC(C)O,le15
"1,2-Ethanediamine, N,N-diethyl-",303.75,1.0,CCN(CC)CCN,le15
"N-ethyl-N',N'-dimethylethane-1,2-diamine",297.0499999999999,1.0,CCNCCN(C)C,le15
Hexamethylenediamine,367.15,1.0,NCCCCCCN,le15
"Hydrazine, 1,1-bis(1-methylethyl)- (9CI)",303.45,1.0,CC(C)N(N)C(C)C,le15
thiepane,324.85,1.0,C1CCCSCC1,le15
Cyclohexanethiol,316.0,1.0,SC1CCCCC1,le15
"1-chloro-1,2,2-trifluoroethene",245.15,1.0,FC(F)=C(F)Cl,le15
"Benzonitrile, 4-methyl-",358.786,1.0,Cc1ccc(C#N)cc1,le15
"Acetonitrile, phenyl-",374.15,1.0,N#CCc1ccccc1,le15
1H-Indole,380.98900000000003,1.0,c1ccc2[nH]ccc2c1,le15
"Benzonitrile, 2-methyl-",358.15,1.0,Cc1ccccc1C#N,le15
"Benzonitrile, 3-methyl-",359.85,1.0,Cc1cccc(C#N)c1,le15
Benzylcyanide,374.0,1.0,N#CCc1ccccc1,le15
"Nitrous acid, 3-methylbutyl ester",283.15,1.0,CC(C)CCON=O,le15
"Nitrous acid, pentyl ester",282.0499999999999,1.0,CCCCCON=O,le15
Valine,356.158,1.0,CC(C)[C@H](N)C(=O)O,le15
"Pentane, 3-nitro-",319.25,1.0,CCC(CC)[N+](=O)[O-],le15
"Carbamic acid, butyl ester",381.15,1.0,CCCCOC(N)=O,le15
ethyl N-ethylcarbamate,348.75,1.0,CCNC(=O)OCC,le15
"Butanoic acid, 4-(methylamino)-",370.45,1.0,CNCCCC(=O)O,le15
"Ethanol, 2-(diethylamino)-",322.0499999999999,1.0,CCN(CC)CCO,le15
"Ethanol, 2-(butylamino)-",352.45,1.0,CCCCNCCO,le15
"1-Hexanol, 6-amino- (8CI)(9CI)",346.65,1.0,NCCCCCCO,le15
"Ethanol, 2-((1,1-dimethylethyl)amino)-",342.0499999999999,1.0,CC(C)(C)NCCO,le15
"1-Hexanol, 2-amino-",373.15,1.0,CCCCC(N)CO,le15
"1-Pentanol, 2-amino-4-methyl-, (S)-",363.75,1.0,CC(C)C[C@H](N)CO,le15
2-(2-methylpropylamino)ethanol,345.25,1.0,CC(C)CNCCO,le15
N-methyl-N-trimethylsilylmethanamine,254.15,1.0,CN(C)[Si](C)(C)C,le15
"Pentanenitrile, 5-chloro-",371.45,1.0,N#CCCCCCl,le15
"Propanedioic acid, oxo- (9CI)",486.15,1.0,O=C(O)C(=O)C(=O)O,le15
Butanedioic acid,384.05,1.0,O=C(O)CCC(=O)O,le15
dimethyl oxalate,348.15,1.0,COC(=O)C(=O)OC,le15
"Ethylene glycol, diformate",359.35,1.0,O=COCCOC=O,le15
"Glycine, N-carbamoyl- (7CI,8CI)",424.65,1.0,NC(=O)NCC(=O)O,le15
"Propane, 2-nitro-2-nitroso-",309.25,1.0,CC(C)(N=O)[N+](=O)[O-],le15
"Guanidine, N-methyl-N'-nitro- (9CI)",378.55,1.0,CNC(=N)N[N+](=O)[O-],le15
Benzofuran,329.0,1.0,c1ccc2occc2c1,le15
1H-Benzimidazole,481.589,1.0,c1ccc2[nH]cnc2c1,le15
"Propanoic acid, 2-hydroxy-, ethyl ester",327.75,1.0,CCOC(=O)C(C)O,le15
"Carbonic acid, diethyl ester",304.25,1.0,CCOC(=O)OCC,le15
"Propanoic acid, 2-hydroxy-, ethyl ester, (2S)-",319.15,1.0,CCOC(=O)[C@H](C)O,le15
2-aminobenzonitrile,395.35,1.0,N#Cc1ccccc1N,le15
methyl 2-hydroxy-2-methylpropanoate,309.95,1.0,COC(=O)C(C)(C)O,le15
"Benzonitrile, 3-amino- (9CI)",385.15,1.0,N#Cc1cccc(N)c1,le15
methyl 3-methoxypropanoate,320.15,1.0,COCCC(=O)OC,le15
ethyl 2-methoxyacetate,319.25,1.0,CCOC(=O)COC,le15
"Ethanol, 2-methoxy-, acetate",317.0499999999999,1.0,COCCOC(C)=O,le15
1H-indazole,401.65,1.0,c1ccc2[nH]ncc2c1,le15
"Benzonitrile, p-amino- (8CI)",400.25,1.0,N#Cc1ccc(N)cc1,le15
DiethylCarbonate,298.0,1.0,CCOC(=O)OCC,le15
"Ethene, 1,1'-sulfonylbis-",375.15,1.0,C=CS(=O)(=O)C=C,le15
"Thiophene, 2,5-dihydro-, 1,1-dioxide",385.15,1.0,O=S1(=O)CC=CC1,le15
triethylphosphane,255.95,1.0,CCP(CC)CC,le15
"Acetamide, N-(aminothioxomethyl)-",353.15,1.0,CC(=O)NC(N)=S,le15
"Benzene, (1-methylethenyl)-",318.706,1.0,C=C(C)c1ccccc1,le15
1-ethenyl-3-methylbenzene,320.5499999999999,1.0,C=Cc1cccc(C)c1,le15
"Benzene, 2-propenyl-",306.45,1.0,CC=Cc1ccccc1,le15
"1H-Indene, 2,3-dihydro-",323.15,1.0,c1ccc2c(c1)CCC2,le15
"Benzene, 1-ethenyl-4-methyl-",321.85,1.0,C=Cc1ccc(C)cc1,le15
cyclopropylbenzene,317.0499999999999,1.0,c1ccc(C2CC2)cc1,le15
"Benzene, 1-propenyl-, (Z)-",322.5499999999999,1.0,C/C=C\c1ccccc1,le15
3methylstyrene,324.0,1.0,C=Cc1cccc(C)c1,le15
4methylstyrene,318.0,1.0,C=Cc1ccc(C)cc1,le15
"2,3-dimethylbutane-2,3-diol",350.35,1.0,CC(C)(O)C(C)(C)O,le15
"2-ethyl-2-methylpropane-1,3-diol",369.25,1.0,CCC(C)(CO)CO,le15
"2,4-Pentanediol, 2-methyl-",367.05,1.0,CC(O)CC(C)(C)O,le15
"1-Propanol, 3-(1-methylethoxy)- (9CI)",328.35,1.0,CC(C)OCCCO,le15
"1-Butanol, 4-ethoxy-",330.0499999999999,1.0,CCOCCCCO,le15
"Ethanol, 2-butoxy-",333.15,1.0,CCCCOCCO,le15
"1,3-Pentanediol, 2-methyl-",381.65,1.0,CCC(O)C(C)CO,le15
"Ethane, 1,2-diethoxy-",293.75,1.0,CCOCCOCC,le15
"2-Propanol, 1-propoxy-",321.15,1.0,CCCOCC(C)O,le15
"Ethanol, 2-(2-methylpropoxy)-",323.5499999999999,1.0,CC(C)COCCO,le15
"3-methylpentane-2,4-diol",364.45,1.0,CC(O)C(C)C(C)O,le15
"1,2-Hexanediol",395.15,1.0,CCCCC(O)CO,le15
"1,3-Butanediol, 2,2-dimethyl-",360.75,1.0,CC(O)C(C)(C)CO,le15
"2,4-Hexanediol",374.15,1.0,CCC(O)CC(C)O,le15
1-propan-2-yloxypropan-2-ol,321.35,1.0,CC(O)COC(C)C,le15
"Ethanol, 2-sec-butoxy-",323.35,1.0,CCC(C)OCCO,le15
"Sulfide, methylvinyloxyethyl-",319.0499999999999,1.0,CC=COCCSCCOC=CC,le15
1fluoroheptane,286.0,1.0,CCCCCCCF,le15
1-Hexanethiol,303.15,1.0,CCCCCCS,le15
Propyl sulfide (8CI),301.45,1.0,CCCSCCC,le15
2-propan-2-ylsulfanylpropane,280.15,1.0,CC(C)SC(C)C,le15
1-propan-2-ylsulfanylpropane,296.15,1.0,CCCSC(C)C,le15
1-methylsulfanylpentane,312.85,1.0,CCCCCSC,le15
ethoxy(trimethyl)silane,255.15,1.0,CCO[Si](C)(C)C,le15
3-methylbut-2-enoyl chloride,324.15,1.0,CC(C)=CC(=O)Cl,le15
2-chlorothiophene,295.15,1.0,Clc1cccs1,le15
"Cyclohexane, chloro-",301.15,1.0,ClC1CCCCC1,le15
"1-Propyne, 3-bromo-",290.25,1.0,C#CCBr,le15
"Propanoic acid, 3-nitro- (9CI)",421.55,1.0,O=C(O)CC[N+](=O)[O-],le15
"Acetic acid, nitro-, methyl ester",378.15,1.0,COC(=O)C[N+](=O)[O-],le15
"2,1-benzoxazole",367.05,1.0,c1ccc2nocc2c1,le15
"1,3-benzoxazole",338.45,1.0,c1ccc2ocnc2c1,le15
"Benzonitrile, 4-hydroxy-",397.05,1.0,N#Cc1ccc(O)cc1,le15
"Benzonitrile, 3-hydroxy-",380.75,1.0,N#Cc1cccc(O)c1,le15
(E)-3-(furan-2-yl)prop-2-enenitrile,360.35,1.0,N#C/C=C/c1ccco1,le15
1H-Benzotriazole,407.05,1.0,c1ccc2[nH]nnc2c1,le15
2-methylpropyl nitrate,314.0499999999999,1.0,CC(C)CO[N+](=O)[O-],le15
butan-2-yl nitrate,314.0499999999999,1.0,CCC(C)O[N+](=O)[O-],le15
"Ethanol, 2-methoxy-, carbamate",404.15,1.0,COCCOC(N)=O,le15
"Hydrazinecarbothioamide, 1-formyl- (9CI)",364.65,1.0,NC(=S)N(N)C=O,le15
"Pyridine, 5-ethenyl-2-methyl-",329.75,1.0,C=Cc1ccc(C)nc1,le15
"2,3-dihydro-1H-indole",365.95,1.0,c1ccc2c(c1)CCN2,le15
N-methyl-1-phenylmethanimine,386.15,1.0,CN=Cc1ccccc1,le15
"Benzenamine, 4-ethenyl-",381.75,1.0,C=Cc1ccc(N)cc1,le15
"Ethanol, 2,2'-(methylimino)bis-",399.85,1.0,CN(CCO)CCO,le15
"2,2-dimethoxy-N-methylethanamine",302.5499999999999,1.0,CNCC(OC)OC,le15
MethylDiethanolAmine,411.0,1.0,CN(CCO)CCO,le15
2-Thiazolidinethione,341.25,1.0,S=C1NCCS1,le15
"Acetonitrile, bromo-",297.45,1.0,N#CCBr,le15
trimethylarsane,373.15,1.0,C[As](C)C,le15
"1,1-dinitroethane",352.15,1.0,CC([N+](=O)[O-])[N+](=O)[O-],le15
"Urea, 1,3-bis(hydroxymethyl)- (8CI)",505.45,1.0,O=C(NCO)NCO,le15
"Benzene, (epoxyethyl)-",352.54999999999984,1.0,c1ccc(C2CO2)cc1,le15
"Acetaldehyde, phenyl- (8CI)",362.35,1.0,O=CCc1ccccc1,le15
"Isobenzofuran, 1,3-dihydro-",336.15,1.0,c1ccc2c(c1)COC2,le15
"Benzofuran, 2,3-dihydro-",339.15,1.0,c1ccc2c(c1)CCO2,le15
o-Tolualdehyde (8CI),352.65,1.0,Cc1ccccc1C=O,le15
"Benzaldehyde, 3-methyl-",351.15,1.0,Cc1cccc(C=O)c1,le15
4-ethenylphenol,365.45,1.0,C=Cc1ccc(O)cc1,le15
"Ethanone, 1-phenyl-",354.04999999999984,1.0,CC(=O)c1ccccc1,le15
"2-(hydroxymethyl)-2-methylpropane-1,3-diol",418.65,1.0,CC(CO)(CO)CO,le15
"Ethanol, 2-(2-methoxyethoxy)-",357.04999999999984,1.0,COCCOCCO,le15
"1,3-dimethoxypropan-2-ol",331.35,1.0,COCC(O)COC,le15
"1,1,1-trimethoxyethane",289.15,1.0,COC(C)(OC)OC,le15
"3-ethoxypropane-1,2-diol",372.65,1.0,CCOCC(O)CO,le15
"Thiophene, tetrahydro-, 1,1-dioxide",443.82800000000003,1.0,O=S1(=O)CCCC1,le15
"Acetic acid, mercapto-, ethyl ester",320.95,1.0,CCOC(=O)CS,le15
(Ethylsulphonyl)ethylene,382.15,1.0,C=CS(=O)(=O)CC,le15
methyl 3-sulfanylpropanoate,333.15,1.0,COC(=O)CCS,le15
"Benzene, (1-methylethyl)-",304.15,1.0,CC(C)c1ccccc1,le15
1-ethyl-2-methylbenzene,312.5499999999999,1.0,CCc1ccccc1C,le15
"Bicyclo(2.2.1)hept-2-ene, 5-ethenyl-",299.35,1.0,C=CC1CC2C=CC1C2,le15
"Bicyclo(2.2.1)hept-2-ene, 5-ethylidene-",311.45,1.0,CC=C1CC2C=CC1C2,le15
"1H-Indene, 3a,4,7,7a-tetrahydro-",306.95,1.0,C1=CCC2CC=CC2C1,le15
5ethylidene2norbornene,311.0,1.0,CC=C1CC2C=CC1C2,le15
mEthyltoluene,311.0,1.0,CCc1ccccc1,le15
Ethanedithioamide,379.35,1.0,NC(=S)C(N)=S,le15
"1,3-Dithiane",363.15,1.0,C1CSCSC1,le15
"1,4-Dithiane",355.25,1.0,C1CSCCS1,le15
"Carbonochloridic acid, 2-propenyl ester",361.15,1.0,C=CCOC(=O)Cl,le15
prop-1-en-2-yl carbonochloridate,289.25,1.0,C=C(C)OC(=O)Cl,le15
Pentanoyl chloride,305.95,1.0,CCCCC(=O)Cl,le15
"Oxetane, 3-(chloromethyl)-3-methyl-",316.0499999999999,1.0,CC1(CCl)COC1,le15
2-methylbutanoyl chloride,298.65,1.0,CCC(C)C(=O)Cl,le15
3-methylbutanoyl chloride,298.65,1.0,CC(C)CC(=O)Cl,le15
"2,2-dimethylpropanoyl chloride",282.0499999999999,1.0,CC(C)(C)C(=O)Cl,le15
1-chlorohexane,299.15,1.0,CCCCCCCl,le15
3-chloro-3-methylpentane,282.5499999999999,1.0,CCC(C)(Cl)CC,le15
3-chlorohexane,298.15,1.0,CCCC(Cl)CC,le15
"1-chloro-3,3-dimethylbutane",292.15,1.0,CC(C)(C)CCCl,le15
3-(chloromethyl)pentane,298.15,1.0,CCC(CC)CCl,le15
[(E)-2-chloroethenyl]-dimethylsilicon,269.15,1.0,C[Si](C)/C=C/Cl,le15
"Methane, dichlorodifluoro-",284.15,1.0,FC(F)(Cl)Cl,le15
2-bromoprop-1-ene,327.15,1.0,C=C(C)Br,le15
"1-Propene, 3-bromo-",272.15,1.0,C=CCBr,le15
"Peroxide, acetyl nitro",357.85,1.0,CC(=O)OO[N+](=O)[O-],le15
4-fluorobenzonitrile,338.75,1.0,N#Cc1ccc(F)cc1,le15
3-fluorobenzonitrile,340.15,1.0,N#Cc1cccc(F)c1,le15
"Ethanone, 1-(3-pyridinyl)-",377.15,1.0,CC(=O)c1cccnc1,le15
"Benzaldehyde, p-amino- (8CI)",395.141,1.0,Nc1ccc(C=O)cc1,le15
"Benzene, 1-methyl-2-nitroso- (9CI)",347.85,1.0,Cc1ccccc1N=O,le15
"Benzaldehyde, oxime, (Z)-",382.05,1.0,O/N=C\c1ccccc1,le15
"Ethanone, 1-(4-pyridinyl)-",360.15,1.0,CC(=O)c1ccncc1,le15
"Ethanone, 1-(2-pyridinyl)-",346.45,1.0,CC(=O)c1ccccn1,le15
"Formamide, N-phenyl-",423.35,1.0,O=CNc1ccccc1,le15
L-Cysteine,404.65,1.0,N[C@@H](CS)C(=O)O,le15
2-phenylethanamine,363.75,1.0,NCCc1ccccc1,le15
"Benzenamine, 2,3-dimethyl-",369.15,1.0,Cc1cccc(N)c1C,le15
"Benzenamine, 2,6-dimethyl-",364.15,1.0,Cc1cccc(C)c1N,le15
"Benzenemethanamine, 2-methyl-",357.04999999999984,1.0,Cc1ccccc1CN,le15
"Benzenamine, 2,4-dimethyl-",363.75,1.0,Cc1ccc(N)c(C)c1,le15
"Benzenamine, 2,5-dimethyl-",367.05,1.0,Cc1ccc(C)c(N)c1,le15
(3-methylphenyl)methanamine,353.75,1.0,Cc1cccc(CN)c1,le15
"Benzenamine, N-ethyl-",358.15,1.0,CCNc1ccccc1,le15
"Benzylamine, p-methyl- (8CI)",348.15,1.0,Cc1ccc(CN)cc1,le15
"Benzenamine, 3,5-dimethyl-",366.45,1.0,Cc1cc(C)cc(N)c1,le15
3-ethyl-4-methylpyridine,343.251,1.0,CCc1cnccc1C,le15
4-ethyl-2-methylpyridine,330.15,1.0,CCc1ccnc(C)c1,le15
"Aniline, o-ethyl- (8CI)",358.15,1.0,CCc1ccccc1N,le15
"o-Toluidine, N-methyl- (8CI)",349.54999999999984,1.0,CNc1ccccc1C,le15
"Benzenemethanamine, alpha-methyl-",348.95300000000015,1.0,CC(N)c1ccccc1,le15
"m-Toluidine, N-methyl- (8CI)",350.45,1.0,CNc1cccc(C)c1,le15
"2,4,5-trimethylpyridine",331.0499999999999,1.0,Cc1cc(C)c(C)cn1,le15
2-ethyl-6-methylpyridine,316.5499999999999,1.0,CCc1cccc(C)n1,le15
4-propylpyridine,337.66,1.0,CCCc1ccncc1,le15
"2,3,6-trimethylpyridine",320.75,1.0,Cc1ccc(C)c(C)n1,le15
"2,3,4-trimethylpyridine",335.0499999999999,1.0,Cc1ccnc(C)c1C,le15
"Benzenamine, 3,4-dimethyl-",371.45,1.0,Cc1ccc(N)cc1C,le15
N-methyl-1-phenylmethanamine,350.95,1.0,CNCc1ccccc1,le15
"Pyridine, 5-ethyl-2-methyl-",339.25,1.0,CCc1ccc(C)nc1,le15
"Benzenamine, 3-ethyl- (9CI)",358.15,1.0,CCc1cccc(N)c1,le15
"Aniline, p-ethyl- (8CI)",358.15,1.0,CCc1ccc(N)cc1,le15
"N,4-dimethylaniline",345.25,1.0,CNc1ccc(C)cc1,le15
2-propan-2-ylpyridine,296.35,1.0,CC(C)c1ccccn1,le15
"2,3,5-trimethylpyridine",315.95,1.0,Cc1cnc(C)c(C)c1,le15
"Benzaldehyde, 2-hydroxy-",349.85,1.0,O=Cc1ccccc1O,le15
"Benzaldehyde, 4-hydroxy-",374.45,1.0,O=Cc1ccc(O)cc1,le15
"Benzene, 1,2-methylenedioxy-",328.15,1.0,c1ccc2c(c1)OCO2,le15
"2,5-Cyclohexadiene-1,4-dione, 2-methyl-",338.0499999999999,1.0,CC1=CC(=O)C=CC1=O,le15
"Benzaldehyde, 3-hydroxy-",371.75,1.0,O=Cc1cccc(O)c1,le15
"2-Propenal, 3-(2-furanyl)-",361.95,1.0,O=CC=Cc1ccco1,le15