compound,flashpoint,pure substance,smiles,source
HexylDichloroSilane,337.15,1.0,CCCCCC[SiH](Cl)Cl,le15
HexylSilane,285.15,1.0,CCCCCC[SiH3],le15
HexylTrifluoroSilane-,266.15,1.0,CCCCCC[Si](F)(F)F,le15
HexylTrimethoxySilane,335.15,1.0,CCCCCC[Si](OC)(OC)OC,le15
hydroxyacetaldehyde,360.15,1.0,O=CCO,le15
Iodobenzene,347.15,1.0,Ic1ccccc1,le15
Isobutenal,273.0,1.0,C=C(C)C=O,le15
Isobutylacetate,291.15,1.0,CC(=O)OCC(C)C,le15
Isobutylalcohol,301.15,1.0,CC(C)CO,le15
Isobutylamine,264.15,1.0,CC(C)CN,le15
Isobutylbenzene,328.15,1.0,CC(C)Cc1ccccc1,le15
IsobutylButyrate,323.15,1.0,CCCC(=O)OCC(C)C,le15
Isobutylformate,283.0,1.0,CC(C)COC=O,le15
Isobutylisobutyrate,313.0,1.0,CC(C)COC(=O)C(C)C,le15
IsobutylTrichloroSilane,310.15,1.0,CC(C)C[Si](Cl)(Cl)Cl,le15
IsobutylTrimethoxySilane,315.15,1.0,CO[Si](CC(C)C)(OC)OC,le15
Isobutylvinylether,264.15,1.0,C=COCC(C)C,le15
Isobutyraldehyde,254.85,1.0,CC(C)C=O,le15
Isobutyricacid,328.75,1.0,CC(C)C(=O)O,le15
Isobutyronitrile,281.0,1.0,CC(C)C#N,le15
Isocyanatobenzene,324.15,1.0,O=C=Nc1ccccc1,le15
Isopentylacetate,298.15,1.0,CC(=O)OCCC(C)C,le15
Isopentylalcohol,316.15,1.0,CC(C)CCO,le15
Isopentylbutyrate,332.15,1.0,CCCC(=O)OCCC(C)C,le15
Isoprene,219.15,1.0,C=CC(=C)C,le15
IsopropenylAcetate,288.75,1.0,C=C(C)CC(=O)[O-],le15
Isopropylacetate,275.15,1.0,CC(=O)OC(C)C,le15
Isopropylamine,256.15,1.0,CC(C)N,le15
Isopropylbenzoate,372.05,1.0,CC(C)OC(=O)c1ccccc1,le15
Isopropylchloride,241.15,1.0,CC(C)Cl,le15
Isopropylether,244.0,1.0,CC(C)OC(C)C,le15
Isopropylformate,267.15,1.0,CC(C)OC=O,le15
IsopropylVinylether,241.15,1.0,C=COC(C)C,le15
IsovalericAcid,343.0,1.0,CC(C)CC(=O)O,le15
Mesitylene,317.0,1.0,Cc1cc(C)cc(C)c1,le15
Methacrolein,258.15,1.0,C=C(C)C=O,le15
MethacryloxymethylTrimethylSilane,318.15,1.0,C=C(C)C(=O)OC[Si](C)(C)C,le15
Methanol,284.15,1.0,CO,le15
Methoxybenzene,324.15,1.0,COc1ccccc1,le15
MethoxyTrimethylSilane-,243.15,1.0,CO[Si](C)(C)C,le15
Methyl2propenoat-,270.15,1.0,C=CC(=O)OC,le15
methylacetate,263.15,1.0,COC(C)=O,le15
Methylacrylate,279.15,1.0,C=CC(=O)OC,le15
Methylbenzene,277.15,1.0,Cc1ccccc1,le15
Methylbenzoate,356.15,1.0,COC(=O)c1ccccc1,le15
Methylbutyrate,287.15,1.0,CCCC(=O)OC,le15
methylcyclohexane,269.15,1.0,CC1CCCCC1,le15
MethyldichloroSilane-,241.15,1.0,C[SiH](Cl)Cl,le15
Methylformate,254.15,1.0,COC=O,le15
MethylIsocyanate,255.15,1.0,CN=C=O,le15
MethylIsopropenylKetone,286.0,1.0,C=C(C)C(C)=O,le15
Methylisothiocyanate,305.35,1.0,CN=C=S,le15
Methylpropionate,271.15,1.0,CCC(=O)OC,le15
methylpropylether,253.15,1.0,CCCOC,le15
Methylsalicylate,369.15,1.0,COc1ccccc1C(=O)[O-],le15
methylsecbutylether,243.0,1.0,CCC(C)OC,le15
MethylthioBenzene,342.15,1.0,CSc1ccccc1,le15
MethylTriacetoxySilane,358.15,1.0,CC(=O)O[Si](C)(OC(C)=O)OC(C)=O,le15
Methyltrichlorosilane,276.15,1.0,C[Si](Cl)(Cl)Cl,le15
MethylTriethoxySilane,297.15,1.0,CCO[Si](C)(OCC)OCC,le15
MethylVinylDimethoxySilane,277.15,1.0,CC=C[SiH](OC)OC,le15
Methylvinylketone,266.15,1.0,C=CC(C)=O,le15
Nitrobenzene,360.95,1.0,O=[N+]([O-])c1ccccc1,le15
Nitroethane,301.15,1.0,CC[N+](=O)[O-],le15
Nonadecane,439.15,1.0,CCCCCCCCCCCCCCCCCCC,le15
Nonane,304.15,1.0,CCCCCCCCC,le15
NonylAcetate,372.15,1.0,CCCCCCCCCOC(C)=O,le15
Nonylbenzene,372.15,1.0,CCCCCCCCCc1ccccc1,le15
Nonylphenol,413.75,1.0,CCCCCCCCCc1ccccc1O,le15
Octadecane,438.15,1.0,CCCCCCCCCCCCCCCCCC,le15
OctamethylCyclotetrasilazane,339.15,1.0,C[Si]1(C)N[Si](C)(C)N[Si](C)(C)N[Si](C)(C)N1,le15
OctamethylCyclotetrasiloxane,330.15,1.0,C[Si]1(C)O[Si](C)(C)O[Si](C)(C)O[Si](C)(C)O1,le15
OctamethylTrisiloxane,303.15,1.0,C[Si](C)(C)O[Si](C)(C)O[Si](C)(C)C,le15
Octane,288.15,1.0,CCCCCCCC,le15
OctanoicAcid,254.15,1.0,CCCCCCCC(=O)O,le15
Octanoylchloride,355.15,1.0,CCCCCCCC(=O)Cl,le15
OctylAcetate,359.15,1.0,CCCCCCCCOC(C)=O,le15
Pentadecane,405.15,1.0,CCCCCCCCCCCCCCC,le15
Pentane,224.15,1.0,CCCCC,le15
PentanoicAcid,361.15,1.0,CCCCC(=O)O,le15
PentylAcetate,297.0499999999999,1.0,CCCCCOC(C)=O,le15
Pentylbenzene,338.15,1.0,CCCCCc1ccccc1,le15
Pentylformate,299.85,1.0,CCCCCOC=O,le15
Pentylsalicylate,405.15,1.0,CCCCCOc1ccccc1C(=O)[O-],le15
PhenacylChloride,391.15,1.0,O=C(CCl)c1ccccc1,le15
PhenethylDimethylChloroSilane,343.15,1.0,C[Si](C)(Cl)CCc1ccccc1,le15
PhenethylMethylDichloroSilane,353.15,1.0,Cl[SiH](Cl)CCCc1ccccc1,le15
PhenethylTrichloroSilane,364.15,1.0,Cl[Si](Cl)(Cl)CCc1ccccc1,le15
Phenetole,335.95,1.0,CCOc1ccccc1,le15
Phenol,352.15,1.0,Oc1ccccc1,le15
PhenylAcetate,353.15,1.0,O=C([O-])Cc1ccccc1,le15
PhenylDichloroSilane,321.15,1.0,Cl[SiH](Cl)c1ccccc1,le15
PhenylDimethylAcetoxySilane,345.15,1.0,CC(C)C(=O)O[SiH2]c1ccccc1,le15
PhenylDimethylChloroSilane,334.15,1.0,C[Si](C)(Cl)c1ccccc1,le15
PhenylDimethylSilane,311.15,1.0,C[SiH](C)c1ccccc1,le15
PhenylEthylDichloroSilane,365.15,1.0,Cl[SiH](Cl)CCc1ccccc1,le15
PhenylIsothiocyanate,360.95,1.0,S=C=Nc1ccccc1,le15
Phenylmethanethiol,343.15,1.0,SCc1ccccc1,le15
PhenylmethylAcetate,363.15,1.0,CC(=O)OCc1ccccc1,le15
PhenylMethylChloroSilane,335.15,1.0,Cl[SiH2]Cc1ccccc1,le15
PhenylMethylDichloroSilane,355.15,1.0,Cl[SiH](Cl)Cc1ccccc1,le15
PhenylMethylDiethoxySilane,362.15,1.0,CCO[SiH](Cc1ccccc1)OCC,le15
PhenylMethylSilane,298.15,1.0,[SiH3]Cc1ccccc1,le15
PhenylSilane,281.15,1.0,[SiH3]c1ccccc1,le15
PhenylTrichloroSilane,364.15,1.0,Cl[Si](Cl)(Cl)c1ccccc1,le15
PhenylTriethoxySilane,369.15,1.0,CCO[Si](OCC)(OCC)c1ccccc1,le15
PhenylTrifluoroSilane-,283.15,1.0,F[Si](F)(F)c1ccccc1,le15
PhenylTrimethoxySilane,359.15,1.0,CO[Si](OC)(OC)c1ccccc1,le15
Piperidine,289.15,1.0,C1CCNCC1,le15
PropanoicAcid,324.15,1.0,CCC(=O)O,le15
PropargyloxytrimethylSilane,300.15,1.0,C#CCO[Si](C)(C)C,le15
Propionaldehyde,243.15,1.0,CCC=O,le15
Propionitrile,275.15,1.0,CCC#N,le15
Propionylchloride,285.15,1.0,CCC(=O)Cl,le15
Propyl2propenoat,293.15,1.0,C=CC(=O)OCCC,le15
Propylacetate,285.15,1.0,CCCOC(C)=O,le15
Propylbenzene,320.15,1.0,CCCc1ccccc1,le15
Propylbutyrate,310.15,1.0,CCCOC(=O)CCC,le15
Propylformate,270.15,1.0,CCCOC=O,le15
Propylnitrate,293.15,1.0,CCCO[N+](=O)[O-],le15
PropylTrisdimethylsiloxySilane,323.15,1.0,CCC[Si](O[SiH](C)C)(O[SiH](C)C)O[SiH](C)C,le15
Pyridine,293.15,1.0,c1ccncc1,le15
Pyrrolidine,275.95,1.0,C1CCNC1,le15
Quinoline,365.15,1.0,c1ccc2ncccc2c1,le15
Salicylaldehyde,350.95,1.0,O=Cc1ccccc1O,le15
secAmylTrichloroSilane,303.15,1.0,CCCC(C)[Si](Cl)(Cl)Cl,le15
secButylbenzene,325.15,1.0,CCC(C)c1ccccc1,le15
StearicAcid,469.0,1.0,CCCCCCCCCCCCCCCCCC(=O)O,le15
Styrene,305.15,1.0,C=Cc1ccccc1,le15
Succinonitrile,405.35,1.0,N#CCCC#N,le15
tertbutylbenzene,317.0,1.0,CC(C)(C)c1ccccc1,le15
tertbutylmethylether,245.0,1.0,COC(C)(C)C,le15
Tetradecane,373.15,1.0,CCCCCCCCCCCCCC,le15
TetraethoxySilane,323.15,1.0,CCO[Si](OCC)(OCC)OCC,le15
Tetrahydro2furanmethanol,343.15,1.0,OCC1CCCO1,le15
Tetrahydrofuran,259.15,1.0,C1CCOC1,le15
Tetrahydropyran,253.15,1.0,C1CCOCC1,le15
TetraisocyanatoSilane,323.15,1.0,O=C=N[Si](N=C=O)(N=C=O)N=C=O,le15
TetrakisDimethylsiloxySilane,340.15,1.0,C[SiH](C)O[Si](O[SiH](C)C)(O[SiH](C)C)O[SiH](C)C,le15
Tetralin,344.15,1.0,c1ccc2c(c1)CCCC2,le15
TetramethoxySilane,294.15,1.0,CO[Si](OC)(OC)OC,le15
TetramethylDiethoxySiloxane,311.15,1.0,CCO[Si]([O])OC(C)(C)C(C)C,le15
TetramethylDivinylDisiloxane,292.15,1.0,C=C[Si](C)(C=C)O[Si](C)(C)C,le15
TetramethylSilane-,245.15,1.0,C[Si](C)(C)C,le15
TetravinylSilane,291.15,1.0,C=C[Si](C=C)(C=C)C=C,le15
Thiophene,272.04999999999995,1.0,c1ccsc1,le15
Thiophenol,323.75,1.0,Sc1ccccc1,le15
Toluene,277.15,1.0,Cc1ccccc1,le15
trans2buten1ol,305.95,1.0,C/C=C/CO,le15
TrichloroAcetaldehyde,323.15,1.0,O=CC(Cl)(Cl)Cl,le15
trichloromethylBenzene,354.15,1.0,ClC(Cl)(Cl)c1ccccc1,le15
TrichloroSilane-,245.15,1.0,Cl[SiH](Cl)Cl,le15
Tridecane,352.15,1.0,CCCCCCCCCCCCC,le15
TriethoxyChloroSilane,320.15,1.0,CCO[Si](Cl)(OCC)OCC,le15
TriethoxySilane,299.15,1.0,CCO[SiH](OCC)OCC,le15
TriethylAcetoxySilane,314.15,1.0,CCC(CC)(CC)C(=O)O[SiH3],le15
TriethylChloroSilane,303.15,1.0,CC[Si](Cl)(CC)CC,le15
Triethylenetetramine,408.15,1.0,NCCNCCNCCN,le15
Triethylorthoformate,303.15,1.0,CCOC(OCC)OCC,le15
TriethylSilane-,271.15,1.0,CC[SiH](CC)CC,le15
TrifluoroAceticAcid,344.15,1.0,O=C(O)C(F)(F)F,le15
TrifluoromethylBenzene,285.15,1.0,FC(F)(F)c1ccccc1,le15
TriisopropylSilane,310.15,1.0,CC(C)[SiH](C(C)C)C(C)C,le15
Trimethoxychlorosilane,295.15,1.0,CO[Si](Cl)(OC)OC,le15
TrimethylBromoSilane-,270.15,1.0,C[Si](C)(C)Br,le15
Trimethylchlorosilane-,246.15,1.0,C[Si](C)(C)Cl,le15
TrimethylFluoroSilane-,238.15,1.0,C[Si](C)(C)F,le15
TrimethylPhenylSilane,313.15,1.0,C[Si](C)(C)c1ccccc1,le15
TrimethylSilane-,204.15,1.0,C[SiH](C)C,le15
TrimethylSilylIsothiocyanate,308.15,1.0,C[Si](C)(C)N=C=S,le15
TrimethylsilylTrifluoroacetate,273.15,1.0,C[Si](C)(C)OC(=O)C(F)(F)F,le15
TrimethylVinylSilane-,239.15,1.0,CC(C)=C(C)[SiH3],le15
TripropylAmine,302.15,1.0,CCCN(CCC)CCC,le15
TrisdimethylaminoSilane,298.15,1.0,CN(C)[SiH](N(C)C)N(C)C,le15
TrisTrimethylSiloxyMethylSilane,336.15,1.0,C[Si](C)(C)OC([SiH3])(O[Si](C)(C)C)O[Si](C)(C)C,le15
TrivinylMethylSilane,288.15,1.0,C=CC([SiH3])(C=C)C=C,le15
Undecane,333.15,1.0,CCCCCCCCCCC,le15
Valeraldehyde,285.0,1.0,CCCCC=O,le15
Valeronitrile,313.0,1.0,CCCCC#N,le15
Vinylacetate,265.15,1.0,C=CCC(=O)[O-],le15
VinylDiethylMethylSilane,288.15,1.0,C=C[Si](C)(CC)CC,le15
VinylDimethylEthoxySilane,277.15,1.0,C=C[Si](C)(C)OCC,le15
Vinylmethyldichlorosilane,277.15,1.0,C=CC[SiH](Cl)Cl,le15
VinylMethylDiethoxySilane,289.15,1.0,C=CC[SiH](OCC)OCC,le15
VinylPentamethylDisiloxane,285.15,1.0,C=C[Si](C)(C)O[Si](C)(C)C,le15
VinylTriacetoxySilane,361.15,1.0,C=C[Si](OC(C)=O)(OC(C)=O)OC(C)=O,le15
Vinyltrichlorosilane,288.65,1.0,C=C[Si](Cl)(Cl)Cl,le15
VinylTriethoxySilane,312.15,1.0,C=C[Si](OCC)(OCC)OCC,le15
VinylTriethylSilane,302.15,1.0,C=C[Si](CC)(CC)CC,le15
VinylTrimethoxySilane,296.15,1.0,C=C[Si](OC)(OC)OC,le15
VinylTrimethylSilane-,253.15,1.0,C=C[Si](C)(C)C,le15
Glycine ,372.666,1.0,NCC(=O)O,le15
Carbostyril ,473.75,1.0,O=c1ccc2ccccc2[nH]1,le15
Tryptophan ,497.85,1.0,N[C@@H](Cc1c[nH]c2ccccc12)C(=O)O,le15
Anthracene ,409.45,1.0,c1ccc2cc3ccccc3cc2c1,le15
Flavone ,444.25,1.0,O=c1cc(-c2ccccc2)oc2ccccc12,le15
methyl-,350.95,1.0,[CH3],le15
Ethyl ,545.25,1.0,[CH2]C,le15
toluene,280.2,1.0,Cc1ccccc1,godinho11
ethylbenzene,299.1,1.0,CCc1ccccc1,godinho11
p -xylene,298.2,1.0,Cc1ccc(C)cc1,godinho11
m -xylene,298.2,1.0,Cc1cccc(C)c1,godinho11
o -xylene,303.2,1.0,Cc1ccccc1C,godinho11
cumene,304.2,1.0,CC(C)c1ccccc1,godinho11
propylbenzene,315.2,1.0,CCCc1ccccc1,godinho11
m -ethyltoluene,311.2,1.0,CCc1cccc(C)c1,godinho11
p -ethyltoluene,309.2,1.0,CCc1ccc(C)cc1,godinho11
"1,3,5-trimethylbenzene",317.2,1.0,Cc1cc(C)cc(C)c1,godinho11
o -ethyltoluene,312.2,1.0,CCc1ccccc1C,godinho11
tert -butylbenzene,317.2,1.0,CC(C)(C)c1ccccc1,godinho11
"1,2,4-trimethylbenzene",318.7,1.0,Cc1ccc(C)c(C)c1,godinho11
sec -butylbenzene,325.0,1.0,CCC(C)c1ccccc1,godinho11
m -cymene,320.2,1.0,Cc1cccc(C(C)C)c1,godinho11
isobutylbenzene,323.2,1.0,CC(C)Cc1ccccc1,godinho11
"1,2,3-trimethylbenzene",324.2,1.0,Cc1cccc(C)c1C,godinho11
p -cymene,320.2,1.0,Cc1ccc(C(C)C)cc1,godinho11
o -cymene,323.2,1.0,Cc1ccccc1C(C)C,godinho11
m -diethylbenzene,324.2,1.0,CCc1cccc(CC)c1,godinho11
m -propyltoluene,325.0,1.0,CCCc1cccc(C)c1,godinho11
butylbenzene,331.2,1.0,CCCCc1ccccc1,godinho11
p -propyltoluene,329.5,1.0,CCCc1ccc(C)cc1,godinho11
o -diethylbenzene,328.2,1.0,CCc1ccccc1CC,godinho11
"1-ethyl-3,5-dimethylbenzene",330.5,1.0,CCc1cc(C)cc(C)c1,godinho11
p -diethylbenzene,328.2,1.0,CCc1ccc(CC)cc1,godinho11
o -propyltoluene,330.9,1.0,CCCc1ccccc1C,godinho11
neopentylbenzene,323.2,1.0,CC(C)(C)Cc1ccccc1,godinho11
1-tert -butyl-3-methylbenzene,333.7,1.0,Cc1cccc(C(C)(C)C)c1,godinho11
2-ethyl-p -xylene,329.2,1.0,CCc1cc(C)ccc1C,godinho11
"(1,2-dimethylpropyl)benzene",330.1,1.0,CC(C)C(C)c1ccccc1,godinho11
"1-ethyl-2,4-dimethylbenzene",330.2,1.0,CCc1ccc(C)cc1C,godinho11
4-ethyl-o -xylene,331.2,1.0,CCc1ccc(C)c(C)c1,godinho11
"2-ethyl-1,3-dimethylbenzene",335.1,1.0,CCc1c(C)cccc1C,godinho11
2-tert -butyltoluene,334.6,1.0,Cc1ccccc1C(C)(C)C,godinho11
4-tert -butyltoluene,327.2,1.0,Cc1ccc(C(C)(C)C)cc1,godinho11
2-phenyl-2-methylbutane,332.5,1.0,CCC(C)(C)c1ccccc1,godinho11
m -ethylcumene,336.0,1.0,CCc1cccc(C(C)C)c1,godinho11
"1-ethyl-2,3-dimethylbenzene",338.2,1.0,CCc1cccc(C)c1C,godinho11
1-sec -butyl-3-methylbenzene,336.2,1.0,CCC(C)c1cccc(C)c1,godinho11
1-isobutyl-2-methylbenzene,341.8,1.0,Cc1ccccc1CC(C)C,godinho11
1-isobutyl-4-methylbenzene,340.5,1.0,Cc1ccc(CC(C)C)cc1,godinho11
"1,4-dimethyl-2-isopropylbenzene",337.8,1.0,Cc1ccc(C)c(C(C)C)c1,godinho11
1-sec -butyl-4-methylbenzene,338.0,1.0,CCC(C)c1ccc(C)cc1,godinho11
(2-methylbutyl)benzene,337.2,1.0,CCC(C)Cc1ccccc1,godinho11
p -ethylcumene,338.9,1.0,CCc1ccc(C(C)C)cc1,godinho11
isopentylbenzene,335.2,1.0,CC(C)CCc1ccccc1,godinho11
sec -pentylbenzene,333.8,1.0,CCCC(C)c1ccccc1,godinho11
"1,3-dimethyl-4-isopropylbenzene",340.3,1.0,Cc1ccc(C(C)C)c(C)c1,godinho11
"1,3-diethyl-5-methylbenzene",343.0,1.0,CCc1cc(C)cc(CC)c1,godinho11
1-ethyl-3-propylbenzene,342.8,1.0,CCCc1cccc(CC)c1,godinho11
"1,2-dimethyl-4-isopropylbenzene",341.2,1.0,Cc1ccc(C(C)C)cc1C,godinho11
"1,3-diisopropylbenzene",349.9,1.0,CC(C)c1cccc(C(C)C)c1,godinho11
1-butyl-3-methylbenzene,343.9,1.0,CCCCc1cccc(C)c1,godinho11
"1,3-diethyl-4-methylbenzene",345.4,1.0,CCc1ccc(C)c(CC)c1,godinho11
pentylbenzene,339.2,1.0,CCCCCc1ccccc1,godinho11
1-butyl-4-methylbenzene,344.3,1.0,CCCCc1ccc(C)cc1,godinho11
"1-tert -butyl-3,5-dimethylbenzene",345.0,1.0,Cc1cc(C)cc(C(C)(C)C)c1,godinho11
"1,4-diethyl-2-methylbenzene",346.1,1.0,CCc1ccc(CC)c(C)c1,godinho11
1-butyl-2-methylbenzene,345.6,1.0,CCCCc1ccccc1C,godinho11
"1,4-diisopropylbenzene",349.2,1.0,CC(C)c1ccc(C(C)C)cc1,godinho11
"1,2-dimethyl-3-propylbenzene",345.0,1.0,CCCc1cccc(C)c1C,godinho11
1-tert -butyl-4-ethylbenzene,349.1,1.0,CCc1ccc(C(C)(C)C)cc1,godinho11
(1-ethylbutyl)benzene,347.4,1.0,CCCC(CC)c1ccccc1,godinho11
"1,3,5-triethylbenzene",354.2,1.0,CCc1cc(CC)cc(CC)c1,godinho11
"1,2,3-triethylbenzene",352.0,1.0,CCc1cccc(CC)c1CC,godinho11
"1-sec -butyl-2,4-dimethylbenzene",354.5,1.0,CCC(C)c1ccc(C)cc1C,godinho11
hexylbenzene,356.7,1.0,CCCCCCc1ccccc1,godinho11
"(2,4-dimethylpentyl)benzene",360.1,1.0,CC(C)CC(C)Cc1ccccc1,godinho11
(1-methylhexyl)benzene,360.4,1.0,CCCCCC(C)c1ccccc1,godinho11
"1,4-di-tert -butylbenzene",370.1,1.0,CC(C)(C)c1ccc(C(C)(C)C)cc1,godinho11
heptylbenzene,368.6,1.0,CCCCCCCc1ccccc1,godinho11
(1-methylheptyl)benzene,373.2,1.0,CCCCCCC(C)c1ccccc1,godinho11
"1,3-dibutylbenzene",382.4,1.0,CCCCc1cccc(CCCC)c1,godinho11
octylbenzene,380.2,1.0,CCCCCCCCc1ccccc1,godinho11
acrylonitrile,272.0,1.0,C=CC#N,katritzky07
acrolein,247.0,1.0,C=CC=O,katritzky07
acrylic acid,327.0,1.0,C=CC(=O)O,katritzky07
3-chloropropene,241.0,1.0,C=CCCl,katritzky07
allyl alcohol,294.0,1.0,C=CCO,katritzky07
propionaldehyde,233.0,1.0,CCC=O,katritzky07
ethyl formate,253.0,1.0,CCOC=O,katritzky07
methyl acetate,260.0,1.0,COC(C)=O,katritzky07
propionic acid,324.0,1.0,CCC(=O)O,katritzky07
1-bromopropane,294.0,1.0,CCCBr,katritzky07
2-chloropropane,238.0,1.0,CC(C)Cl,katritzky07
1-chloropropane,242.0,1.0,CCCCl,katritzky07
allylamine,343.0,1.0,C=CCN,katritzky07
1-propanol,288.0,1.0,CCCO,katritzky07
dimethoxymethane,255.0,1.0,COCOC,katritzky07
"1,2-propanediol",372.0,1.0,CC(O)CO,katritzky07
isopropylamine,236.0,1.0,CC(C)N,katritzky07
propylamine,261.0,1.0,CCCN,katritzky07
trimethylamine,266.0,1.0,CN(C)C,katritzky07
"1,3-butadiene",197.0,1.0,C=CC=C,katritzky07
isobutenal,273.0,1.0,C=C(C)C=O,katritzky07
crotonic acid,361.0,1.0,C/C=C/C(=O)O,katritzky07
n-butyronitrile,289.0,1.0,CCCC#N,katritzky07
butyraldehyde,267.0,1.0,CCCC=O,katritzky07
isobutyraldehyde,249.0,1.0,CC(C)C=O,katritzky07
2-butanone,264.0,1.0,CCC(C)=O,katritzky07
tetrahydrofuran,252.0,1.0,C1CCOC1,katritzky07
n-butyric acid,342.0,1.0,CCCC(=O)O,katritzky07
ethyl acetate,269.0,1.0,CCOC(C)=O,katritzky07
isobutyric acid,328.0,1.0,CC(C)C(=O)O,katritzky07
methyl propionate,279.0,1.0,CCC(=O)OC,katritzky07
propyl formate,273.0,1.0,CCCOC=O,katritzky07
1-bromobutane,286.0,1.0,CCCCBr,katritzky07
1-chlorobutane,261.0,1.0,CCCCCl,katritzky07
1-butanol,302.0,1.0,CCCCO,katritzky07
sec-butanol,299.0,1.0,CCC(C)O,katritzky07
tert-butyl alcohol,284.0,1.0,CC(C)(C)O,katritzky07
2-methyl-1-propanol,300.0,1.0,CC(C)CO,katritzky07
"1,3-butanediol",394.0,1.0,CC(O)CCO,katritzky07
n-butylamine,266.0,1.0,CCCCN,katritzky07
diethylamine,247.0,1.0,CCNCC,katritzky07
isobutylamine,264.0,1.0,CC(C)CN,katritzky07
pyridine,293.0,1.0,c1ccncc1,katritzky07
cyclopentene,273.0,1.0,C1=CCCC1,katritzky07
"2-methyl-1,3-butadiene",225.0,1.0,C=CC(=C)C,katritzky07
"2,4-pentanedione",307.0,1.0,CC(=O)CC(C)=O,katritzky07
allyl acetate,279.0,1.0,C=CCOC(C)=O,katritzky07
ethyl acrylate,282.0,1.0,C=CC(=O)OCC,katritzky07
cyclopentane,236.0,1.0,C1CCCC1,katritzky07
1-pentene,222.0,1.0,C=CCCC,katritzky07
3-pentanone,286.0,1.0,CCC(=O)CC,katritzky07
2-pentanone,280.0,1.0,CCCC(C)=O,katritzky07
valeraldehyde,285.0,1.0,CCCCC=O,katritzky07
ethyl propionate,285.0,1.0,CCOC(=O)CC,katritzky07
isobutyl formate,283.0,1.0,CC(C)COC=O,katritzky07
n-propyl acetate,283.0,1.0,CCCOC(C)=O,katritzky07
1-butanecarboxylic acid,359.0,1.0,CCCCC(=O)O,katritzky07
1-chloropentane,284.0,1.0,CCCCCCl,katritzky07
2-methylbutane,222.0,1.0,CCC(C)C,katritzky07
pentane,224.0,1.0,CCCCC,katritzky07
2-methyl-1-butanol,316.0,1.0,CCC(C)CO,katritzky07
tert-amyl alcohol (2-methyl-2-butanol),293.0,1.0,CCC(C)(C)O.CCC(C)(C)O,katritzky07
3-methyl-1-butanol,316.0,1.0,CC(C)CCO,katritzky07
1-pentanol,306.0,1.0,CCCCCO,katritzky07
3-pentanol,307.0,1.0,CCC(O)CC,katritzky07
"2,2-dimethyl-1,3-propanediol",380.0,1.0,CC(C)(CO)CO,katritzky07
"1,5-pentanediol",409.0,1.0,OCCCCCO,katritzky07
"1,2-dichlorobenzene",340.0,1.0,Clc1ccccc1Cl,katritzky07
bromobenzene,324.0,1.0,Brc1ccccc1,katritzky07
chlorobenzene,300.0,1.0,Clc1ccccc1,katritzky07
benzene,262.0,1.0,c1ccccc1,katritzky07
phenol,352.0,1.0,Oc1ccccc1,katritzky07
hydroquinone,438.0,1.0,Oc1ccc(O)cc1,katritzky07
aniline,343.0,1.0,Nc1ccccc1,katritzky07
2-picoline,301.0,1.0,Cc1ccccn1,katritzky07
"1,4-dicyanobutane",432.0,1.0,N#CCCCCC#N,katritzky07
cyclohexene,261.0,1.0,C1=CCCCC1,katritzky07
cyclohexanone,317.0,1.0,O=C1CCCCC1,katritzky07
mesityl oxide,298.0,1.0,CC(=O)C=C(C)C,katritzky07
cyclohexane,255.0,1.0,C1CCCCC1,katritzky07
"2,3-dimethyl-1-butene",255.0,1.0,C=C(C)C(C)C,katritzky07
"2,3-dimethyl-2-butene",253.0,1.0,CC(C)=C(C)C,katritzky07
2-ethyl-1-butene,253.0,1.0,C=C(CC)CC,katritzky07
1-hexene,247.0,1.0,C=CCCCC,katritzky07
2-hexene,252.0,1.0,CC=CCCC,katritzky07
trans-2-hexene,253.0,1.0,C/C=C/CCC,katritzky07
methylcyclopentane,244.0,1.0,CC1CCCC1,katritzky07
2-methyl-1-pentene,247.0,1.0,C=C(C)CCC,katritzky07
4-methyl-1-pentene,242.0,1.0,C=CCC(C)C,katritzky07
n-butyl vinyl ether,264.0,1.0,C=COCCCC,katritzky07
cyclohexanol,341.0,1.0,OC1CCCCC1,katritzky07
2-hexanone,296.0,1.0,CCCCC(C)=O,katritzky07
4-methyl-2-pentanone,287.0,1.0,CC(=O)CC(C)C,katritzky07
ethyl butyrate,292.0,1.0,CCCC(=O)OCC,katritzky07
2-ethylbutyric acid,360.0,1.0,CCC(CC)C(=O)O,katritzky07
hexanoic acid,375.0,1.0,CCCCCC(=O)O,katritzky07
isobutyl acetate,291.0,1.0,CC(=O)OCC(C)C,katritzky07
cyclohexylamine,301.0,1.0,NC1CCCCC1,katritzky07
"2,2-dimethylbutane",225.0,1.0,CCC(C)(C)C,katritzky07
"2,3-dimethylbutane",244.0,1.0,CC(C)C(C)C,katritzky07
n-hexane,251.0,1.0,CCCCCC,katritzky07
2-methylpentane,241.0,1.0,CCCC(C)C,katritzky07
3-methylpentane,241.0,1.0,CCC(C)CC,katritzky07
isopropyl ether,244.0,1.0,CC(C)OC(C)C,katritzky07
n-propyl ether,245.0,1.0,CCCOCCC,katritzky07
diisopropylamine,267.0,1.0,CC(C)NC(C)C,katritzky07
dipropylamine,280.0,1.0,CCCNCCC,katritzky07
benzaldehyde,335.0,1.0,O=Cc1ccccc1,katritzky07
benzoic acid,394.0,1.0,O=C(O)c1ccccc1,katritzky07
toluene,277.0,1.0,Cc1ccccc1,katritzky07
benzyl alcohol,366.0,1.0,OCc1ccccc1,katritzky07
m-cresol,359.0,1.0,Cc1cccc(O)c1,katritzky07
o-cresol,354.0,1.0,Cc1ccccc1O,katritzky07
m-toluidine,359.0,1.0,Cc1cccc(N)c1,katritzky07
o-toluidine,358.0,1.0,Cc1ccccc1N,katritzky07
butyl acrylate,312.0,1.0,C=CC(=O)OCCCC,katritzky07
ethyl cyclopentane,288.0,1.0,CCC1CCCC1,katritzky07
"2,3-dimethylpentane",267.0,1.0,CCC(C)C(C)C,katritzky07
heptane,269.0,1.0,CCCCCCC,katritzky07
2-methylhexane,255.0,1.0,CCCCC(C)C,katritzky07
3-methylhexane,270.0,1.0,CCCC(C)CC,katritzky07