compound,flashpoint,pure substance,smiles,source
1-aminopropan-2-ol,350.15,1,CC(CN)O,pubchem
"1-chloro-2,4-dinitrobenzene",467.15,1,C1=CC(=C(C=C1[N+](=O)[O-])[N+](=O)[O-])Cl,pubchem
"1,2-dichloroethane",286.15,1,C(CCl)Cl,pubchem
"1,2,4-trichlorobenzene",383.15,1,C1=CC(=C(C=C1Cl)Cl)Cl,pubchem
2-chloroacetaldehyde,361.15,1,C(C=O)Cl,pubchem
2-chloroethanol,333.15,1,C(CCl)O,pubchem
3-hydroxybutan-2-one,314.15,1,CC(C(=O)C)O,pubchem
hexanedioic acid,464.15,1,C(CCC(=O)O)CC(=O)O,pubchem
azane,405.15,1,N,pubchem
2-aminobenzoic acid,444.15,1,C1=CC=C(C(=C1)C(=O)O)N,pubchem
benzaldehyde,337.15,1,C1=CC=C(C=C1)C=O,pubchem
benzoate,394.15,1,C1=CC=C(C=C1)C(=O)[O-],pubchem
benzoic acid,394.15,1,C1=CC=C(C=C1)C(=O)O,pubchem
phenylmethanol,374.15,1,C1=CC=C(C=C1)CO,pubchem
"pentane-1,5-diamine",335.15,1,C(CCN)CCN,pubchem
formic acid,342.15,1,C(=O)O,pubchem
"benzene-1,2-diol",400.15,1,C1=CC=C(C(=C1)O)O,pubchem
methane,85.14999999999998,1,C,pubchem
2-chloroacetic acid,423.15,1,C(C(=O)O)Cl,pubchem
"2-hydroxypropane-1,2,3-tricarboxylic acid",373.15,1,C(C(=O)O)C(CC(=O)O)(C(=O)O)O,pubchem
chromen-2-one,424.15,1,C1=CC=C2C(=C1)C=CC(=O)O2,pubchem
2-methylphenol,354.15,1,CC1=CC=CC=C1O,pubchem
2-hydroxybenzoic acid,430.15,1,C1=CC=C(C(=C1)C(=O)O)O,pubchem
3-methylphenol,359.15,1,CC1=CC(=CC=C1)O,pubchem
sulfane,480.15,1,S,pubchem
4-aminophenol,468.15,1,C1=CC(=CC=C1N)O,pubchem
"propane-1,3-diamine",297.15,1,C(CN)CN,pubchem
2-methoxyphenol,347.15,1,COC1=CC=CC=C1O,pubchem
"butane-2,3-dione",300.15,1,CC(=O)C(=O)C,pubchem
"3,4-dihydrochromen-2-one",403.15,1,C1CC(=O)OC2=CC=CC=C21,pubchem
N-methylmethanamine,266.15,1,CNC,pubchem
methylsulfinylmethane,368.15,1,CS(=O)C,pubchem
2-aminoethanol,366.15,1,C(CO)N,pubchem
formaldehyde,333.15,1,C=O,pubchem
formamide,427.15,1,C(=O)N,pubchem
"propane-1,2,3-triol",433.15,1,C(C(CO)O)O,pubchem
"benzene-1,4-diol",438.15,1,C1=CC(=CC=C1O)O,pubchem
1H-imidazole,418.15,1,C1=CN=CN1,pubchem
"2,3-dihydroxybutanedioic acid",483.15,1,C(C(C(=O)O)O)(C(=O)O)O,pubchem
methanethiol,255.15,1,CS,pubchem
N-phenylacetamide,447.15,1,CC(=O)NC1=CC=CC=C1,pubchem
naphthalene,361.15,1,C1=CC=C2C=CC=CC2=C1,pubchem
pyridine-3-carboxamide,455.15,1,C1=CC(=CN=C1)C(=O)N,pubchem
pyridine-3-carboxylic acid,466.15,1,C1=CC(=CN=C1)C(=O)O,pubchem
"N,N-dimethylaniline",336.15,1,CN(C)C1=CC=CC=C1,pubchem
4-nitrophenol,465.15,1,C1=CC(=CC=C1[N+](=O)[O-])O,pubchem
diethoxy-(4-nitrophenoxy)-sulfanylidene-λ5-phosphane,393.15,1,CCOP(=S)(OCC)OC1=CC=C(C=C1)[N+](=O)[O-],pubchem
phenanthrene,444.15,1,C1=CC=C2C(=C1)C=CC3=CC=CC=C32,pubchem
phenol,352.15,1,C1=CC=C(C=C1)O,pubchem
2-phenylacetic acid,405.15,1,C1=CC=C(C=C1)CC(=O)O,pubchem
phthalic acid,441.15,1,C1=CC=C(C(=C1)C(=O)O)C(=O)O,pubchem
"propane-1,2-diol",372.15,1,CC(CO)O,pubchem
pyridine,293.15,1,C1=CC=NC=C1,pubchem
butanedioic acid,433.15,1,C(CC(=O)O)C(=O)O,pubchem
thiolane,286.15,1,C1CCSC1,pubchem
2-sulfanylacetic acid,386.15,1,C(C(=O)O)S,pubchem
4-hydroxy-3-methoxybenzaldehyde,426.15,1,COC1=C(C=CC(=C1)C=O)O,pubchem
2-sulfanylethanol,347.15,1,C(CS)O,pubchem
pyridin-4-amine,437.15,1,C1=CN=CC=C1N,pubchem
4-chloro-3-methylphenol,383.15,1,CC1=C(C=CC(=C1)O)Cl,pubchem
4-nonylphenol,386.15,1,CCCCCCCCCC1=CC=C(C=C1)O,pubchem
"2-chloro-N-(2,6-diethylphenyl)-N-(methoxymethyl)acetamide",410.15,1,CCC1=C(C(=CC=C1)CC)N(COC)C(=O)CCl,pubchem
2-acetyloxybenzoic acid,523.15,1,CC(=O)OC1=CC=CC=C1C(=O)O,pubchem
nonanedioic acid,483.15,1,C(CCCC(=O)O)CCCC(=O)O,pubchem
benzyl benzoate,421.15,1,C1=CC=C(C=C1)COC(=O)C2=CC=CC=C2,pubchem
"2-O-benzyl 1-O-butyl benzene-1,2-dicarboxylate",472.15,1,CCCCOC(=O)C1=CC=CC=C1C(=O)OCC2=CC=CC=C2,pubchem
"2-bromo-2-nitropropane-1,3-diol",440.15,1,C(C(CO)([N+](=O)[O-])Br)O,pubchem
"diethoxy-sulfanylidene-(3,5,6-trichloropyridin-2-yl)oxy-λ5-phosphane",301.15,1,CCOP(=S)(OCC)OC1=NC(=C(C=C1Cl)Cl)Cl,pubchem
"1,3,3-trimethyl-2-oxabicyclo[2.2.2]octane",322.15,1,CC1(C2CCC(O1)(CC2)C)C,pubchem
4-methylphenol,359.15,1,CC1=CC=C(C=C1)O,pubchem
"N,N-bis(2-chloroethyl)-2-oxo-1,3,2λ5-oxazaphosphinan-2-amine",386.15,1,C1CNP(=O)(OC1)N(CCCl)CCCl,pubchem
decanoic acid,386.15,1,CCCCCCCCCC(=O)O,pubchem
1-phenylpropan-2-amine,300.15,1,CC(CC1=CC=CC=C1)N,pubchem
"dibutyl benzene-1,2-dicarboxylate",430.15,1,CCCCOC(=O)C1=CC=CC=C1C(=O)OCCCC,pubchem
2-dimethoxyphosphinothioylsulfanyl-N-methylacetamide,324.15,1,CNC(=O)CSP(=S)(OC)OC,pubchem
2-propylpentanoic acid,384.15,1,CCCC(CCC)C(=O)O,pubchem
diethoxyphosphinothioylsulfanylmethylsulfanyl-diethoxy-sulfanylidene-λ5-phosphane,449.15,1,CCOP(=S)(OCC)SCSP(=S)(OCC)OCC,pubchem
"6-ethoxy-2,2,4-trimethyl-1H-quinoline",380.15,1,CCOC1=CC2=C(C=C1)NC(C=C2C)(C)C,pubchem
2-methoxy-4-prop-2-enylphenol,377.15,1,COC1=C(C=CC(=C1)CC=C)O,pubchem
dimethoxy-(3-methyl-4-methylsulfanylphenoxy)-sulfanylidene-λ5-phosphane,443.15,1,CC1=C(C=CC(=C1)OP(=S)(OC)OC)SC,pubchem
furan-2-ylmethanamine,310.15,1,C1=COC(=C1)CN,pubchem
"3,4,6-trichloro-2-[(2,3,5-trichloro-6-hydroxyphenyl)methyl]phenol",319.15,1,C1=C(C(=C(C(=C1Cl)Cl)CC2=C(C(=CC(=C2Cl)Cl)Cl)O)O)Cl,pubchem
pyridine-4-carbohydrazide,463.15,1,C1=CN=CC=C1C(=O)NN,pubchem
dodecanoic acid,386.15,1,CCCCCCCCCCCC(=O)O,pubchem
2-methylprop-2-enoic acid,350.15,1,CC(=C)C(=O)O,pubchem
"1,3,5,7-tetrazatricyclo[3.3.1.13,7]decane",523.15,1,C1N2CN3CN1CN(C2)C3,pubchem
"2,2-dichloro-1,1-difluoro-1-methoxyethane",336.15,1,COC(C(Cl)Cl)(F)F,pubchem
methyl 2-hydroxybenzoate,369.15,1,COC(=O)C1=CC=CC=C1O,pubchem
methyl methanesulfonate,377.15,1,COS(=O)(=O)C,pubchem
"N,N-diethyl-3-methylbenzamide",428.15,1,CCN(CC)C(=O)C1=CC(=CC=C1)C,pubchem
(2-hydroxy-4-methoxyphenyl)-phenylmethanone,373.15,1,COC1=CC(=C(C=C1)C(=O)C2=CC=CC=C2)O,pubchem
"cyclohexa-2,5-diene-1,4-dione",566.15,1,C1=CC(=O)C=CC1=O,pubchem
4-chlorophenol,394.15,1,C1=CC(=CC=C1O)Cl,pubchem
"1,4-dichlorobenzene",339.15,1,C1=CC(=CC=C1Cl)Cl,pubchem
4-[5-(4-carbamimidoylphenoxy)pentoxy]benzenecarboximidamide,376.15,1,C1=CC(=CC=C1C(=N)N)OCCCCCOC2=CC=C(C=C2)C(=N)N,pubchem
"5-ethyl-5-phenyl-1,3-diazinane-2,4,6-trione",447.15,1,CCC1(C(=O)NC(=O)NC1=O)C2=CC=CC=C2,pubchem
diethoxy-(ethylsulfanylmethylsulfanyl)-sulfanylidene-λ5-phosphane,433.15,1,CCOP(=S)(OCC)SCSCC,pubchem
"6-chloro-3-(diethoxyphosphinothioylsulfanylmethyl)-1,3-benzoxazol-2-one",373.15,1,CCOP(=S)(OCC)SCN1C2=C(C=C(C=C2)Cl)OC1=O,pubchem
piperazine,361.15,1,C1CNCCN1,pubchem
1-[2-[2-hydroxy-3-(propylamino)propoxy]phenyl]-3-phenylpropan-1-one,472.15,1,CCCNCC(COC1=CC=CC=C1C(=O)CCC2=CC=CC=C2)O,pubchem
[2-(4-tert-butylphenoxy)cyclohexyl] prop-2-ynyl sulfite,301.15,1,CC(C)(C)C1=CC=C(C=C1)OC2CCCCC2OS(=O)OCC#C,pubchem
"propyl 3,4,5-trihydroxybenzoate",460.15,1,CCCOC(=O)C1=CC(=C(C(=C1)O)O)O,pubchem
"2-[2-(4-benzo[b][1,4]benzothiazepin-6-ylpiperazin-1-yl)ethoxy]ethanol",282.15,1,C1CN(CCN1CCOCCO)C2=NC3=CC=CC=C3SC4=CC=CC=C42,pubchem
"benzene-1,3-diol",400.15,1,C1=CC(=CC(=C1)O)O,pubchem
2-aminopropan-1-ol,336.15,1,CC(CO)N,pubchem
"5-prop-2-enyl-1,3-benzodioxole",371.15,1,C=CCC1=CC2=C(C=C1)OCO2,pubchem
decanedioic acid,493.15,1,C(CCCCC(=O)O)CCCC(=O)O,pubchem
2-(2-hydroxyethylsulfanyl)ethanol,386.15,1,C(CSCCO)O,pubchem
"dimethylcarbamothioylsulfanyl N,N-dimethylcarbamodithioate",411.15,1,CN(C)C(=S)SSC(=S)N(C)C,pubchem
"N,N-diethylpyridine-3-carboxamide",386.15,1,CCN(CC)C(=O)C1=CN=CC=C1,pubchem
"2,3-diacetyloxypropyl acetate",411.15,1,CC(=O)OCC(COC(=O)C)OC(=O)C,pubchem
"S-(2,3,3-trichloroprop-2-enyl) N,N-di(propan-2-yl)carbamothioate",363.15,1,CC(C)N(C(C)C)C(=O)SCC(=C(Cl)Cl)Cl,pubchem
"N'-[2-(2-aminoethylamino)ethyl]ethane-1,2-diamine",408.15,1,C(CNCCNCCN)N,pubchem
ethyl carbamate,365.15,1,CCOC(=O)N,pubchem
"(2R,3R,4R,5S)-hexane-1,2,3,4,5,6-hexol",556.15,1,C(C(C(C(C(CO)O)O)O)O)O,pubchem
"5-[2-(2-butoxyethoxy)ethoxymethyl]-6-propyl-1,3-benzodioxole",444.15,1,CCCCOCCOCCOCC1=CC2=C(C=C1CCC)OCO2,pubchem
2-aminophenol,441.15,1,C1=CC=C(C(=C1)N)O,pubchem
"N,N-diethylnitrous amide",336.15,1,CCN(CC)N=O,pubchem
"N'-(3-aminopropyl)propane-1,3-diamine",352.15,1,C(CN)CNCCCN,pubchem
3-isothiocyanatoprop-1-ene,319.15,1,C=CCN=C=S,pubchem
"1,1-dimethylhydrazine",258.15,1,CN(C)N,pubchem
"7,12-dimethylbenzo[a]anthracene",359.15,1,CC1=C2C=CC3=CC=CC=C3C2=C(C4=CC=CC=C14)C,pubchem
"(8R,9S,10R,13S,14S,17S)-17-hydroxy-10,13,17-trimethyl-2,6,7,8,9,11,12,14,15,16-decahydro-1H-cyclopenta[a]phenanthren-3-one",278.15,1,CC12CCC(=O)C=C1CCC3C2CCC4(C3CCC4(C)O)C,pubchem
"2,3,4,6-tetrachlorophenol",373.15,1,C1=C(C(=C(C(=C1Cl)Cl)Cl)O)Cl,pubchem
"2,3-di(butanoyloxy)propyl butanoate",629.15,1,CCCC(=O)OCC(COC(=O)CCC)OC(=O)CCC,pubchem
2-phenylethanol,369.15,1,C1=CC=C(C=C1)CCO,pubchem
methylhydrazine,343.15,1,CNN,pubchem
4-methylbenzenesulfonic acid,457.15,1,CC1=CC=C(C=C1)S(=O)(=O)O,pubchem
4-nitrobenzoic acid,475.15,1,C1=CC(=CC=C1C(=O)O)[N+](=O)[O-],pubchem
ethyl methanesulfonate,373.15,1,CCOS(=O)(=O)C,pubchem
aniline,343.15,1,C1=CC=C(C=C1)N,pubchem
"N,N-dimethylnitrous amide",334.15,1,CN(C)N=O,pubchem
hexanal,305.15,1,CCCCCC=O,pubchem
2-bromoacetic acid,386.15,1,C(C(=O)O)Br,pubchem
4-methylbenzenesulfonamide,475.15,1,CC1=CC=C(C=C1)S(=O)(=O)N,pubchem
4-chlorobenzoic acid,511.15,1,C1=CC(=CC=C1C(=O)O)Cl,pubchem
"1-N,4-N-diphenylbenzene-1,4-diamine",477.15,1,C1=CC=C(C=C1)NC2=CC=C(C=C2)NC3=CC=CC=C3,pubchem
ethane,138.14999999999998,1,CC,pubchem
ethene,137.14999999999998,1,C=C,pubchem
acetylene,255.15,1,C#C,pubchem
chloromethane,228.15,1,CCl,pubchem
bromoethane,250.15,1,CCBr,pubchem
propane,169.14999999999995,1,CCC,pubchem
iodoethane,334.15,1,CCI,pubchem
methanedithione,243.15,1,C(=S)=S,pubchem
oxirane,255.15,1,C1CO1,pubchem
2-bromopropane,344.15,1,CC(C)Br,pubchem
2-chloropropane,241.15,1,CC(C)Cl,pubchem
propane-2-thiol,239.15,1,CC(C)S,pubchem
2-methylaziridine,269.15,1,CC1CN1,pubchem
2-methylpropan-2-amine,283.15,1,CC(C)(C)N,pubchem
tetramethylplumbane,311.15,1,C[Pb](C)(C)C,pubchem
methanesulfonic acid,462.15,1,CS(=O)(=O)O,pubchem
"2,2-dimethylpropan-1-ol",310.15,1,CC(C)(C)CO,pubchem
2-hydroxy-2-methylpropanenitrile,347.15,1,CC(C)(C#N)O,pubchem
"2,2,2-trichloroacetaldehyde",348.15,1,C(=O)C(Cl)(Cl)Cl,pubchem
2-hydroperoxy-2-methylpropane,300.15,1,CC(C)(C)OO,pubchem
"3,3-dimethylbutan-2-one",278.15,1,CC(=O)C(C)(C)C,pubchem
"2,2-dimethylpropanoic acid",337.15,1,CC(C)(C)C(=O)O,pubchem
"(3-hydroxy-2,2,4-trimethylpentyl) 2-methylpropanoate",393.15,1,CC(C)C(C(C)(C)COC(=O)C(C)C)O,pubchem
1-ethenylsulfonylethene,376.15,1,C=CS(=O)(=O)C=C,pubchem
"2,5-dihydrothiophene 1,1-dioxide",386.15,1,C1C=CCS1(=O)=O,pubchem
[dimethylamino(ethoxy)phosphoryl]formonitrile,351.15,1,CCOP(=O)(C#N)N(C)C,pubchem
"tributyl 2-acetyloxypropane-1,2,3-tricarboxylate",386.15,1,CCCCOC(=O)CC(CC(=O)OCCCC)(C(=O)OCCCC)OC(=O)C,pubchem
"triethyl 2-hydroxypropane-1,2,3-tricarboxylate",428.15,1,CCOC(=O)CC(CC(=O)OCC)(C(=O)OCC)O,pubchem
"2-ethyl-2-(hydroxymethyl)propane-1,3-diol",445.15,1,CCC(CO)(CO)CO,pubchem
1-(1-hydroperoxycyclohexyl)peroxycyclohexan-1-ol,430.15,1,C1CCC(CC1)(O)OOC2(CCCCC2)OO,pubchem
tris(2-methylphenyl) phosphate,498.15,1,CC1=CC=CC=C1OP(=O)(OC2=CC=CC=C2C)OC3=CC=CC=C3C,pubchem
tris(4-methylphenyl) phosphate,483.15,1,CC1=CC=C(C=C1)OP(=O)(OC2=CC=C(C=C2)C)OC3=CC=C(C=C3)C,pubchem
1-[ethoxy(ethyl)phosphoryl]oxyethane,377.15,1,CCOP(=O)(CC)OCC,pubchem
tris(2-ethylhexyl) phosphate,425.15,1,CCCCC(CC)COP(=O)(OCC(CC)CCCC)OCC(CC)CCCC,pubchem
1-[butoxy(butyl)phosphoryl]oxybutane,427.15,1,CCCCOP(=O)(CCCC)OCCCC,pubchem
tris(2-butoxyethyl) phosphate,497.15,1,CCCCOCCOP(=O)(OCCOCCCC)OCCOCCCC,pubchem
"3,5,5-trimethylcyclohex-2-en-1-one",357.15,1,CC1=CC(=O)CC(C1)(C)C,pubchem
"2,5-bis(tert-butylperoxy)-2,5-dimethylhexane",358.15,1,CC(C)(C)OOC(C)(C)CCC(C)(C)OOC(C)(C)C,pubchem
"3,7-dimethylocta-1,6-dien-3-ol",351.15,1,CC(=CCCC(C)(C=C)O)C,pubchem
2-bromobutane,294.15,1,CCC(C)Br,pubchem
"2-methylbuta-1,3-diene",219.15,1,CC(=C)C=C,pubchem
2-methylpropanenitrile,281.15,1,CC(C)C#N,pubchem
2-methylpropanal,233.15,1,CC(C)C=O,pubchem
2-methylprop-2-enal,275.15,1,CC(=C)C=O,pubchem
"1,2-dichloropropane",289.15,1,CC(CCl)Cl,pubchem
"2,3-dichloroprop-1-ene",283.15,1,C=C(CCl)Cl,pubchem
2-chloropropan-1-ol,325.15,1,CC(CO)Cl,pubchem
"propane-1,2-diamine",306.15,1,CC(CN)N,pubchem
butan-2-one,270.15,1,CCC(=O)C,pubchem
but-3-en-2-one,266.15,1,CC(=O)C=C,pubchem
1-chloropropan-2-one,313.15,1,CC(=O)CCl,pubchem
2-hydroxypropanenitrile,350.15,1,CC(C#N)O,pubchem
"1,1-dichloropropane",294.15,1,CCC(Cl)Cl,pubchem
"2,2-dichloroacetaldehyde",333.15,1,C(=O)C(Cl)Cl,pubchem
2-chloroacetyl chloride,373.15,1,C(C(=O)Cl)Cl,pubchem
prop-2-enamide,411.15,1,C=CC(=O)N,pubchem
2-chloroacetamide,443.15,1,C(C(=O)N)Cl,pubchem
N-methylacetamide,381.15,1,CC(=O)NC,pubchem
methyl acetate,263.15,1,CC(=O)OC,pubchem
ethaneperoxoic acid,314.15,1,CC(=O)OO,pubchem
"1,1,2,2-tetrabromoethane",608.15,1,C(C(Br)Br)(Br)Br,pubchem
2-methylpropanoic acid,329.15,1,CC(C)C(=O)O,pubchem
"2,2-dichloroacetyl chloride",339.15,1,C(C(=O)Cl)(Cl)Cl,pubchem
"1-chloro-1,2,2-trifluoroethene",246.15,1,C(=C(F)Cl)(F)F,pubchem
"N,N-dimethylcarbamoyl chloride",341.15,1,CN(C)C(=O)Cl,pubchem
"2,2-dimethyl-3-methylidenebicyclo[2.2.1]heptane",306.15,1,CC1(C2CCC(C2)C1=C)C,pubchem
4-[2-(4-hydroxyphenyl)propan-2-yl]phenol,352.15,1,CC(C)(C1=CC=C(C=C1)O)C2=CC=C(C=C2)O,pubchem
2-hydroperoxypropan-2-ylbenzene,330.15,1,CC(C)(C1=CC=CC=C1)OO,pubchem
ethyl 4-methylbenzenesulfonate,431.15,1,CCOS(=O)(=O)C1=CC=C(C=C1)C,pubchem
4-(2-methylbutan-2-yl)phenol,384.15,1,CCC(C)(C)C1=CC=C(C=C1)O,pubchem
1-(2-hydroperoxypropan-2-yl)-4-methylcyclohexane,326.15,1,CC1CCC(CC1)C(C)(C)OO,pubchem
methyl 4-methylbenzenesulfonate,425.15,1,CC1=CC=C(C=C1)S(=O)(=O)OC,pubchem
4-(2-aminopropan-2-yl)-1-methylcyclohexan-1-amine,366.15,1,CC1(CCC(CC1)C(C)(C)N)N,pubchem
methyl 2-methylprop-2-enoate,283.15,1,CC(=C)C(=O)OC,pubchem
"1,3-dimethyl-2-nitrobenzene",361.15,1,CC1=C(C(=CC=C1)C)[N+](=O)[O-],pubchem
"3-oxatricyclo[7.3.1.05,13]trideca-1(12),5,7,9(13),10-pentaene-2,4-dione",545.15,1,C1=CC2=C3C(=C1)C(=O)OC(=O)C3=CC=C2,pubchem
"1,2,3,4,5-pentachloro-6-nitrobenzene",400.15,1,C1(=C(C(=C(C(=C1Cl)Cl)Cl)Cl)Cl)[N+](=O)[O-],pubchem
"1,2-dihydroacenaphthylene",398.15,1,C1CC2=CC=CC3=C2C1=CC=C3,pubchem
"2,6-dichlorobenzaldehyde",408.15,1,C1=CC(=C(C(=C1)Cl)C=O)Cl,pubchem
"1,2-dimethyl-3-nitrobenzene",380.15,1,CC1=C(C(=CC=C1)[N+](=O)[O-])C,pubchem
"naphthalene-1,5-diol",525.15,1,C1=CC2=C(C=CC=C2O)C(=C1)O,pubchem
"1,2-diphenylbenzene",436.15,1,C1=CC=C(C=C1)C2=CC=CC=C2C3=CC=CC=C3,pubchem
"dicyclohexyl benzene-1,2-dicarboxylate",480.15,1,C1CCC(CC1)OC(=O)C2=CC=CC=C2C(=O)OC3CCCCC3,pubchem
"anthracene-9,10-dione",458.15,1,C1=CC=C2C(=C1)C(=O)C3=CC=CC=C3C2=O,pubchem
"diethyl benzene-1,2-dicarboxylate",413.15,1,CCOC(=O)C1=CC=CC=C1C(=O)OCC,pubchem
"bis(2-methylpropyl) benzene-1,2-dicarboxylate",469.15,1,CC(C)COC(=O)C1=CC=CC=C1C(=O)OCC(C)C,pubchem
"dihexyl benzene-1,2-dicarboxylate",450.15,1,CCCCCCOC(=O)C1=CC=CC=C1C(=O)OCCCCCC,pubchem
"dinonyl benzene-1,2-dicarboxylate",489.15,1,CCCCCCCCCOC(=O)C1=CC=CC=C1C(=O)OCCCCCCCCC,pubchem
"didecyl benzene-1,2-dicarboxylate",505.15,1,CCCCCCCCCCOC(=O)C1=CC=CC=C1C(=O)OCCCCCCCCCC,pubchem
benzo[f]quinoline,439.15,1,C1=CC=C2C(=C1)C=CC3=C2C=CC=N3,pubchem
"2-benzofuran-1,3-dione",425.15,1,C1=CC=C2C(=C1)C(=O)OC2=O,pubchem
"2-O-(2-butoxy-2-oxoethyl) 1-O-butyl benzene-1,2-dicarboxylate",472.15,1,CCCCOC(=O)COC(=O)C1=CC=CC=C1C(=O)OCCCC,pubchem
methyl 2-(methylamino)benzoate,364.15,1,CNC1=CC=CC=C1C(=O)OC,pubchem
"1,3-diethyl-1,3-diphenylurea",423.15,1,CCN(C1=CC=CC=C1)C(=O)N(CC)C2=CC=CC=C2,pubchem
1-nitro-2-phenylbenzene,416.15,1,C1=CC=C(C=C1)C2=CC=CC=C2[N+](=O)[O-],pubchem
1-nitronaphthalene,437.15,1,C1=CC=C2C(=C1)C=CC=C2[N+](=O)[O-],pubchem
9H-fluorene,424.15,1,C1C2=CC=CC=C2C3=CC=CC=C31,pubchem
9H-carbazole,493.15,1,C1=CC=C2C(=C1)C3=CC=CC=C3N2,pubchem
"2,3-dimethylaniline",370.15,1,CC1=C(C(=CC=C1)N)C,pubchem
"1,2,3-trichlorobenzene",385.15,1,C1=CC(=C(C(=C1)Cl)Cl)Cl,pubchem
"2,6-dimethylaniline",364.15,1,CC1=C(C(=CC=C1)C)N,pubchem
"1,1,2,3,4,4-hexachlorobuta-1,3-diene",363.15,1,C(=C(Cl)Cl)(C(=C(Cl)Cl)Cl)Cl,pubchem
"2,4,6-trichlorophenol",372.15,1,C1=C(C=C(C(=C1Cl)O)Cl)Cl,pubchem
1-ethenylpyrrolidin-2-one,366.15,1,C=CN1CCCC1=O,pubchem
2-tert-butylphenol,383.15,1,CC(C)(C)C1=CC=CC=C1O,pubchem
2-propan-2-ylphenol,377.15,1,CC(C)C1=CC=CC=C1O,pubchem
1-methyl-2-nitrobenzene,379.15,1,CC1=CC=CC=C1[N+](=O)[O-],pubchem
1-chloro-2-nitrobenzene,400.15,1,C1=CC=C(C(=C1)[N+](=O)[O-])Cl,pubchem
2-nitroaniline,441.15,1,C1=CC=C(C(=C1)N)[N+](=O)[O-],pubchem
2-nitrophenol,381.15,1,C1=CC=C(C(=C1)[N+](=O)[O-])O,pubchem
"2,4,6-trinitrophenol",423.15,1,C1=C(C=C(C(=C1[N+](=O)[O-])O)[N+](=O)[O-])[N+](=O)[O-],pubchem
"1,4-dichloro-2-nitrobenzene",408.15,1,C1=CC(=C(C=C1Cl)[N+](=O)[O-])Cl,pubchem
4-methyl-2-nitroaniline,430.15,1,CC1=CC(=C(C=C1)N)[N+](=O)[O-],pubchem
2-butan-2-ylphenol,385.15,1,CCC(C)C1=CC=CC=C1O,pubchem
5-methyl-2-propan-2-ylphenol,383.15,1,CC1=CC(=C(C=C1)C(C)C)O,pubchem
"2,4-dimethyl-1-nitrobenzene",380.15,1,CC1=CC(=C(C=C1)[N+](=O)[O-])C,pubchem
1-(bromomethyl)-2-methylbenzene,355.15,1,CC1=CC=CC=C1CBr,pubchem
2-chlorobenzaldehyde,361.15,1,C1=CC=C(C(=C1)C=O)Cl,pubchem
2-ethylphenol,351.15,1,CCC1=CC=CC=C1O,pubchem
2-hydroxybenzaldehyde,351.15,1,C1=CC=C(C(=C1)C=O)O,pubchem
2-methoxyaniline,372.15,1,COC1=CC=CC=C1N,pubchem
1-chloronaphthalene,394.15,1,C1=CC=C2C(=C1)C=CC=C2Cl,pubchem
naphthalen-1-ol,426.15,1,C1=CC=C2C(=C1)C=CC=C2O,pubchem
2-phenylphenol,397.15,1,C1=CC=C(C=C1)C2=CC=CC=C2O,pubchem
"2,4,6-tris[(dimethylamino)methyl]phenol",397.15,1,CN(C)CC1=CC(=C(C(=C1)CN(C)C)O)CN(C)C,pubchem
"1,3-diisocyanato-2-methylbenzene",405.15,1,CC1=C(C=CC=C1N=C=O)N=C=O,pubchem
"benzene-1,2-dicarbonitrile",435.15,1,C1=CC=C(C(=C1)C#N)C#N,pubchem
quinoline,332.15,1,C1=CC=C2C(=C1)C=CC=N2,pubchem
1-methoxy-2-nitrobenzene,415.15,1,COC1=CC=CC=C1[N+](=O)[O-],pubchem
N-butyl-N-phenylacetamide,414.15,1,CCCCN(C1=CC=CC=C1)C(=O)C,pubchem
2-methylnaphthalene,371.15,1,CC1=CC2=CC=CC=C2C=C1,pubchem
2-chloronaphthalene,398.15,1,C1=CC=C2C=C(C=CC2=C1)Cl,pubchem
naphthalen-2-amine,430.15,1,C1=CC=C2C=C(C=CC2=C1)N,pubchem
2-methylquinoline,352.15,1,CC1=NC2=CC=CC=C2C=C1,pubchem
"N,N-diethylaniline",358.15,1,CCN(CC)C1=CC=CC=C1,pubchem
"1,3-diphenylbenzene",464.15,1,C1=CC=C(C=C1)C2=CC(=CC=C2)C3=CC=CC=C3,pubchem
6-methylchromen-2-one,403.15,1,CC1=CC2=C(C=C1)OC(=O)C=C2,pubchem
"1,1'-biphenyl",386.15,1,C1=CC=C(C=C1)C2=CC=CC=C2,pubchem
1-bromo-4-phenylbenzene,416.15,1,C1=CC=C(C=C1)C2=CC=C(C=C2)Br,pubchem
4-phenylphenol,439.15,1,C1=CC=C(C=C1)C2=CC=C(C=C2)O,pubchem
10H-phenothiazine,475.15,1,C1=CC=C2C(=C1)NC3=CC=CC=C3S2,pubchem
1-nitro-4-phenylbenzene,416.15,1,C1=CC=C(C=C1)C2=CC=C(C=C2)[N+](=O)[O-],pubchem
"1,4-diphenylbenzene",480.15,1,C1=CC=C(C=C1)C2=CC=C(C=C2)C3=CC=CC=C3,pubchem
"1,2-dimethoxy-4-prop-2-enylbenzene",372.15,1,COC1=C(C=C(C=C1)CC=C)OC,pubchem
methyl benzoate,356.15,1,COC(=O)C1=CC=CC=C1,pubchem
"2-chloro-N,N-bis(prop-2-enyl)acetamide",459.15,1,C=CCN(CC=C)C(=O)CCl,pubchem
butyl 4-hydroxybenzoate,454.15,1,CCCCOC(=O)C1=CC=C(C=C1)O,pubchem
benzoyl benzenecarboperoxoate,353.15,1,C1=CC=C(C=C1)C(=O)OOC(=O)C2=CC=CC=C2,pubchem
"2-ethylhexane-1,3-diol",400.15,1,CCCC(C(CC)CO)O,pubchem
2-[2-[2-(2-ethylbutanoyloxy)ethoxy]ethoxy]ethyl 2-ethylbutanoate,469.15,1,CCC(CC)C(=O)OCCOCCOCCOC(=O)C(CC)CC,pubchem
1H-indene,351.15,1,C1C=CC2=CC=CC=C21,pubchem
2H-benzotriazole,443.15,1,C1=CC2=NNN=C2C=C1,pubchem
1-bromo-2-methylbenzene,352.15,1,CC1=CC=CC=C1Br,pubchem
"1,2-xylene",290.15,1,CC1=CC=CC=C1C,pubchem
1-chloro-2-methylbenzene,325.15,1,CC1=CC=CC=C1Cl,pubchem
"1,2-dichlorobenzene",339.15,1,C1=CC=C(C(=C1)Cl)Cl,pubchem
2-chloroaniline,371.15,1,C1=CC=C(C(=C1)N)Cl,pubchem
1-fluoro-2-methylbenzene,286.15,1,CC1=CC=CC=C1F,pubchem
2-methylaniline,358.15,1,CC1=CC=CC=C1N,pubchem
"benzene-1,2-diamine",429.15,1,C1=CC=C(C(=C1)N)N,pubchem
2-bromophenol,315.15,1,C1=CC=C(C(=C1)O)Br,pubchem
2-chlorophenol,337.15,1,C1=CC=C(C(=C1)O)Cl,pubchem
"1,2,4-trimethylbenzene",317.15,1,CC1=CC(=C(C=C1)C)C,pubchem
"3,4-dimethylaniline",371.15,1,CC1=C(C=C(C=C1)N)C,pubchem
"2,4-dimethylaniline",369.15,1,CC1=CC(=C(C=C1)N)C,pubchem
4-chloro-2-methylaniline,433.15,1,CC1=C(C=CC(=C1)Cl)N,pubchem
"2,4-dichloro-1-methylbenzene",472.15,1,CC1=C(C=C(C=C1)Cl)Cl,pubchem
3-chloro-4-methylaniline,373.15,1,CC1=C(C=C(C=C1)N)Cl,pubchem
"3,4-dichloroaniline",439.15,1,C1=CC(=C(C=C1N)Cl)Cl,pubchem