,compound,flashpoint,pure substance,smiles,source
9120,Ethyl2-benzofurancarboxylate,392.65,1,CCOC(=O)c1cc2ccccc2o1,le15
9121,2-(2-acetyloxyethoxy)ethyl acetate,383.15,1,CC(=O)OCCOCCOC(C)=O,le15
9122,"1,4-Phthalazinedione, 2,3-dihydro-, dihydrazone (9CI)",619.05,1,NN=c1[nH][nH]c(=NN)c2ccccc12,le15
9123,"1-Penten-3-one, 1-(4-methoxyphenyl)- (9CI)",424.65,1,CCC(=O)C=Cc1ccc(OC)cc1,le15
9124,"2-Propenoic acid, 2-methyl-, 2-phenylethyl ester",430.65,1,C=C(C)C(=O)OCCc1ccccc1,le15
9125,"2-Buten-1-ol, 3-methyl-, benzoate",398.25,1,CC(C)=CCOC(=O)c1ccccc1,le15
9126,"2-Propenoic acid, 3-phenyl-, propyl ester",429.25,1,CCCOC(=O)C=Cc1ccccc1,le15
9127,Dipropylene glycol monomethylether acetate,364.65,1,COC(C)COC(C)COC(C)=O,le15
9128,"3-Pyrazolidinone, 4,4-dimethyl-1-phenyl-",468.15,1,CC1(C)CN(c2ccccc2)NC1=O,le15
9129,"Benzenepropanal, alpha-methyl-4-(1-methylethyl)-",389.85,1,CC(C=O)Cc1ccc(C(C)C)cc1,le15
9130,"Phenol, 2-cyclohexyl-4-methyl-",389.85,1,Cc1ccc(O)c(C2CCCCC2)c1,le15
9131,"1-Heptanone, 1-phenyl-",384.35,1,CCCCCCC(=O)c1ccccc1,le15
9132,"Ethanol, 2-(2-(hexyloxy)ethoxy)-",413.15,1,CCCCCCOCCOCCO,le15
9133,1-(dipropoxymethoxy)propane,345.15,1,CCCOC(OCCC)OCCC,le15
9134,2-[di(propan-2-yloxy)methoxy]propane,315.15,1,CC(C)OC(OC(C)C)OC(C)C,le15
9135,"1,4-ditert-butylbenzene",370.05,1,CC(C)(C)c1ccc(C(C)(C)C)cc1,le15
9136,"Ethanol, 2-(octylthio)-",350.15,1,CCCCCCCCSCCO,le15
9137,1-chloro-2-iodoethane,310.25,1,ClCCI,le15
9138,naphthalene-2-carbonyl chloride,414.35,1,O=C(Cl)c1ccc2ccccc2c1,le15
9139,decanoyl chloride,379.25,1,CCCCCCCCCC(=O)Cl,le15
9140,"Benzoic acid, 2,6-dichloro-",407.65,1,O=C(O)c1c(Cl)cccc1Cl,le15
9141,"Benzoic acid, 2,3-dichloro-",412.55,1,O=C(O)c1cccc(Cl)c1Cl,le15
9142,"Benzoic acid, 2,5-dichloro-",408.95,1,O=C(O)c1cc(Cl)ccc1Cl,le15
9143,"Benzoic acid, 2,4-dichloro-",414.15,1,O=C(O)c1ccc(Cl)cc1Cl,le15
9144,"Benzoic acid, 3,4-dichloro-",419.15,1,O=C(O)c1ccc(Cl)c(Cl)c1,le15
9145,"Salicylaldehyde, 3,5-dichloro- (8CI)",370.05,1,O=Cc1cc(Cl)cc(Cl)c1O,le15
9146,"Benzoic acid, 3,5-dichloro-",413.85,1,O=C(O)c1cc(Cl)cc(Cl)c1,le15
9147,"2,4-dichloro-1-ethoxybenzene",354.05,1,CCOc1ccc(Cl)cc1Cl,le15
9148,"Toluene, alpha,alpha,alpha-trifluoro-m-nitro- (8CI)",360.15,1,O=[N+]([O-])c1cccc(C(F)(F)F)c1,le15
9149,"2-Nitro-alpha,alpha,alpha-trifluorotoluene",368.75,1,O=[N+]([O-])c1ccccc1C(F)(F)F,le15
9150,2-bromoethylcyclohexane,354.75,1,BrCCC1CCCCC1,le15
9151,"Glycine, N,N-bis(carboxymethyl)-",528.25,1,O=C(O)CN(CC(=O)O)CC(=O)O,le15
9152,"1H-Indole-3-acetic acid, 5-hydroxy-",527.55,1,O=C(O)Cc1c[nH]c2ccc(O)cc12,le15
9153,"Butanamide, N-(2-methylphenyl)-3-oxo-",416.15,1,CC(=O)CC(=O)Nc1ccccc1C,le15
9154,"6-methyl-7,8-dihydro-5H-[1,3]dioxolo[4,5-g]isoquinoline",396.15,1,CN1CCc2cc3c(cc2C1)OCO3,le15
9155,"2-Propenamide, N-(2-hydroxyethyl)-3-phenyl-",492.65,1,O=C(C=Cc1ccccc1)NCCO,le15
9156,"Pyridine, 3-(1-nitroso-2-piperidinyl)-, (S)- (9CI)",456.95,1,O=NN1CCCC[C@H]1c1cccnc1,le15
9157,"Imidodicarbonimidic diamide, N-(2-methylphenyl)-",475.75,1,Cc1ccccc1NC(=N)NC(=N)N,le15
9158,N-butyl-N-phenylacetamide,414.15,1,CCCCN(C(C)=O)c1ccccc1,le15
9159,"Benzamide, N,N-diethyl-3-methyl-",428.15,1,CCN(CC)C(=O)c1cccc(C)c1,le15
9160,"Benzeneacetamide, N,N-diethyl- (9CI)",407.45,1,CCN(CC)C(=O)Cc1ccccc1,le15
9161,"Benzamide, N,N-diethyl-2-methyl-",412.95,1,CCN(CC)C(=O)c1ccccc1C,le15
9162,"Benzamide, N,N-diethyl-4-methyl-",413.95,1,CCN(CC)C(=O)c1ccc(C)cc1,le15
9163,"2-Propanol, 1,1',1''-nitrilotris-",440.15,1,CC(O)CN(CC(C)O)CC(C)O,le15
9164,2-amino-4-butylsulfanylbutanoic acid,429.95,1,CCCCSCCC(N)C(=O)O,le15
9165,"1-Propanamine, 3-(diethoxymethylsilyl)-",348.75,1,CCOC(OCC)[SiH2]CCCN,le15
9166,"ethyl 2,2,2-trichloroacetate",338.15,1,CCOC(=O)C(Cl)(Cl)Cl,le15
9167,"Benzene, 1-bromo-4-chloro-",351.55,1,Clc1ccc(Br)cc1,le15
9168,"Benzene, 1-bromo-3-chloro-",353.75,1,Clc1cccc(Br)c1,le15
9169,1-bromo-2-chlorobenzene,352.55,1,Clc1ccccc1Br,le15
9170,trichloro(2-methylpropyl)silane,321.25,1,CC(C)C[Si](Cl)(Cl)Cl,le15
9171,"1,3-Butadiene, 1,1,2,3-tetrachloro-",348.95,1,C=C(Cl)C(Cl)=C(Cl)Cl,le15
9172,"(1Z,3Z)-1,2,3,4-tetrachlorobuta-1,3-diene",355.85,1,Cl/C=C(Cl)/C(Cl)=C/Cl,le15
9173,"Benzene, 1,4-dichloro-2-nitro-",382.55,1,O=[N+]([O-])c1cc(Cl)ccc1Cl,le15
9174,"Benzene, 1,2-dichloro-4-nitro-",396.15,1,O=[N+]([O-])c1ccc(Cl)c(Cl)c1,le15
9175,"Benzene, 2,4-dichloro-1-nitro-",390.05,1,O=[N+]([O-])c1ccc(Cl)cc1Cl,le15
9176,"Benzene, 1,3-dichloro-5-nitro-",376.55,1,O=[N+]([O-])c1cc(Cl)cc(Cl)c1,le15
9177,"Benzene, 1,2-dichloro-3-nitro-",397.05,1,O=[N+]([O-])c1cccc(Cl)c1Cl,le15
9178,"2-Pyridinecarboxylic acid, 3,6-dichloro-",422.72900000000004,1,O=C(O)c1nc(Cl)ccc1Cl,le15
9179,"1,2,3-Propanetricarboxylic acid, 2-hydroxy-",428.35,1,O=C(O)CC(O)(CC(=O)O)C(=O)O,le15
9180,"2H-1-Benzopyran-2-one, 5,7-dihydroxy-4-methyl-",470.95,1,Cc1cc(=O)oc2cc(O)cc(O)c12,le15
9181,"2H-1-Benzopyran-2-one, 7-hydroxy-6-methoxy- (9CI)",445.55,1,COc1cc2ccc(=O)oc2cc1O,le15
9182,ethyl 3-oxo-3-phenylpropanoate,386.25,1,CCOC(=O)CC(=O)c1ccccc1,le15
9183,"Oxiranecarboxylic acid, 3-phenyl-, ethyl ester",386.15,1,CCOC(=O)C1OC1c1ccccc1,le15
9184,"Acetic acid, phenoxy-, 2-propenyl ester",408.15,1,C=CCOC(=O)COc1ccccc1,le15
9185,"1,3-Benzodioxole, 4-methoxy-6-(2-propenyl)- (9CI)",362.95,1,C=CCc1cc(OC)c2c(c1)OCO2,le15
9186,"Anthracene, 1-methyl- (8CI)(9CI)",430.65,1,Cc1cccc2cc3ccccc3cc12,le15
9187,"Anthracene, 9-methyl-",430.65,1,Cc1c2ccccc2cc2ccccc12,le15
9188,"Phenanthrene, 1-methyl-",430.65,1,Cc1cccc2c1ccc1ccccc12,le15
9189,"Phenanthrene, 9-methyl-",430.65,1,Cc1cc2ccccc2c2ccccc12,le15
9190,"Phenanthrene, 2-methyl-",430.65,1,Cc1ccc2c(ccc3ccccc32)c1,le15
9191,"Isopentyl alcohol, benzoate (6CI,8CI)",382.55,1,CC(C)CCOC(=O)c1ccccc1,le15
9192,"Butanoic acid, 3-methyl-, phenylmethyl ester",372.05,1,CC(C)CC(=O)OCc1ccccc1,le15
9193,"Propanoic acid, 2-methyl-, 2-phenylethyl ester",378.95,1,CC(C)C(=O)OCCc1ccccc1,le15
9194,"Acetic acid, phenyl-, butyl ester",377.85,1,CCCCOC(=O)Cc1ccccc1,le15
9195,"Phenethyl alcohol, alpha,alpha-dimethyl-, acetate",374.95,1,CC(=O)OC(C)(C)Cc1ccccc1,le15
9196,(5-methyl-2-propan-2-ylphenyl) acetate,367.35,1,CC(=O)Oc1cc(C)ccc1C(C)C,le15
9197,"Benzeneacetic acid, 4-(2-methylpropyl)-",482.45,1,CC(C)Cc1ccc(CC(=O)O)cc1,le15
9198,"Benzaldehyde, 4-(pentyloxy)-",402.15,1,CCCCCOc1ccc(C=O)cc1,le15
9199,(2-methyl-5-propan-2-ylphenyl) acetate,367.75,1,CC(=O)Oc1cc(C(C)C)ccc1C,le15
9200,"Butanoic acid, 2-phenylethyl ester",383.05,1,CCCC(=O)OCCc1ccccc1,le15
9201,"1-Propanol, 3-phenyl-, propionate",390.05,1,CCC(=O)OCCCc1ccccc1,le15
9202,"Benzoic acid, pentyl ester",386.35,1,CCCCCOC(=O)c1ccccc1,le15
9203,"Propanol, ((1-methyl-1,2-ethanediyl)bis(oxy))bis-",404.35,1,CC(COCCCO)OCCCO,le15
9204,triethoxymethoxyethane,325.95,1,CCOC(OCC)(OCC)OCC,le15
9205,"Thiourea, N-phenyl-N'-2-propenyl-",397.55,1,C=CCNC(=S)Nc1ccccc1,le15
9206,"3-Buten-2-one, 4-(2,6,6-trimethyl-2-cyclohexen-1-yl)-, (3E)-",388.15,1,CC(=O)/C=C/C1C(C)=CCCC1(C)C,le15
9207,"3,5,9-Undecatrien-2-one, 6,10-dimethyl-",402.15,1,CC(=O)C=CC=C(C)CCC=C(C)C,le15
9208,"Phenol, 2-heptyl- (9CI)",426.15,1,CCCCCCCc1ccccc1O,le15
9209,"Silane, pentyltrimethoxy-",325.35,1,CCCCC[Si](OC)(OC)OC,le15
9210,"Nonanoic acid, 9-chloro-",409.05,1,O=C(O)CCCCCCCCCl,le15
9211,"Carbonochloridic acid, 2-ethylhexyl ester",354.85,1,CCCCC(CC)COC(=O)Cl,le15
9212,"Phenol, 4,5-dichloro-2-methoxy-",394.95,1,COc1cc(Cl)c(Cl)cc1O,le15
9213,"2,3,4,5,6-pentafluorobenzonitrile",302.15,1,N#Cc1c(F)c(F)c(F)c(F)c1F,le15
9214,"1,3-Isobenzofurandione, 5-nitro-",500.65,1,O=C1OC(=O)c2cc([N+](=O)[O-])ccc21,le15
9215,"Benzonitrile, 3,5-dinitro-",410.05,1,N#Cc1cc([N+](=O)[O-])cc([N+](=O)[O-])c1,le15
9216,"2-Propenoic acid, 3-(3-nitrophenyl)-",439.65,1,O=C(O)C=Cc1cccc([N+](=O)[O-])c1,le15
9217,"Cinnamic acid, o-nitro- (6CI,7CI,8CI)",444.95,1,O=C(O)C=Cc1ccccc1[N+](=O)[O-],le15
9218,"2-Propenoic acid, 3-(4-nitrophenyl)-",427.05,1,O=C(O)C=Cc1ccc([N+](=O)[O-])cc1,le15
9219,"Carbamic acid, methyl-, 2,3-dihydro-7-benzofuranyl ester",412.55,1,CNC(=O)Oc1cccc2c1OCC2,le15
9220,"Benzeneacetonitrile, alpha-phenyl-",424.75,1,N#CC(c1ccccc1)c1ccccc1,le15
9221,9-Anthracenamine,493.05,1,Nc1c2ccccc2cc2ccccc12,le15
9222,9-Aminophenanthrene,497.55,1,Nc1cc2ccccc2c2ccccc12,le15
9223,"1H-Indole, 2-phenyl-",449.75,1,c1ccc(-c2cc3ccccc3[nH]2)cc1,le15
9224,"9H-Carbazole, 9-ethenyl-",425.65,1,C=Cn1c2ccccc2c2ccccc21,le15
9225,3-Aminophenanthrene,502.15,1,Nc1ccc2ccc3ccccc3c2c1,le15
9226,2-Phenanthrenamine (9CI),502.15,1,Nc1ccc2c(ccc3ccccc32)c1,le15
9227,1-Phenanthrenamine (9CI),497.55,1,Nc1cccc2c1ccc1ccccc12,le15
9228,"Phenol, 2-(1-methylethyl)-, methylcarbamate",387.15,1,CNC(=O)Oc1ccccc1C(C)C,le15
9229,"Carbamic acid, methyl-, 2,3,4-trimethylphenyl ester",403.45,1,CNC(=O)Oc1ccc(C)c(C)c1C,le15
9230,"Benzoic acid, 4-amino-, butyl ester",457.75,1,CCCCOC(=O)c1ccc(N)cc1,le15
9231,"Anthranilic acid, butyl ester (6CI,7CI,8CI)",426.35,1,CCCCOC(=O)c1ccccc1N,le15
9232,"Benzoic acid, 2-amino-, 2-methylpropyl ester",421.05,1,CC(C)COC(=O)c1ccccc1N,le15
9233,"3-ethoxy-N,N-diethylaniline",352.25,1,CCOc1cccc(N(CC)CC)c1,le15
9234,"Ethanol, 2,2,2-trichloro-1-ethoxy-",322.05,1,CCOC(O)C(Cl)(Cl)Cl,le15
9235,"2,3,3-trichloroprop-2-enoyl chloride",305.95,1,O=C(Cl)C(Cl)=C(Cl)Cl,le15
9236,"Benzene, (1,1,2,2-tetrafluoroethoxy)-",318.95,1,FC(F)C(F)(F)Oc1ccccc1,le15
9237,"1,4-Benzenedicarboxylic acid, dimethyl ester",421.15,1,COC(=O)c1ccc(C(=O)OC)cc1,le15
9238,"Acetic acid, (3,4-methylenedioxy)benzyl ester",386.15,1,CC(=O)OCc1ccc2c(c1)OCO2,le15
9239,"2-Propenoic acid, 3-(3-hydroxy-4-methoxyphenyl)-",440.75,1,COc1ccc(C=CC(=O)O)cc1O,le15
9240,"2-Propenoic acid, 3-(4-hydroxy-3-methoxyphenyl)-",423.65,1,COc1cc(C=CC(=O)O)ccc1O,le15
9241,"dimethyl benzene-1,3-dicarboxylate",411.15,1,COC(=O)c1cccc(C(=O)OC)c1,le15
9242,"1,2-Benzenedicarboxylic acid, dimethyl ester",423.15,1,COC(=O)c1ccccc1C(=O)OC,le15
9243,"ethyl 1,3-benzodioxole-5-carboxylate",397.25,1,CCOC(=O)c1ccc2c(c1)OCO2,le15
9244,"Benzoic acid, 2-acetamido-6-amino-",509.25,1,CC(=O)Nc1cccc(N)c1C(=O)O,le15
9245,"1H-Purine-2,6-dione, 3,7-dihydro-1,3,7-trimethyl-",479.017,1,Cn1c(=O)c2c(ncn2C)n(C)c1=O,le15
9246,"9,10-Dihydro-9-oxoanthracene",423.45,1,O=C1c2ccccc2Cc2ccccc21,le15
9247,"Phosphonic acid, dibutyl ester",394.15,1,CCCCO[PH](=O)OCCCC,le15
9248,"Benzoic acid, 2-hydroxy-, 2-methylpropyl ester",383.15,1,CC(C)COC(=O)c1ccccc1O,le15
9249,"Benzoic acid, 4-hydroxy-, butyl ester",402.35,1,CCCCOC(=O)c1ccc(O)cc1,le15
9250,acridin-4-amine,510.35,1,Nc1cccc2cc3ccccc3nc12,le15
9251,2-Acridinamine (9CI),514.35,1,Nc1ccc2nc3ccccc3cc2c1,le15
9252,"Benzenecarboperoxoic acid, 1,1-dimethylethyl ester",382.85,1,CC(C)(C)OOC(=O)c1ccccc1,le15
9253,"N,N'-diphenylmethanediimine",419.25,1,C(=Nc1ccccc1)=Nc1ccccc1,le15
9254,"Benzoic acid, 2-hydroxy-, butyl ester",380.15,1,CCCCOC(=O)c1ccccc1O,le15
9255,"3,5-Cyclohexadiene-1,2-dione, 3-(1,1-dimethylethyl)-5-methoxy-",401.65,1,COC1=CC(=O)C(=O)C(C(C)(C)C)=C1,le15
9256,"Benzoic acid, 4-hydroxy-, 2-methylpropyl ester (9CI)",398.55,1,CC(C)COC(=O)c1ccc(O)cc1,le15
9257,3-Acridinamine (9CI),514.35,1,Nc1ccc2cc3ccccc3nc2c1,le15
9258,"3,4-diethoxybenzaldehyde",402.15,1,CCOc1ccc(C=O)cc1OCC,le15
9259,"1,3-Dioxolane-4-methanol, 2-(phenylmethyl)-",429.65,1,OCC1COC(Cc2ccccc2)O1,le15
9260,ethyl 4-ethoxybenzoate,387.15,1,CCOC(=O)c1ccc(OCC)cc1,le15
9261,"Ethanol, 2,2'-(oxybis(2,1-ethanediyloxy))bis-",449.85,1,OCCOCCOCCOCCO,le15
9262,"Benzenamine, N,N-diethyl-4-nitro-",418.05,1,CCN(CC)c1ccc([N+](=O)[O-])cc1,le15
9263,"Benzothiazole, 2-amino-6-ethoxy- (8CI)",442.25,1,CCOc1ccc2nc(N)sc2c1,le15
9264,dithiophen-2-ylmethanone,422.25,1,O=C(c1cccs1)c1cccs1,le15
9265,[(E)-1-phenylprop-1-en-2-yl]benzene,397.65,1,C/C(=C\c1ccccc1)c1ccccc1,le15
9266,"1,3-Benzenediol, 4-hexyl-",428.35,1,CCCCCCc1ccc(O)cc1O,le15
9267,"Benzene, (2-(1-ethoxyethoxy)ethyl)-",350.85,1,CCOC(C)OCCc1ccccc1,le15
9268,1-(2-hydroperoxypropan-2-yl)-4-propan-2-ylbenzene,410.15,1,CC(C)c1ccc(C(C)(C)OO)cc1,le15
9269,1-Cyclohexyl-3-cyclopentylpropane,379.05,1,C1CCC(CCCC2CCCC2)CC1,le15
9270,2-cyclohexylethylcyclohexane,379.85,1,C1CCC(CCC2CCCCC2)CC1,le15
9271,p-Trifluoromethylbenzyl chloride,347.05,1,FC(F)(F)c1ccc(CCl)cc1,le15
9272,"Propanedioic acid, chloro-, diethyl ester",376.45,1,CCOC(=O)C(Cl)C(=O)OCC,le15
9273,dichlorophosphorylbenzene,382.95,1,O=P(Cl)(Cl)c1ccccc1,le15
9274,"Butyric acid, 2-bromo-, ethyl ester (8CI)",342.65,1,CCOC(=O)C(Br)CC,le15
9275,"Butanoic acid, 4-bromo-, ethyl ester (9CI)",363.75,1,CCOC(=O)CCCBr,le15
9276,"1-Butanol, 4-bromo-, acetate",382.15,1,CC(=O)OCCCCBr,le15
9277,"Valeric acid, 5-bromo-, methyl ester (8CI)",372.55,1,COC(=O)CCCCBr,le15
9278,"Propanoic acid, 2-bromo-2-methyl-, ethyl ester",333.15,1,CCOC(=O)C(C)(C)Br,le15
9279,"Hexanoic acid, 6-bromo-",340.15,1,O=C(O)CCCCCBr,le15
9280,"Benzoic acid, 4-nitro-, ethyl ester",421.35,1,CCOC(=O)c1ccc([N+](=O)[O-])cc1,le15
9281,ethyl 2-nitrobenzoate,399.25,1,CCOC(=O)c1ccccc1[N+](=O)[O-],le15
9282,"Propane, 1,2-epoxy-3-(p-nitrophenoxy)-",450.35,1,O=[N+]([O-])c1ccc(OCC2CO2)cc1,le15
9283,ethyl 3-nitrobenzoate,410.15,1,CCOC(=O)c1cccc([N+](=O)[O-])c1,le15
9284,"Dibenz(b,f)(1,4)oxazepine",398.15,1,C1=Nc2ccccc2Oc2ccccc21,le15
9285,"7H-Dibenz(a,j)acrid-14-one",428.199,1,O=C1C=CC23C=CC=CC2Nc2ccc4ccccc4c2C3=C1,le15
9286,"Benzoxazole, 2-phenyl-",391.85,1,c1ccc(-c2nc3ccccc3o2)cc1,le15
9287,"9H-Fluorene, 2-nitroso-",428.25,1,O=Nc1ccc2c(c1)Cc1ccccc1-2,le15
9288,1-Phenazinamine (9CI),518.55,1,Nc1cccc2nc3ccccc3nc12,le15
9289,2-Phenazinamine (9CI),522.85,1,Nc1ccc2nc3ccccc3nc2c1,le15
9290,N-(4-methylphenyl)-1-phenylmethanimine,418.151,1,Cc1ccc(N=Cc2ccccc2)cc1,le15
9291,"Benzenamine, 4-(2-phenylethenyl)-, (E)- (9CI)",460.05,1,Nc1ccc(/C=C/c2ccccc2)cc1,le15
9292,N-(2-methylphenyl)-1-phenylmethanimine,613.35,1,Cc1ccccc1N=Cc1ccccc1,le15
9293,N-(3-methylphenyl)-1-phenylmethanimine,421.55,1,Cc1cccc(N=Cc2ccccc2)c1,le15
9294,"Ethanol, 2,2'-((3-methylphenyl)imino)bis-",474.95,1,Cc1cccc(N(CCO)CCO)c1,le15
9295,"Cyclohexanamine, N-cyclohexyl-N-methyl-",383.15,1,CN(C1CCCCC1)C1CCCCC1,le15
9296,"Toluene, alpha,alpha,alpha-trichloro-",370.15,1,ClC(Cl)(Cl)c1ccccc1,le15
9297,"1,2-dichloro-4-(chloromethyl)benzene",433.35,1,ClCc1ccc(Cl)c(Cl)c1,le15
9298,"2,4-dichloro-1-(chloromethyl)benzene",463.15,1,ClCc1ccc(Cl)cc1Cl,le15
9299,"m-Toluidine, 6-chloro-alpha,alpha,alpha-trifluoro-",352.75,1,Nc1cc(C(F)(F)F)ccc1Cl,le15
9300,"1,1,1,3-tetrachloropropan-2-one",336.95,1,O=C(CCl)C(Cl)(Cl)Cl,le15
9301,"2-(Chloromethyl)-1,2,3-trichloropropane",355.05,1,ClCC(Cl)(CCl)CCl,le15
9302,iodocyclopentane,339.85,1,IC1CCCC1,le15
9303,"2,2,2-trifluoroethyl 2,2,2-trifluoroacetate",273.15,1,O=C(OCC(F)(F)F)C(F)(F)F,le15
9304,"Benzaldehyde, pentafluoro- (8CI)(9CI)",350.95,1,O=Cc1c(F)c(F)c(F)c(F)c1F,le15
9305,"1,1,1,2,3,3-hexafluoro-4-methoxybutane",275.15,1,COCC(F)(F)C(F)C(F)(F)F,le15
9306,"Benzaldehyde, 2,4-dinitro-",475.65,1,O=Cc1ccc([N+](=O)[O-])cc1[N+](=O)[O-],le15
9307,"Benzaldehyde, 2,6-dinitro-",465.25,1,O=Cc1c([N+](=O)[O-])cccc1[N+](=O)[O-],le15
9308,"1,3,4-Oxadiazole, 2-amino-5-(5-nitro-2-furyl)-",478.05,1,Nc1nnc(-c2ccc([N+](=O)[O-])o2)o1,le15
9309,"m-Xylene, 2,4-dinitro-",414.35,1,Cc1ccc([N+](=O)[O-])c(C)c1[N+](=O)[O-],le15
9310,"Benzene, 1,2-dimethyl-3,5-dinitro-",438.75,1,Cc1cc([N+](=O)[O-])cc([N+](=O)[O-])c1C,le15
9311,"1H-Purine-2,6,8(3H)-trione, 7,9-dihydro-1,3-dimethyl-",541.55,1,Cn1c(=O)c2[nH]c(=O)[nH]c2n(C)c1=O,le15
9312,ethyl 4-hydroxy-3-methoxybenzoate,395.55,1,CCOC(=O)c1ccc(O)c(OC)c1,le15
9313,"methyl 3,4-dimethoxybenzoate",395.35,1,COC(=O)c1ccc(OC)c(OC)c1,le15
9314,"Benzaldehyde, 2,4,5-trimethoxy-",422.15,1,COc1cc(OC)c(OC)cc1C=O,le15
9315,"Phenazine, 5-oxide",471.45,1,[O-][n+]1c2ccccc2nc2ccccc21,le15
9316,"1-Butanone, 1-(2,4,5-trihydroxyphenyl)-",488.55,1,CCCC(=O)c1cc(O)c(O)cc1O,le15
9317,"Ethanone, 1-(4-hydroxy-3,5-dimethoxyphenyl)- (9CI)",404.85,1,COc1cc(C(C)=O)cc(OC)c1O,le15
9318,1-(4-phenylphenyl)ethanone,413.05,1,CC(=O)c1ccc(-c2ccccc2)cc1,le15
9319,(2-methylphenyl)-phenylmethanone,392.15,1,Cc1ccccc1C(=O)c1ccccc1,le15
9320,"1,2-diphenylethanone",410.15,1,O=C(Cc1ccccc1)c1ccccc1,le15
9321,"Oxirane, 2,3-diphenyl-, cis- (9CI)",382.15,1,c1ccc([C@@H]2O[C@@H]2c2ccccc2)cc1,le15
9322,"9H-Fluorene-2,7-diamine (9CI)",556.75,1,Nc1ccc2c(c1)Cc1cc(N)ccc1-2,le15
9323,"Formamidine, N,N'-diphenyl- (6CI,7CI,8CI)",421.25,1,C(=Nc1ccccc1)Nc1ccccc1,le15
9324,(4-methylphenyl)-phenyldiazene,431.45,1,Cc1ccc(N=Nc2ccccc2)cc1,le15
9325,2-phenylpropan-2-ylbenzene,395.05,1,CC(C)(c1ccccc1)c1ccccc1,le15
9326,1-phenylpropylbenzene,396.55,1,CCC(c1ccccc1)c1ccccc1,le15
9327,"Methane, di-p-tolyl-",408.35,1,Cc1ccc(Cc2ccc(C)cc2)cc1,le15
9328,1-phenylpropan-2-ylbenzene,385.05,1,CC(Cc1ccccc1)c1ccccc1,le15
9329,"Biphenyl, 4-isopropyl-",406.45,1,CC(C)c1ccc(-c2ccccc2)cc1,le15
9330,3-phenylpropylbenzene,402.35,1,c1ccc(CCCc2ccccc2)cc1,le15
9331,"3-Cyclohexene-1-methanol, alpha,alpha,4-trimethyl-, acetate",356.15,1,CC(=O)OC(C)(C)C1CC=C(C)CC1,le15
9332,"2,6-Octadien-1-ol, 3,7-dimethyl-, acetate, (2E)-",372.05,1,CC(=O)OC/C=C(\C)CCC=C(C)C,le15
9333,"Bicyclo(2.2.1)heptan-2-ol, 1,7,7-trimethyl-, acetate, (1R,2R,4R)-rel-",360.95,1,CC(=O)O[C@@H]1C[C@H]2CC[C@]1(C)C2(C)C,le15
9334,"2,6-Octadien-1-ol, 3,7-dimethyl-, acetate, (2Z)-",372.05,1,CC(=O)OC/C=C(/C)CCC=C(C)C,le15
9335,"Cyclohexanepropanoic acid, 2-propenyl ester",381.85,1,C=CCOC(=O)CCC1CCCCC1,le15
9336,"3,7-dimethylocta-2,6-dienyl acetate",372.05,1,CC(=O)OCC=C(C)CCC=C(C)C,le15
9337,"3,7-dimethylocta-1,6-dien-3-yl acetate",473.45,1,C=CC(C)(CCC=C(C)C)OC(C)=O,le15
9338,"(4,7,7-trimethyl-3-bicyclo[2.2.1]heptanyl) acetate",362.05,1,CC(=O)OC1CC2CCC1(C)C2(C)C,le15
9339,"Phosphonodithious acid, methyl-, dipropyl ester",382.15,1,CCCSP(C)SCCC,le15
9340,"9-Undecen-2-one, 6,10-dimethyl-",377.35,1,CC(=O)CCCC(C)CCC=C(C)C,le15
9341,"1-Propanethiol, 3-(trimethoxysilyl)-",322.05,1,CO[Si](CCCS)(OC)OC,le15
9342,1-(2-piperidin-1-ylethyl)piperidine,380.85,1,C1CCN(CCN2CCCCC2)CC1,le15
9343,octylcyclohexane,378.55,1,CCCCCCCCC1CCCCC1,le15
9344,nonylcyclopentane,377.35,1,CCCCCCCCCC1CCCC1,le15
9345,1-Tetradecene,388.75,1,C=CCCCCCCCCCCCC,le15
9346,"Benzenamine, 2,4,6-trichloro-",383.25,1,Nc1c(Cl)cc(Cl)cc1Cl,le15
9347,"Aniline, 2,4,5-trichloro- (8CI)",398.05,1,Nc1cc(Cl)c(Cl)cc1Cl,le15
9348,"3,4,5-Trichloroaniline",417.35,1,Nc1cc(Cl)c(Cl)c(Cl)c1,le15
9349,"2,4-Imidazolidinedione, 1,3-dichloro-5,5-dimethyl-",356.85,1,CC1(C)C(=O)N(Cl)C(=O)N1Cl,le15
9350,2-Hydroxypropyl bromoacetate,388.65,1,CC(O)COC(=O)CBr,le15
9351,"Naphthalene, 1,4-dichloro-",410.75,1,Clc1ccc(Cl)c2ccccc12,le15
9352,"1,2-dichloronaphthalene",414.75,1,Clc1ccc2ccccc2c1Cl,le15
9353,"2,6-dichloronaphthalene",404.85,1,Clc1ccc2cc(Cl)ccc2c1,le15
9354,"1,7-dichloronaphthalene",405.25,1,Clc1ccc2cccc(Cl)c2c1,le15
9355,"1,3-dichloronaphthalene",412.65,1,Clc1cc(Cl)c2ccccc2c1,le15
9356,"1,9-dichlorononane",371.15,1,ClCCCCCCCCCCl,le15
9357,"Benzenamine, 4,6-dinitro-3-methyl- (9CI)",475.65,1,Cc1cc(N)c([N+](=O)[O-])cc1[N+](=O)[O-],le15
9358,"Alanine, 3-(3,4-dihydroxyphenyl)-, L-",498.15,1,N[C@@H](Cc1ccc(O)c(O)c1)C(=O)O,le15
9359,"Benzene, 1-(dimethoxymethyl)-2-nitro-",372.05,1,COC(OC)c1ccccc1[N+](=O)[O-],le15
9360,"Ethanol, 2-((4-amino-2-nitrophenyl)amino)-",505.05,1,Nc1ccc(NCCO)c([N+](=O)[O-])c1,le15
9361,"Benzenesulfonyl isocyanate, 4-methyl-",401.65,1,Cc1ccc(S(=O)(=O)N=C=O)cc1,le15
9362,"9H-Fluoren-2-amine, N-hydroxy- (9CI)",458.95,1,ONc1ccc2c(c1)Cc1ccccc1-2,le15
9363,"Phenol, 4-((phenylmethylene)amino)- (9CI)",512.15,1,Oc1ccc(N=Cc2ccccc2)cc1,le15
9364,"Methanone, (4-aminophenyl)phenyl-",416.15,1,Nc1ccc(C(=O)c2ccccc2)cc1,le15
9365,"1-Triazene, 1,3-diphenyl-",411.35,1,c1ccc(N=NNc2ccccc2)cc1,le15
9366,"s-Triazin-2-ol, 4-(ethylamino)-6-(isopropylamino)- (7CI,8CI)",392.85,1,CCNc1nc(O)nc(NC(C)C)n1,le15
9367,N-benzyl-1-phenylmethanamine,416.45,1,c1ccc(CNCc2ccccc2)cc1,le15
9368,4-methyl-N-(4-methylphenyl)aniline,440.75,1,Cc1ccc(Nc2ccc(C)cc2)cc1,le15
9369,4-(3-phenylpropyl)pyridine,386.15,1,c1ccc(CCCc2ccncc2)cc1,le15
9370,N-benzyl-2-methylaniline,429.45,1,Cc1ccccc1NCc1ccccc1,le15
9371,N-benzyl-4-methylaniline,425.95,1,Cc1ccc(NCc2ccccc2)cc1,le15
9372,"1,2-diphenylethanamine",409.95,1,NC(Cc1ccccc1)c1ccccc1,le15
9373,Azacyclotridecan-2-one,461.35,1,O=C1CCCCCCCCCCCN1,le15