compound,flashpoint,pure substance,smiles,source
3-nonyne,311.0,1.0,CCC#CCCCCC,carroll11
4-nonyne,308.0,1.0,CCCC#CCCCC,carroll11
4-octyne,291.0,1.0,CCCC#CCCC,carroll11
3-decyne,325.0,1.0,CCC#CCCCCCC,carroll11
4-decyne,325.0,1.0,CCCC#CCCCCC,carroll11
4-undecyne,339.0,1.0,CCCC#CCCCCCC,carroll11
5-undecyne,339.0,1.0,CCCCC#CCCCCC,carroll11
"3,3-dimethyl-1-butyne",239.0,1.0,CC(C#C)(C)C,carroll11
4-methyl-1-pentyne,249.0,1.0,CC(CC#C)C,carroll11
"4,4-dimethyl-2-pentyne",263.0,1.0,CC(C#CC)(C)C,carroll11
5-methyl-1-hexyne,266.0,1.0,CC(CCC#C)C,carroll11
"1,6-heptadiyne",282.0,1.0,C#CCCCC#C,carroll11
"1,7-octadiyne",296.0,1.0,C#CCCCCC#C,carroll11
"1,8-nonadiyne",315.0,1.0,C#CCCCCCC#C,carroll11
benzene,262.0,1.0,C1=CC=CC=C1,carroll11
toluene,280.0,1.0,CC1=CC=CC=C1,carroll11
ethylbenzene,294.0,1.0,C(C)C1=CC=CC=C1,carroll11
propylbenzene,303.0,1.0,C(CC)C1=CC=CC=C1,carroll11
butylbenzene,323.0,1.0,C(CCC)C1=CC=CC=C1,carroll11
pentylbenzene,339.0,1.0,C(CCCC)C1=CC=CC=C1,carroll11
hexylbenzene,356.0,1.0,C(CCCCC)C1=CC=CC=C1,carroll11
heptylbenzene,368.0,1.0,C(CCCCCC)C1=CC=CC=C1,carroll11
octylbenzene,380.0,1.0,C(CCCCCCC)C1=CC=CC=C1,carroll11
nonylbenzene,390.0,1.0,C(CCCCCCCC)C1=CC=CC=C1,carroll11
undecylbenzene,417.0,1.0,C(CCCCCCCCCC)C1=CC=CC=C1,carroll11
p-xylene,298.0,1.0,C1(=CC=C(C=C1)C)C,carroll11
m-xylene,298.0,1.0,C1(=CC(=CC=C1)C)C,carroll11
o-xylene,303.0,1.0,C=1(C(=CC=CC1)C)C,carroll11
cumene,304.0,1.0,C1(=CC=CC=C1)C(C)C,carroll11
p-ethyltoluene,309.0,1.0,C(C)C1=CC=C(C)C=C1,carroll11
m-ethyltoluene,311.0,1.0,C(C)C=1C=C(C)C=CC1,carroll11
o-ethyltoluene,312.0,1.0,C(C)C1=C(C)C=CC=C1,carroll11
"1,3,5-trimethylbenzene",317.0,1.0,CC1=CC(=CC(=C1)C)C,carroll11
"1,2,4-trimethylbenzene",319.0,1.0,CC1=C(C=C(C=C1)C)C,carroll11
tert-butylbenzene,317.0,1.0,C(C)(C)(C)C1=CC=CC=C1,carroll11
isobutylbenzene,323.0,1.0,C(C(C)C)C1=CC=CC=C1,carroll11
m-isopropyltoluene,320.0,1.0,C(C)(C)C=1C=C(C)C=CC1,carroll11
"1,2,3-trimethylbenzene",324.0,1.0,CC1=C(C(=CC=C1)C)C,carroll11
p-isopropyltoluene,320.0,1.0,C(C)(C)C1=CC=C(C)C=C1,carroll11
o-isopropyltoluene,323.0,1.0,C(C)(C)C1=C(C)C=CC=C1,carroll11
m-diethylbenzene,324.0,1.0,C(C)C1=CC(=CC=C1)CC,carroll11
m-propyltoluene,325.0,1.0,C(CC)C=1C=C(C)C=CC1,carroll11
p-diethylbenzene,328.0,1.0,C(C)C1=CC=C(C=C1)CC,carroll11
o-diethylbenzene,328.0,1.0,C(C)C1=C(C=CC=C1)CC,carroll11
neopentylbenzene,323.0,1.0,C(C(C)(C)C)C1=CC=CC=C1,carroll11
"2-ethyl-1,4-dimethylbenzene",329.0,1.0,C(C)C1=C(C=CC(=C1)C)C,carroll11
"1-ethyl-2,4-dimethylbenzene",330.0,1.0,C(C)C1=C(C=C(C=C1)C)C,carroll11
"4-ethyl-1,2-dimethylbenzene",331.0,1.0,C(C)C1=CC(=C(C=C1)C)C,carroll11
1-ethyl-3-isopropylbenzene,336.0,1.0,C(C)C1=CC(=CC=C1)C(C)C,carroll11
"1-ethyl-2,3-dimethylbenzene",338.0,1.0,C(C)C1=C(C(=CC=C1)C)C,carroll11
1-phenyl-2-methylbutane,337.0,1.0,C1(=CC=CC=C1)CC(CC)C,carroll11
isopentylbenzene,335.0,1.0,C(CC(C)C)C1=CC=CC=C1,carroll11
"1,2,3,5-tetramethylbenzene",336.0,1.0,CC1=C(C(=CC(=C1)C)C)C,carroll11
"1,3-diisopropylbenzene",349.0,1.0,C(C)(C)C1=CC(=CC=C1)C(C)C,carroll11
"1,2,3,4-tetramethylbenzene",341.0,1.0,CC1=C(C(=C(C=C1)C)C)C,carroll11
2-phenyl-2-methylbutane,332.0,1.0,C1(=CC=CC=C1)C(C)(CC)C,carroll11
"1,2-dimethyl-3-propylbenzene",345.0,1.0,CC1=C(C(=CC=C1)CCC)C,carroll11
"1,4-diisopropylbenzene",349.0,1.0,C(C)(C)C1=CC=C(C=C1)C(C)C,carroll11
"1,2,3,4-tetrahydronaphthalene",344.0,1.0,C1CCCC2=CC=CC=C12,carroll11
cyclohexylbenzene,371.0,1.0,C1(CCCCC1)C1=CC=CC=C1,carroll11
(1-methylheptyl)benzene,373.0,1.0,CC(CCCCCC)C1=CC=CC=C1,carroll11
diphenylmethane,400.0,1.0,C1(=CC=CC=C1)CC1=CC=CC=C1,carroll11
ethylformate,254.0,1.0,C(C)OC=O,carroll11
propylformate,270.0,1.0,C(CC)OC=O,carroll11
butylformate,291.0,1.0,C(CCC)OC=O,carroll11
pentylformate,299.0,1.0,C(CCCC)OC=O,carroll11
hexylformate,317.0,1.0,C(CCCCC)OC=O,carroll11
heptylformate,333.0,1.0,C(CCCCCC)OC=O,carroll11
octylformate,342.0,1.0,C(CCCCCCC)OC=O,carroll11
nonylformate,361.0,1.0,C(CCCCCCCC)OC=O,carroll11
decylformate,373.0,1.0,C(CCCCCCCCC)OC=O,carroll11
isopropylformate,259.0,1.0,C(C)(C)OC=O,carroll11
tert-butylformate,264.0,1.0,C(C)(C)(C)OC=O,carroll11
isopentylformate,295.0,1.0,C(CC(C)C)OC=O,carroll11
isobutylformate,277.0,1.0,C(C(C)C)OC=O,carroll11
cyclohexylformate,324.0,1.0,C1(CCCCC1)C(=O)[O-],carroll11
methylacetate,260.0,1.0,COC(C)=O,carroll11
ethylacetate,269.0,1.0,C(C)OC(C)=O,carroll11
propylacetate,283.0,1.0,C(CC)OC(C)=O,carroll11
butylacetate,298.0,1.0,C(CCC)OC(C)=O,carroll11
pentylacetate,312.0,1.0,C(CCCC)OC(C)=O,carroll11
hexylacetate,328.0,1.0,C(CCCCC)OC(C)=O,carroll11
heptylacetate,340.0,1.0,C(CCCCCC)OC(C)=O,carroll11
octylacetate,355.0,1.0,C(CCCCCCC)OC(C)=O,carroll11
nonylacetate,364.0,1.0,C(CCCCCCCC)OC(C)=O,carroll11
decylacetate,377.0,1.0,C(CCCCCCCCC)OC(C)=O,carroll11
undecylacetate,384.0,1.0,C(CCCCCCCCCC)OC(C)=O,carroll11
dodecylacetate,393.0,1.0,C(CCCCCCCCCCC)OC(C)=O,carroll11
isopropylacetate,275.0,1.0,C(C)(C)OC(C)=O,carroll11
tert-butylacetate,277.0,1.0,C(C)(C)(C)OC(C)=O,carroll11
sec-butylacetate,289.0,1.0,C(C)(CC)OC(C)=O,carroll11
isobutylacetate,291.0,1.0,C(C(C)C)OC(C)=O,carroll11
2-pentylacetate,305.0,1.0,C(CCCC)CC(=O)[O-],carroll11
isopentylacetate,309.0,1.0,C(CC(C)C)OC(C)=O,carroll11
tert-pentylacetate,298.0,1.0,C(C)(C)(CC)OC(C)=O,carroll11
cyclohexylacetate,331.0,1.0,C1(CCCCC1)CC(=O)[O-],carroll11
cyclodecylacetate,379.0,1.0,C1(CCCCCCCCC1)CC(=O)[O-],carroll11
methylpropanoate,271.0,1.0,COC(CC)=O,carroll11
ethylpropanoate,285.0,1.0,C(C)OC(CC)=O,carroll11
tert-butylpropanoate,293.0,1.0,C(C)(C)(C)OC(CC)=O,carroll11
propylpropanoate,295.0,1.0,C(CC)OC(CC)=O,carroll11
butylpropanoate,311.0,1.0,C(CCC)OC(CC)=O,carroll11
isopentylpropanoate,319.0,1.0,C(CC(C)C)OC(CC)=O,carroll11
pentylpropanoate,326.0,1.0,C(CCCC)OC(CC)=O,carroll11
hexylpropanoate,338.0,1.0,C(CCCCC)OC(CC)=O,carroll11
cyclohexylpropanoate,341.0,1.0,C1(CCCCC1)OC(CC)=O,carroll11
ethylbutanoate,293.0,1.0,C(C)OC(CCC)=O,carroll11
isopropylbutanoate,297.0,1.0,C(C)(C)OC(CCC)=O,carroll11
propylbutanoate,308.0,1.0,C(CC)OC(CCC)=O,carroll11
isobutylbutanoate,319.0,1.0,C(C(C)C)OC(CCC)=O,carroll11
butylbutanoate,322.0,1.0,C(CCC)OC(CCC)=O,carroll11
isopentylbutanoate,332.0,1.0,C(CC(C)C)OC(CCC)=O,carroll11
methylpentanoate,295.0,1.0,COC(CCCC)=O,carroll11
ethylpentanoate,308.0,1.0,C(C)OC(CCCC)=O,carroll11
methylhexanoate,314.0,1.0,COC(CCCCC)=O,carroll11
methylheptanoate,325.0,1.0,COC(CCCCCC)=O,carroll11
methyloctanoate,342.0,1.0,COC(CCCCCCC)=O,carroll11
methyl2-methylpropanoate,276.0,1.0,COC(C(C)C)=O,carroll11
ethyl2-methylpropanoate,286.0,1.0,C(C)OC(C(C)C)=O,carroll11
methylcyclopropanecarboxylate,291.0,1.0,COC(=O)C1CC1,carroll11
propyl2-methylpropanoate,303.0,1.0,C(CC)OC(C(C)C)=O,carroll11
isobutyl2-methylpropanoate,311.0,1.0,C(C(C)C)OC(C(C)C)=O,carroll11
methylcyclohexanecarboxylate,333.0,1.0,COC(=O)C1CCCCC1,carroll11
4-methyl-4-vinylbutyrolactone,348.0,1.0,CC1(CCC(=O)O1)C=C,carroll11
isopropylmethylether,226.0,1.0,C(C)(C)OC,carroll11
diethylether,233.0,1.0,C(C)OCC,carroll11
propyleneoxide,236.0,1.0,C1C(C)O1,carroll11
tert-butylmethylether,245.0,1.0,C(C)(C)(C)OC,carroll11
isobutylmethylether,244.0,1.0,C(C(C)C)OC,carroll11
2-methoxybutane,244.0,1.0,COC(C)CC,carroll11
ethylpropylether,248.0,1.0,C(C)OCCC,carroll11
tetrahydrofuran,252.0,1.0,O1CCCC1,carroll11
diisopropylether,245.0,1.0,C(C)(C)OC(C)C,carroll11
butylmethylether,263.0,1.0,C(CCC)OC,carroll11
2-methyltetrahydrofuran,261.0,1.0,CC1OCCC1,carroll11
methyltert-pentylether,266.0,1.0,COC(C)(C)CC,carroll11
butylethylether,268.0,1.0,C(CCC)OCC,carroll11
cyclopentylmethylether,272.0,1.0,C1(CCCC1)OC,carroll11
di-sec-butylether,288.0,1.0,C(C)(CC)OC(C)CC,carroll11
cyclohexeneoxide,297.0,1.0,C12C(CCCC1)O2,carroll11
cyclohexylmethylether,294.0,1.0,C1(CCCCC1)OC,carroll11
dibutylether,298.0,1.0,C(CCC)OCCCC,carroll11
diisopentylether,319.0,1.0,C(CC(C)C)OCCC(C)C,carroll11
dipentylether,330.0,1.0,C(CCCC)OCCCCC,carroll11
diethoxymethane,268.0,1.0,C(C)OCOCC,carroll11
"1,1-dimethoxyethane",256.0,1.0,COC(C)OC,carroll11
"1,2-dimethoxyethane",271.0,1.0,COCCOC,carroll11
isopropylglycidylether,306.0,1.0,C(C)(C)OCC1CO1,carroll11
triethoxymethane,308.0,1.0,C(C)OC(OCC)OCC,carroll11
"1,3-dioxolane",267.0,1.0,O1COCC1,carroll11
"2-methyl-1,3-dioxolane",271.0,1.0,CC1OCCO1,carroll11
"1,4-dioxane",284.0,1.0,O1CCOCC1,carroll11
propanal,246.0,1.0,C(CC)=O,carroll11
butanal,266.0,1.0,C(CCC)=O,carroll11
pentanal,281.0,1.0,C(CCCC)=O,carroll11
hexanal,298.0,1.0,C(CCCCC)=O,carroll11
heptanal,313.0,1.0,C(CCCCCC)=O,carroll11
octanal,324.0,1.0,C(CCCCCCC)=O,carroll11
nonanal,336.0,1.0,C(CCCCCCCC)=O,carroll11
decanal,356.0,1.0,C(CCCCCCCCC)=O,carroll11
undecanal,368.0,1.0,C(CCCCCCCCCC)=O,carroll11
dodecanal,375.0,1.0,C(CCCCCCCCCCC)=O,carroll11
2-methylpropanal,254.0,1.0,CC(C=O)C,carroll11
acetone,253.0,1.0,CC(=O)C,carroll11
2-butanone,266.0,1.0,CC(CC)=O,carroll11
2-heptanone,312.0,1.0,CC(CCCCC)=O,carroll11
2-octanone,329.0,1.0,CC(CCCCCC)=O,carroll11
2-nonanone,341.0,1.0,CC(CCCCCCC)=O,carroll11
2-decanone,358.0,1.0,CC(CCCCCCCC)=O,carroll11
2-undecanone,362.0,1.0,CC(CCCCCCCCC)=O,carroll11
2-dodecanone,381.0,1.0,CC(CCCCCCCCCC)=O,carroll11
3-pentanone,280.0,1.0,CCC(CC)=O,carroll11
3-hexanone,296.0,1.0,CCC(CCC)=O,carroll11
3-heptanone,311.0,1.0,CCC(CCCC)=O,carroll11
3-octanone,324.0,1.0,CCC(CCCCC)=O,carroll11
3-nonanone,336.0,1.0,CCC(CCCCCC)=O,carroll11
3-undecanone,362.0,1.0,CCC(CCCCCCCC)=O,carroll11
3-methyl-2-butanone,272.0,1.0,CC(C(C)=O)C,carroll11
cyclobutanone,283.0,1.0,C1(CCC1)=O,carroll11
pinacolone,278.0,1.0,CC(C(C)(C)C)=O,carroll11
cyclopropylmethylketone,286.0,1.0,C1(CC1)C(=O)C,carroll11
2-methyl-3-pentanone,289.0,1.0,CC(C)C(CC)=O,carroll11
4-methyl-2-pentanone,287.0,1.0,CC(CC(C)=O)C,carroll11
2-ethylbutanal,294.0,1.0,C(C)C(C=O)CC,carroll11
3-methyl-2-pentanone,285.0,1.0,CC(C(C)=O)CC,carroll11
cyclopentanone,299.0,1.0,C1(CCCC1)=O,carroll11
3-ethylcyclopentanone,319.0,1.0,C(C)C1CC(CC1)=O,carroll11
"trans-3,4-dimethylcyclopentanone",314.0,1.0,C[C@@H]1CC(C[C@H]1C)=O,carroll11
2-butylcyclopentanone,341.0,1.0,C(CCC)C1C(CCC1)=O,carroll11
3-methylcyclopentanone,307.0,1.0,CC1CC(CC1)=O,carroll11
2-methylcyclopentanone,299.0,1.0,CC1C(CCC1)=O,carroll11
2-pentylcyclopentanone,351.0,1.0,C(CCCC)C1C(CCC1)=O,carroll11
"trans-2,4-dimethylcyclopentanone",315.0,1.0,C[C@@H]1C(C[C@H](C1)C)=O,carroll11
"2,2-dimethylcyclopentanone",306.0,1.0,CC1(C(CCC1)=O)C,carroll11
2-cyclopentylcyclopentanone,363.0,1.0,C1(CCCC1)C1C(CCC1)=O,carroll11
"2,4,4-trimethylcyclopentanone",316.0,1.0,CC1C(CC(C1)(C)C)=O,carroll11
3-tert-butylcyclopentanone,337.0,1.0,C(C)(C)(C)C1CC(CC1)=O,carroll11
cyclopentanecarboxaldehyde,301.0,1.0,C1(CCCC1)C=O,carroll11
5-methyl-2-hexanone,309.0,1.0,CC(CCC(C)=O)C,carroll11
cyclohexanone,316.0,1.0,C1(CCCCC1)=O,carroll11
2-methoxycyclohexanone,342.0,1.0,COC1C(CCCC1)=O,carroll11
3-methylcyclohexanone,321.0,1.0,CC1CC(CCC1)=O,carroll11
2-ethylcyclohexanone,332.0,1.0,C(C)C1C(CCCC1)=O,carroll11
2-isopropylcyclohexanone,338.0,1.0,C(C)(C)C1C(CCCC1)=O,carroll11
2-methylcyclohexanone,319.0,1.0,CC1C(CCCC1)=O,carroll11
4-methylcyclohexanone,321.0,1.0,CC1CCC(CC1)=O,carroll11
4-ethylcyclohexanone,336.0,1.0,C(C)C1CCC(CC1)=O,carroll11
4-propylcyclohexanone,359.0,1.0,C(CC)C1CCC(CC1)=O,carroll11
4-isopropylcyclohexanone,338.0,1.0,C(C)(C)C1CCC(CC1)=O,carroll11
5-methyl-3-heptanone,316.0,1.0,CC(CC(CC)=O)CC,carroll11
cyclohexanecarboxaldehyde,314.0,1.0,C1(CCCCC1)C=O,carroll11
2-ethylhexanal,319.0,1.0,C(C)C(C=O)CCCC,carroll11
4-octanone,318.0,1.0,CCCC(CCCC)=O,carroll11
4-nonanone,335.0,1.0,CCCC(CCCCC)=O,carroll11
4-decanone,344.0,1.0,CCCC(CCCCCC)=O,carroll11
4-undecanone,365.0,1.0,CCCC(CCCCCCC)=O,carroll11
diisobutylketone,322.0,1.0,C(C(C)C)C(=O)CC(C)C,carroll11
cycloheptanone,329.0,1.0,C1(CCCCCC1)=O,carroll11
2-ethylcycloheptanone,344.0,1.0,C(C)C1C(CCCCC1)=O,carroll11
5-methylcyclooctanone,344.0,1.0,CC1CCCC(CCC1)=O,carroll11
2-methylcyclooctanone,344.0,1.0,CC1C(CCCCCC1)=O,carroll11
5-nonanone,333.0,1.0,CCCCC(CCCC)=O,carroll11
2-tert-butylcyclohexanone,345.0,1.0,C(C)(C)(C)C1C(CCCC1)=O,carroll11
"3,3,5,5-tetramethylcyclohexanone",346.0,1.0,CC1(CC(CC(C1)(C)C)=O)C,carroll11
6-undecanone,361.0,1.0,CCCCCC(CCCCC)=O,carroll11
dimethylcarbonate,287.0,1.0,COC(OC)=O,carroll11
diethylcarbonate,306.0,1.0,C(C)OC(OCC)=O,carroll11
dipropylcarbonate,328.0,1.0,C(CC)OC(OCCC)=O,carroll11
allylethylcarbonate,319.0,1.0,C(C=C)CCOC([O-])=O,carroll11
ethanol,285.0,1.0,C(C)O,carroll11
1-propanol,296.0,1.0,C(CC)O,carroll11
1-butanol,307.0,1.0,C(CCC)O,carroll11
1-pentanol,322.0,1.0,C(CCCC)O,carroll11
1-hexanol,332.0,1.0,C(CCCCC)O,carroll11
1-heptanol,343.0,1.0,C(CCCCCC)O,carroll11
1-nonanol,371.0,1.0,C(CCCCCCCC)O,carroll11
1-decanol,381.0,1.0,C(CCCCCCCCC)O,carroll11
1-dodecanol,400.0,1.0,C(CCCCCCCCCCC)O,carroll11
1-undecanol,388.0,1.0,C(CCCCCCCCCC)O,carroll11
2-propanol,285.0,1.0,CC(C)O,carroll11
2-butanol,297.0,1.0,CC(CC)O,carroll11
2-pentanol,307.0,1.0,CC(CCC)O,carroll11
2-hexanol,319.0,1.0,CC(CCCC)O,carroll11
2-heptanol,332.0,1.0,CC(CCCCC)O,carroll11
2-octanol,345.0,1.0,CC(CCCCCC)O,carroll11
2-nonanol,355.0,1.0,CC(CCCCCCC)O,carroll11
2-decanol,358.0,1.0,CC(CCCCCCCC)O,carroll11
2-undecanol,380.0,1.0,CC(CCCCCCCCC)O,carroll11
2-dodecanol,386.0,1.0,CC(CCCCCCCCCC)O,carroll11
3-pentanol,306.0,1.0,CCC(CC)O,carroll11
3-hexanol,318.0,1.0,CCC(CCC)O,carroll11
3-heptanol,328.0,1.0,CCC(CCCC)O,carroll11
3-nonanol,352.0,1.0,CCC(CCCCCC)O,carroll11
3-decanol,372.0,1.0,CCC(CCCCCCC)O,carroll11
3-octanol,341.0,1.0,CCC(CCCCC)O,carroll11
tert-butylalcohol,284.0,1.0,C(C)(C)(C)O,carroll11
2-methyl-2-butanol,294.0,1.0,CC(C)(CC)O,carroll11
allylalcohol,295.0,1.0,C(C=C)O,carroll11
2-methyl-1-propanol,301.0,1.0,CC(CO)C,carroll11
3-methyl-2-butanol,300.0,1.0,CC(C(C)O)C,carroll11
2-methyl-3-pentanol,319.0,1.0,CC(C)C(CC)O,carroll11
2-methyl-1-butanol,316.0,1.0,CC(CO)CC,carroll11
3-methyl-1-butanol,316.0,1.0,CC(CCO)C,carroll11
4-methyl-2-pentanol,314.0,1.0,CC(CC(C)O)C,carroll11
3-methyl-2-pentanol,314.0,1.0,CC(C(C)O)CC,carroll11
cyclopentanol,324.0,1.0,C1(CCCC1)O,carroll11
2-methyl-1-pentanol,324.0,1.0,CC(CO)CCC,carroll11
2-ethyl-1-butanol,330.0,1.0,C(C)C(CO)CC,carroll11
4-methyl-1-pentanol,324.0,1.0,CC(CCCO)C,carroll11
3-methyl-1-pentanol,331.0,1.0,CC(CCO)CC,carroll11
cyclohexanol,336.0,1.0,C1(CCCCC1)O,carroll11
cyclopentylmethanol,335.0,1.0,C1(CCCC1)CO,carroll11
cis-2-methylcyclohexanol,332.0,1.0,C[C@@H]1[C@@H](CCCC1)O,carroll11
trans-2-methylcyclohexanol,332.0,1.0,C[C@H]1[C@@H](CCCC1)O,carroll11
trans-4-methylcyclohexanol,343.0,1.0,C[C@@H]1CC[C@H](CC1)O,carroll11
2-ethyl-1-hexanol,347.0,1.0,C(C)C(CO)CCCC,carroll11
cycloheptanol,344.0,1.0,C1(CCCCCC1)O,carroll11
"3,5,5-trimethyl-1-hexanol",353.0,1.0,CC(CCO)CC(C)(C)C,carroll11
"2,3-butanediol",358.0,1.0,CC(C(C)O)O,carroll11
"1,2-propanediol",372.0,1.0,C(C(C)O)O,carroll11
"1,2-butanediol",366.0,1.0,C(C(CC)O)O,carroll11
"1,2-ethanediol",381.0,1.0,C(CO)O,carroll11
"1,2-pentanediol",378.0,1.0,C(C(CCC)O)O,carroll11
"1,3-butanediol",382.0,1.0,C(CC(C)O)O,carroll11
"1,2-hexanediol",395.0,1.0,C(C(CCCC)O)O,carroll11
"1,4-butanediol",394.0,1.0,C(CCCO)O,carroll11
"1,5-pentanediol",402.0,1.0,C(CCCCO)O,carroll11
cyclooctanol,361.0,1.0,C1(CCCCCCC1)O,carroll11
aceticacid,313.0,1.0,C(C)(=O)O,carroll11
propionicacid,331.0,1.0,C(CC)(=O)O,carroll11
butanoicacid,342.0,1.0,C(CCC)(=O)O,carroll11
pentanoicacid,358.0,1.0,C(CCCC)(=O)O,carroll11
hexanoicacid,375.0,1.0,C(CCCCC)(=O)O,carroll11
heptanoicacid,382.0,1.0,C(CCCCCC)(=O)O,carroll11
2-methylpropanoicacid,332.0,1.0,CC(C(=O)O)C,carroll11
3-methylbutanoicacid,347.0,1.0,CC(CC(=O)O)C,carroll11
2-methylbutanoicacid,350.0,1.0,CC(C(=O)O)CC,carroll11
2-ethylbutanoicacid,360.0,1.0,C(C)C(C(=O)O)CC,carroll11
"3,3-dimethylbutanoicacid",361.0,1.0,CC(CC(=O)O)(C)C,carroll11
4-methylpentanoicacid,370.0,1.0,CC(CCC(=O)O)C,carroll11
2-methylpentanoicacid,364.0,1.0,CC(C(=O)O)CCC,carroll11
2-methylhexanoicacid,378.0,1.0,CC(C(=O)O)CCCC,carroll11
3-methylhexanoicacid,376.0,1.0,CC(CC(=O)O)CCC,carroll11
4-methylhexanoicacid,376.0,1.0,CC(CCC(=O)O)CC,carroll11
aceticanhydride,322.0,1.0,C(C)(=O)OC(C)=O,carroll11
butanoicanhydride,355.0,1.0,C(CCC)(=O)OC(CCC)=O,carroll11
pentanoicanhydride,374.0,1.0,C(CCCC)(=O)OC(CCCC)=O,carroll11
hexanoicanhydride,386.0,1.0,C(CCCCC)(=O)OC(CCCCC)=O,carroll11
heptanoicanhydride,403.0,1.0,C(CCCCCC)(=O)OC(CCCCCC)=O,carroll11
isobutanoicanhydride,340.0,1.0,C(C(C)C)(=O)OC(C(C)C)=O,carroll11
pivalicanhydride,336.0,1.0,C(C(C)(C)C)(=O)OC(C(C)(C)C)=O,carroll11
3-methylbutanoicanhydride,364.0,1.0,CC(CC(=O)OC(CC(C)C)=O)C,carroll11
isopropylamine,241.0,1.0,C(C)(C)N,carroll11
tert-butylamine,235.0,1.0,C(C)(C)(C)N,carroll11
propylamine,243.0,1.0,C(CC)N,carroll11
cyclopropylamine,248.0,1.0,C1(CC1)N,carroll11
N-methylisopropylamine,253.0,1.0,CNC(C)C,carroll11
diethylamine,250.0,1.0,C(C)NCC,carroll11
sec-butylamine,254.0,1.0,C(C)(CC)N,carroll11
allylmethylamine,265.0,1.0,C(C=C)CN,carroll11
isobutylamine,263.0,1.0,C(C(C)C)N,carroll11
butylamine,266.0,1.0,C(CCC)N,carroll11
cyclobutylamine,269.0,1.0,C1(CCC1)N,carroll11
diisopropylamine,266.0,1.0,C(C)(C)NC(C)C,carroll11
3-pentanamine,275.0,1.0,CCC(CC)N,carroll11
N-methylbutylamine,275.0,1.0,CNCCCC,carroll11
pentylamine,277.0,1.0,C(CCCC)N,carroll11
cyclopentylamine,285.0,1.0,C1(CCCC1)N,carroll11
dipropylamine,280.0,1.0,C(CC)NCCC,carroll11
hexylamine,300.0,1.0,C(CCCCC)N,carroll11
diisobutylamine,303.0,1.0,C(C(C)C)NCC(C)C,carroll11
heptylamine,317.0,1.0,C(CCCCCC)N,carroll11
dibutylamine,320.0,1.0,C(CCC)NCCCC,carroll11
2-ethyl-1-hexanamine,323.0,1.0,C(C)C(CN)CCCC,carroll11
octylamine,333.0,1.0,C(CCCCCCC)N,carroll11
nonylamine,347.0,1.0,C(CCCCCCCC)N,carroll11
1-decanamine,358.0,1.0,C(CCCCCCCCC)N,carroll11
N-ethylcyclohexanamine,318.0,1.0,C(C)NC1CCCCC1,carroll11
di-sec-butylamine,297.0,1.0,C(C)(CC)NC(C)CC,carroll11
(aminomethyl)cyclohexane,316.0,1.0,NCC1CCCCC1,carroll11
N-ethyl-N-methylethanamine,250.0,1.0,C(C)N(CC)C,carroll11
triethylamine,264.0,1.0,C(C)N(CC)CC,carroll11
tripropylamine,308.0,1.0,C(CC)N(CCC)CCC,carroll11
tributylamine,344.0,1.0,C(CCC)N(CCCC)CCCC,carroll11
N-ethyldimethylamine,237.0,1.0,C(C)N(C)C,carroll11
1-ethylpiperidine,291.0,1.0,C(C)N1CCCCC1,carroll11
diethylenetriamine,363.0,1.0,NCCNCCN,carroll11
"N,N-dimethylcyclohexylamine",314.0,1.0,CN(C)C1CCCCC1,carroll11
"1,2-ethanediamine",307.0,1.0,C(CN)N,carroll11
"1,3-propanediamine",321.0,1.0,C(CCN)N,carroll11
"N,N-dimethyl-1,3-propanediamine",305.0,1.0,CN(CCCN)C,carroll11
"N,N-dimethylformamide",330.0,1.0,CN(C=O)C,carroll11
"N,N-dimethylacetamide",339.0,1.0,CN(C(C)=O)C,carroll11
"N,N-diethylformamide",338.0,1.0,C(C)N(C=O)CC,carroll11
"N,N-diethylacetamide",349.0,1.0,C(C)N(C(C)=O)CC,carroll11
N-ethylformamide,359.0,1.0,C(C)NC=O,carroll11
N-methylformamide,371.0,1.0,CNC=O,carroll11
N-ethylacetamide,379.0,1.0,C(C)NC(C)=O,carroll11
N-butylacetamide,388.0,1.0,C(CCC)NC(C)=O,carroll11
"N,N-diisopropylformamide",348.0,1.0,C(C)(C)N(C=O)C(C)C,carroll11
acetonitrile,275.0,1.0,C(C)#N,carroll11
propionitrile,279.0,1.0,C(CC)#N,carroll11
butyronitrile,291.0,1.0,C(CCC)#N,carroll11
pentanenitrile,305.0,1.0,C(CCCC)#N,carroll11
hexanenitrile,320.0,1.0,C(CCCCC)#N,carroll11
heptanenitrile,331.0,1.0,C(CCCCCC)#N,carroll11
octanenitrile,347.0,1.0,C(CCCCCCC)#N,carroll11
nonanenitrile,355.0,1.0,C(CCCCCCCC)#N,carroll11
decanenitrile,365.0,1.0,C(CCCCCCCCC)#N,carroll11
"2,2-dimethylpropanenitrile",277.0,1.0,CC(C#N)(C)C,carroll11
isobutyronitrile,281.0,1.0,C(C(C)C)#N,carroll11
cyclopropanecarbonitrile,305.0,1.0,C1(CC1)C#N,carroll11
3-methylbutanenitrile,301.0,1.0,CC(CC#N)C,carroll11
"1,4-dicyanobutane",432.0,1.0,C(#N)CCCCC#N,carroll11
1-propanethiol,259.0,1.0,C(CC)S,carroll11
1-butanethiol,275.0,1.0,C(CCC)S,carroll11
1-pentanethiol,291.0,1.0,C(CCCC)S,carroll11
1-hexanethiol,303.0,1.0,C(CCCCC)S,carroll11
1-heptanethiol,319.0,1.0,C(CCCCCC)S,carroll11
1-octanethiol,341.0,1.0,C(CCCCCCC)S,carroll11
1-nonanethiol,352.0,1.0,C(CCCCCCCC)S,carroll11
1-decanethiol,372.0,1.0,C(CCCCCCCCC)S,carroll11
1-undecanethiol,382.0,1.0,C(CCCCCCCCCC)S,carroll11
2-butanethiol,250.0,1.0,CC(CC)S,carroll11
2-pentanethiol,288.0,1.0,CC(CCC)S,carroll11
2-methyl-2-propanethiol,249.0,1.0,CC(C)(C)S,carroll11
2-methyl-1-butanethiol,292.0,1.0,CC(CS)CC,carroll11