smiles,compound,flashpoint,source,pure substance
N=C(NO)c1ccc([N+](=O)[O-])o1,"2-Furancarboximidamide, N-hydroxy-5-nitro-",465.35,le15,1
COc1cc(F)ccc1[N+](=O)[O-],4-Fluoro-2-(methyloxy)-1-nitrobenzene,375.65,le15,1
Cc1ncc([N+](=O)[O-])n1CCO,"1H-Imidazole-1-ethanol, 2-methyl-5-nitro-",472.15,le15,1
Cc1ccccc1S(N)(=O)=O,"Benzenesulfonamide, 2-methyl-",326.65,le15,1
c1ccc2c3c([nH]c2c1)CCCC3,"1H-Carbazole, 2,3,4,9-tetrahydro- (9CI)",415.25,le15,1
Cc1ccc2nc(C)cc(C)c2c1,"2,4,6-trimethylquinoline",389.05,le15,1
CN(C)c1ccc2ccccc2c1,"N,N-dimethylnaphthalen-2-amine",396.55,le15,1
CCNc1ccc2ccccc2c1,N-ethylnaphthalen-2-amine,430.15,le15,1
C=CC(=O)OCCN(CC)CC,"2-Propenoic acid, 2-(diethylamino)ethyl ester",347.0499999999999,le15,1
CCN(CC)C(=O)CCC(C)=O,"Pentanamide, N,N-diethyl-4-oxo- (9CI)",383.85,le15,1
CC1(C)CC(O)CC(C)(CN)C1,"3-(aminomethyl)-3,5,5-trimethylcyclohexan-1-ol",375.35,le15,1
CN(C)CCN1CCN(C)CC1,"Piperazine, 1-(2-(dimethylamino)ethyl)-4-methyl-",347.65,le15,1
CC1=NC(CC(C)C)SC1C,"4,5-dimethyl-2-(2-methylpropyl)-2,5-dihydro-1,3-thiazole",368.15,le15,1
CCCCCCCCCCCN,1-Undecanamine,365.35,le15,1
CC(Br)C(=O)Cl,2-bromopropanoyl chloride,324.15,le15,1
ClCCCCBr,1-bromo-4-chlorobutane,333.15,le15,1
CC(CCl)CBr,1-bromo-3-chloro-2-methylpropane,328.95,le15,1
Cc1ccc(Cl)c([N+](=O)[O-])c1,1-chloro-4-methyl-2-nitrobenzene,387.05,le15,1
O=[N+]([O-])c1ccc(CCl)cc1,"Benzene, 1-(chloromethyl)-4-nitro-",403.85,le15,1
Cc1ccc([N+](=O)[O-])cc1Cl,2-chloro-1-methyl-4-nitrobenzene,382.25,le15,1
O=[N+]([O-])c1ccccc1CCl,"Benzene, 1-(chloromethyl)-2-nitro- (9CI)",385.85,le15,1
O=[N+]([O-])c1cccc(CCl)c1,"Benzene, 1-(chloromethyl)-3-nitro-",401.85,le15,1
Cc1cc([N+](=O)[O-])ccc1Cl,1-chloro-2-methyl-4-nitrobenzene,383.75,le15,1
Cc1c(Cl)cccc1[N+](=O)[O-],"Benzene, 1-chloro-2-methyl-3-nitro-",398.15,le15,1
Cc1ccc(Cl)cc1[N+](=O)[O-],"Toluene, 4-chloro-2-nitro- (8CI)",393.15,le15,1
Cc1cc(N(C)C)nc(Cl)n1,"Pyrimidine, 2-chloro-4-(dimethylamino)-6-methyl-",403.05,le15,1
OCCI,"Ethanol, 2-iodo-",338.15,le15,1
N#Cc1c(Cl)cccc1Cl,"Benzonitrile, 2,6-dichloro-",399.95,le15,1
Nc1ccc(Br)cc1,"Benzenamine, 4-bromo-",363.55,le15,1
Nc1cccc(Br)c1,"Aniline, m-bromo- (8CI)",374.35,le15,1
Nc1ccccc1Br,"Aniline, o-bromo- (8CI)",364.25,le15,1
CC1=CC(=O)c2ccccc2C1=O,"1,4-Naphthalenedione, 2-methyl-",386.95,le15,1
O=C(O)c1ccc2ccccc2c1,2-Naphthalenecarboxylic acid,424.45,le15,1
O=Cc1c(O)ccc2ccccc12,"1-Naphthalenecarboxaldehyde, 2-hydroxy-",407.45,le15,1
O=C(O)c1cccc2ccccc12,naphthalene-1-carboxylic acid,437.75,le15,1
CCOC(=O)C(C(C)=O)C(C)=O,ethyl 2-acetyl-3-oxobutanoate,358.15,le15,1
O=C(O)[C@H]1CCCC[C@H]1C(=O)O,"1,2-Cyclohexanedicarboxylic acid, cis-",473.45,le15,1
O=C(O)C1CCC(C(=O)O)CC1,"cyclohexane-1,4-dicarboxylic acid",508.15,le15,1
C=C(C)C(OC(C)=O)OC(C)=O,"2-Propene-1,1-diol, 2-methyl-, diacetate",356.45,le15,1
CC/C(C(=O)[O-])=C(/CC)C(=O)[O-],DiethylFumarate,364.0,le15,1
Fc1ccccc1-c1ccccc1,"1,1'-Biphenyl, 2-fluoro-",521.15,le15,1
COS(=O)(=O)c1ccccc1,"Benzenesulfonic acid, methyl ester",416.15,le15,1
Nc1ccc(S(N)(=O)=O)cc1,"Benzenesulfonamide, 4-amino-",469.15,le15,1
CCOc1ccc2ccccc2c1,Ethyl 2-naphthyl ether,400.15,le15,1
CCOc1cccc2ccccc12,1-ethoxynaphthalene,382.55,le15,1
Cc1cc(C)n(-c2ccccc2)n1,"3,5-dimethyl-1-phenylpyrazole",391.75,le15,1
CCCC(C(C)=O)C(=O)OCC,ethyl 2-acetylpentanoate,355.5499999999999,le15,1
CCCCOC(=O)CCC(C)=O,"Pentanoic acid, 4-oxo-, butyl ester",364.15,le15,1
CC(=O)CCC(=O)OCC(C)C,2-methylpropyl 4-oxopentanoate,367.65,le15,1
C=CC(=O)OCCOCCCC,"Acrylic acid, 2-butoxyethyl ester (8CI)",468.15,le15,1
CCOC(=O)C(C(C)=O)C(C)C,ethyl 2-acetyl-3-methylbutanoate,352.0499999999999,le15,1
CCCCC(CC)COC(C)=O,"Acetic acid, 2-ethylhexyl ester",344.5499999999999,le15,1
CCCCCCCC(=O)OCC,"Octanoic acid, ethyl ester",348.15,le15,1
CC(CC=O)CCCC(C)(C)O,"1-Octanal, 3,7-dimethyl-7-hydroxy-",376.95,le15,1
CCCCCC(=O)OCCCC,"Hexanoic acid, butyl ester",354.25,le15,1
CCCCCCCCC(=O)OC,"Nonanoic acid, methyl ester",357.5499999999999,le15,1
CCCCCOC(=O)CCCC,"Valeric acid, pentyl ester (8CI)",349.65,le15,1
CCCCCCCOC(=O)CC,heptyl propanoate,352.95,le15,1
CCCCCCOC(=O)C(C)C,"Propanoic acid, 2-methyl-, hexyl ester",346.45,le15,1
CC1CCC(C(C)(C)OO)CC1,"p-Menth-8-yl hydroperoxide (7CI,8CI)",326.15,le15,1
CCCCCCCCCC(=O)O,Decanoic acid,394.95,le15,1
CC1(O)CCC(C(C)(C)O)CC1,4-(2-hydroxypropan-2-yl)-1-methylcyclohexan-1-ol,392.15,le15,1
CC(C)CCOC(=O)CC(C)C,"Butanoic acid, 3-methyl-, 3-methylbutyl ester",339.85,le15,1
CCCCCCOC(=O)CCC,"Butanoic acid, hexyl ester",354.25,le15,1
CCCCCCCCCOC=O,"Nonylalcohol, formate (6CI)",360.65,le15,1
CCCCCCC(=O)OCCC,propyl heptanoate,349.85,le15,1
CC(=O)OC(C)CCCC(C)C,6-methylheptan-2-yl acetate,338.35,le15,1
CCN(CC)C(=O)N(CC)CC,"1,1,3,3-tetraethylurea",360.15,le15,1
CCCCCCCCCCCO,Undecyl alcohol,386.15,le15,1
CCCCCCCCCCOC,"Ether, decyl methyl",346.0499999999999,le15,1
CCCCCC(O)CCCCC,undecan-6-ol,367.15,le15,1
CCCCCCC(O)CCCC,undecan-5-ol,367.15,le15,1
CCCCCCCCCC(C)O,2undecanol,380.0,le15,1
CC(C)(C)NCCNC(C)(C)C,"N,N'-ditert-butylethane-1,2-diamine",349.85,le15,1
CCOP(=O)(Cl)OCC,"Phosphorochloridic acid, diethyl ester",323.0499999999999,le15,1
O=C(O)c1cc(Cl)ccc1O,"Benzoic acid, 5-chloro-2-hydroxy-",420.75,le15,1
Nc1ccc(Cl)cc1[N+](=O)[O-],"Benzenamine, 4-chloro-2-nitro-",413.65,le15,1
Nc1ccc([N+](=O)[O-])cc1Cl,"Benzenamine, 2-chloro-4-nitro-",424.25,le15,1
Nc1ccc(Cl)c([N+](=O)[O-])c1,"Benzenamine, 4-chloro-3-nitro-",435.35,le15,1
Nc1cc(Cl)ccc1[N+](=O)[O-],"Benzenamine, 5-chloro-2-nitro- (9CI)",422.55,le15,1
Nc1cc([N+](=O)[O-])ccc1Cl,"Benzenamine, 2-chloro-5-nitro-",417.25,le15,1
COc1cc(Cl)cc(OC)c1,"1-chloro-3,5-dimethoxybenzene",365.85,le15,1
CC1(C)C2CCC1(C)C(Cl)C2,"3-chloro-4,7,7-trimethylbicyclo[2.2.1]heptane",341.15,le15,1
Oc1ccccc1Br,"Phenol, 2-bromo-",315.15,le15,1
Oc1ccc(Br)cc1,"Phenol, 4-bromo-",363.95,le15,1
Oc1cccc(Br)c1,"Phenol, 3-bromo-",364.25,le15,1
Nc1ccc(Br)cn1,5-Bromo-2-pyridylamine,366.55,le15,1
OCC(CO)(CCl)CCl,"1,3-Propanediol, 2,2-bis(chloromethyl)-",429.45,le15,1
ClCCOCOCCCl,"Ethane, 1,1'-(methylenebis(oxy))bis(2-chloro-",350.0499999999999,le15,1
O=[N+]([O-])c1cccc2ccccc12,"Naphthalene, 1-nitro-",437.15,le15,1
O=C(O)c1cccc2cccnc12,8-Quinolinecarboxylic acid,460.65,le15,1
O=Nc1c(O)ccc2ccccc12,"2-Naphthalenol, 1-nitroso-",443.25,le15,1
O=C1C=CC(=O)N1c1ccccc1,"1H-Pyrrole-2,5-dione, 1-phenyl-",409.95,le15,1
NC1=CC(=O)C(=O)c2ccccc21,"4-Amino-1,2-naphthoquinone",433.15,le15,1
O=[N+]([O-])c1ccc2ccccc2c1,"Naphthalene, 2-nitro-",431.85,le15,1
CCOc1cccc2cccnc12,8-Ethoxyquinoline,381.15,le15,1
Cc1cc(N)n(-c2ccccc2)n1,"1H-Pyrazole-5-amine, 3-methyl-1-phenyl-",428.35,le15,1
Cc1nc2ccc(N)cc2nc1C,"6-Quinoxalinamine, 2,3-dimethyl-",457.05,le15,1
C=C1N(C)c2ccccc2C1(C)C,"1,3,3-trimethyl-2-methylideneindole",367.15,le15,1
CC1=CC(C)(C)Nc2ccccc21,"Quinoline, 1,2-dihydro-2,2,4-trimethyl-",388.15,le15,1
CCCCC(CC)COC(N)=O,"Carbamic acid, 2-ethylhexyl ester",373.85,le15,1
CCCCN(CCO)CCCC,"Ethanol, 2-(dibutylamino)-",364.85,le15,1
CN(C)CCN(C)CCN(C)C,"1,2-Ethanediamine, N-(2-(dimethylamino)ethyl)-N,N',N'-trimethyl-",326.45,le15,1
O=C(O)C(Cl)Br,"Acetic acid, bromochloro-",356.85,le15,1
O=[N+]([O-])c1cc(O)ccc1Cl,"Phenol, 4-chloro-3-nitro-",413.65,le15,1
O=[N+]([O-])c1cc(Cl)ccc1O,"Phenol, 4-chloro-2-nitro-",373.55,le15,1
O=[N+]([O-])c1ccc(O)c(Cl)c1,"Phenol, 2-chloro-4-nitro-",402.75,le15,1
CCNc1nc(N)nc(Cl)n1,"s-Triazine, 2-amino-4-chloro-6-(ethylamino)- (8CI)",284.15,le15,1
C=CCN(CC=C)C(=O)CCl,"Acetamide, 2-chloro-N,N-di-2-propenyl-",372.95,le15,1
BrCBr,"Methane, dibromo-",370.15,le15,1
Oc1cccnc1Br,"3-Pyridinol, 2-bromo-",421.55,le15,1
O=C(c1ccccc1)C(F)(F)F,"2,2,2-trifluoro-1-phenylethanone",314.85,le15,1
O=Cc1cccc(C(F)(F)F)c1,"alpha,alpha,alpha-Trifluoro-3-tolualdehyde",341.45,le15,1
CN(N=O)C(=O)C(=O)N(C)N=O,"Ethanediamide, N,N'-dimethyl-N,N'-dinitroso- (9CI)",366.05,le15,1
O=C1C=CC(=O)c2c(O)cccc21,"1,4-Naphthoquinone, 5-hydroxy- (8CI)",474.45,le15,1
O=[N+]([O-])c1cccc2cccnc12,"Quinoline, 8-nitro-",422.35,le15,1
CCOC(=O)C(=O)C(=O)OCC,diethyl 2-oxopropanedioate,363.35,le15,1
O=[N+]([O-])c1ccnc2ccccc12,"Quinoline, 4-nitro-",422.35,le15,1
Cc1ccc(N=C=O)cc1N=C=O,"Isocyanic acid, 4-methyl-m-phenylene ester (8CI)",383.65,le15,1
CCOC(=O)C#Cc1ccccc1,"2-Propynoic acid, 3-phenyl-, ethyl ester (9CI)",398.05,le15,1
CC1=NN(c2ccccc2)C(=O)C1,"3H-Pyrazol-3-one, 2,4-dihydro-5-methyl-2-phenyl-",428.35,le15,1
CCOC(=O)CCC(=O)OCC,"Butanedioic acid, diethyl ester",372.65,le15,1
CCOC(=O)C(C)C(=O)OCC,"Malonic acid, methyl-, diethyl ester (8CI)",349.85,le15,1
CC(=O)OCCCCOC(C)=O,4-acetyloxybutyl acetate,378.35,le15,1
CCC(C)(CC(=O)O)CC(=O)O,3-ethyl-3-methylpentanedioic acid,430.45,le15,1
CCOC(=O)CC1(C)OCCO1,"1,3-Dioxolane-2-acetic acid, 2-methyl-, ethyl ester",353.95,le15,1
CCC(=O)OCCOC(=O)CC,2-propanoyloxyethyl propanoate,371.45,le15,1
O=C(O)CCCCCCC(=O)O,Octanedioic acid,459.65,le15,1
COC(=O)CCCCC(=O)OC,"Hexanedioic acid, 1,6-dimethyl ester",380.35,le15,1
CCN[C@@H](CCC(N)=O)C(=O)O,N-Ethyl-L-glutamine,485.25,le15,1
NNC(=O)CCCCC(=O)NN,"Adipic acid, dihydrazide (8CI)",541.05,le15,1
Oc1ccc(C2=CCCCC2)cc1,"Phenol, p-(1-cyclohexen-1-yl)-",410.25,le15,1
CCN(CCC#N)c1ccccc1,"Propionitrile, 3-(N-ethylanilino)- (6CI,7CI,8CI)",405.95,le15,1
CC(N)Cc1c[nH]c2ccccc12,"1H-Indole-3-ethanamine, alpha-methyl- (9CI)",462.15,le15,1
CC(C)(C)OOC(=O)C(C)(C)C,"Propaneperoxoic acid, 2,2-dimethyl-, 1,1-dimethylethyl ester",326.65,le15,1
CC(C)COC(=O)OCC(C)C,bis(2-methylpropyl) carbonate,344.65,le15,1
CCCCOC(=O)OCCCC,dibutyl carbonate,349.15,le15,1
Cc1ccc2c(c1)CCCC2(C)C,"Naphthalene, 1,2,3,4-tetrahydro-1,1,6-trimethyl-",370.95,le15,1
C1=CCC(C2CC3C=CC2C3)CC1,"Bicyclo(2.2.1)hept-5-ene, 2-(4-cyclohexenyl)-",352.95,le15,1
CC(CCO)CCCC(C)(C)O,"1,7-Octanediol, 3,7-dimethyl-",381.65,le15,1
CCCCCCCCC(O)CO,"Decane-1,2-diol",386.15,le15,1
CCCCC(CC)COCCO,"Ethanol, 2-((2-ethylhexyl)oxy)-",337.15,le15,1
CC(C)COC(C)OCC(C)C,2-methyl-1-[1-(2-methylpropoxy)ethoxy]propane,309.0499999999999,le15,1
C=CC[Si](C)(OCC)OCC,diethoxy-methyl-prop-2-enylsilane,315.65,le15,1
CC(C)CCSCCC(C)C,3-methyl-1-(3-methylbutylsulfanyl)butane,349.5499999999999,le15,1
CCCCCCCCSCC,1-ethylsulfanyloctane,370.45,le15,1
CCCCCCCCCCS,1decanethiol,371.0,le15,1
CS(=O)c1ccc(Cl)cc1,"Benzene, 1-chloro-4-(methylsulfinyl)-",408.65,le15,1
Fc1ccc(Br)cc1,"Benzene, 1-bromo-4-fluoro-",326.15,le15,1
Fc1cccc(Br)c1,1-bromo-3-fluorobenzene,312.0499999999999,le15,1
O=Cc1c(Cl)cccc1Cl,"Benzaldehyde, 2,6-dichloro-",370.55,le15,1
O=C(Cl)c1ccc(Cl)cc1,"Benzoyl chloride, 4-chloro-",378.15,le15,1
O=C(Cl)c1cccc(Cl)c1,"Benzoyl chloride, m-chloro- (8CI)",383.15,le15,1
O=Cc1ccc(Cl)cc1Cl,"Benzaldehyde, 2,4-dichloro-",373.35,le15,1
O=Cc1cccc(Cl)c1Cl,"Benzaldehyde, 2,3-dichloro-",372.35,le15,1
O=Cc1cc(Cl)ccc1Cl,"2,5-dichlorobenzaldehyde",369.75,le15,1
O=Cc1cc(Cl)cc(Cl)c1,"3,5-dichlorobenzaldehyde",371.45,le15,1
O=Cc1ccc(Cl)c(Cl)c1,"Benzaldehyde, 3,4-dichloro-",375.15,le15,1
ClCc1ccccc1CCl,"o-Xylene, alpha,alpha'-dichloro-",380.15,le15,1
ClCc1cccc(CCl)c1,"m-Xylene, alpha,alpha'-dichloro-",385.15,le15,1
Cc1cc(Cl)c(C)cc1Cl,"1,4-dichloro-2,5-dimethylbenzene",359.25,le15,1
N#Cc1cc(F)c(F)c(F)c1F,"2,3,4,5-Tetrafluorobenzonitrile",343.15,le15,1
O=C1CCC(=O)N1c1ccccc1,"1-phenylpyrrolidine-2,5-dione",476.75,le15,1
CCOC(=O)c1ccc(C#N)cc1,Ethyl 4-cyanobenzoate,412.05,le15,1
O=C(O)Cc1c[nH]c2ccccc12,Indole-3-acetic acid (8CI),477.95,le15,1
CCN1C(=O)c2ccccc2C1=O,"2-ethylisoindole-1,3-dione",394.95,le15,1
CN(C)c1ccc(C=CC=O)cc1,"2-Propenal, 3-(4-(dimethylamino)phenyl)-",404.35,le15,1
c1ccc(NC2CCCCC2)cc1,N-cyclohexylaniline,408.65,le15,1
c1ccc(CN2CCCCC2)cc1,1-benzylpiperidine,367.15,le15,1
c1ccc(CC2CCNCC2)cc1,4-benzylpiperidine,398.55,le15,1
c1ccc(CC2CCCCN2)cc1,2-benzylpiperidine,389.25,le15,1
O=C(O)C(Cl)=C(Cl)Cl,"2,3,3-trichloroprop-2-enoic acid",397.55,le15,1
ClC(Cl)(Cl)CC1CO1,"Butane, 1,2-epoxy-4,4,4-trichloro-",348.95,le15,1
O=[N+]([O-])c1ccc(F)c(Cl)c1,"Benzene, 2-chloro-1-fluoro-4-nitro-",343.15,le15,1
ClC(Cl)=CBr,"2-bromo-1,1-dichloroethene",292.5499999999999,le15,1
O=C1O[C@H]([C@@H](O)CO)C(O)=C1O,L-Ascorbic acid,453.55,le15,1
O=C1O[C@H]([C@H](O)CO)C(=O)C1=O,"2,3-Didehydro-D-erythro-hexono-1,4-lactone",511.35,le15,1
COC(=O)/C(O)=C(\O)C(=O)OC,"Fumaric acid, dihydroxy-, dimethyl ester",383.95,le15,1
Nc1cc(N)cc(C(F)(F)F)c1,"Toluene-3,5-diamine, alpha,alpha,alpha-trifluoro- (8CI)",395.65,le15,1
COc1ccc2ccc(=O)oc2c1,"2H-1-Benzopyran-2-one, 7-methoxy-",411.75,le15,1
NC1=NC(=O)C(c2ccccc2)O1,"4(5H)-Oxazolone, 2-amino-5-phenyl-",416.55,le15,1
[O-][n+]1ccc(NO)c2ccccc21,"Quinoline, 4-(hydroxyamino)-, 1-oxide",433.95,le15,1
CC(=O)OCC(CO)OC(C)=O,(2-acetyloxy-3-hydroxypropyl) acetate,373.35,le15,1
CC(C)([N+](=O)[O-])C(C)(C)[N+](=O)[O-],"Butane, 2,3-dimethyl-2,3-dinitro-",353.35,le15,1
CCOC(=O)C=Cc1ccccc1,"2-Propenoic acid, 3-phenyl-, ethyl ester",421.75,le15,1
CC(=O)OCC=Cc1ccccc1,"2-Propen-1-ol, 3-phenyl-, acetate",403.65,le15,1
COc1ccc(C=CC(C)=O)cc1,"3-Buten-2-one, 4-(p-methoxyphenyl)- (8CI)",421.45,le15,1
C=CCOC(=O)Cc1ccccc1,"Benzeneacetic acid, 2-propenyl ester",386.15,le15,1
COc1ccc(C(=O)C2CC2)cc1,"Methanone, cyclopropyl(4-methoxyphenyl)-",413.15,le15,1
C#CC(C)(O)C(O)c1ccccc1,"3-Butyne-1,2-diol, 2-methyl-1-phenyl-",436.25,le15,1
C=C(C)C(=O)OCc1ccccc1,"2-Propenoic acid, 2-methyl-, phenylmethyl ester",380.35,le15,1
C=Cc1ccc(OCC2CO2)cc1,"Propane, 1,2-epoxy-3-(p-vinylphenoxy)- (7CI,8CI)",399.65,le15,1
CC1OC(C)OC(C)OC(C)O1,"2,4,6,8-Tetramethyl-1,3,5,7-tetraoxacyclooctane",323.15,le15,1
CCOCCOCCOC(C)=O,"Ethanol, 2-(2-ethoxyethoxy)-, acetate",373.15,le15,1
CCOC(=O)C(OCC)OCC,"ethyl 2,2-diethoxyacetate",346.15,le15,1
CCCP(=O)(CCC)CCC,"Phosphine oxide, tripropyl-",404.45,le15,1
CC(=O)O[Si](C)(C)OC(C)=O,[acetyloxy(dimethyl)silyl] acetate,317.85,le15,1
CCCCCC(=O)c1ccccc1,"1-Hexanone, 1-phenyl-",378.65,le15,1
Oc1ccc(C2CCCCC2)cc1,"Phenol, p-cyclohexyl- (8CI)",426.15,le15,1
OC1CCCCC1c1ccccc1,"Cyclohexanol, 2-phenyl-",386.45,le15,1
CC(C)CCC(=O)c1ccccc1,4-methyl-1-phenylpentan-1-one,372.55,le15,1
O[C@@H]1CCCC[C@H]1c1ccccc1,trans-2-Phenylcyclohexanol,386.45,le15,1
c1ccc(OC2CCCCC2)cc1,cyclohexyloxybenzene,372.05,le15,1
CCOC(CC)(OCC)OCC,"1,1,1-triethoxypropane",333.15,le15,1
CCCCOCCOCC(C)O,"2-Propanol, 1-(2-butoxyethoxy)-",377.45,le15,1
CCCOCC(C)OCC(C)O,"2-Propanol, 1-(1-methyl-2-propoxyethoxy)-",373.85,le15,1
c1ccc(CN2CCNCC2)cc1,"Piperazine, 1-(phenylmethyl)-",388.75,le15,1
NCCCOCCOCCCN,"1-Propanamine, 3,3'-(1,2-ethanediylbis(oxy))bis-",394.65,le15,1
CC(C)C(c1ccccc1)C(C)C,"2,4-dimethylpentan-3-ylbenzene",353.65,le15,1
CCCCCCCc1ccccc1,Heptylbenzene,368.0,le15,1
ClCI,chloro(iodo)methane,288.75,le15,1
O=S(=O)(Cl)c1ccccc1,Benzenesulphonyl chloride,379.05,le15,1
O=S(O)c1ccc(Cl)cc1,"Benzenesulfinic acid, 4-chloro-",447.05,le15,1
ClCc1cccc2ccccc12,"Naphthalene, 1-(chloromethyl)-",403.05,le15,1
CCCCCCCCC(=O)Cl,nonanoyl chloride,368.15,le15,1
CCCCCCCCCCCl,1-chlorodecane,356.45,le15,1
Cc1cc(O)c(Cl)cc1Cl,"2,4-dichloro-5-methylphenol",382.05,le15,1
Cc1cc(Cl)cc(Cl)c1O,"o-Cresol, 4,6-dichloro- (8CI)",381.05,le15,1
OCc1ccc(Cl)c(Cl)c1,"Benzenemethanol, 3,4-dichloro-",388.95,le15,1
Cc1c(Cl)ccc(O)c1Cl,"Phenol, 2,4-dichloro-3-methyl-",381.35,le15,1
Cc1cc(Cl)c(O)c(Cl)c1,"2,6-dichloro-4-methylphenol",376.05,le15,1
Cc1ccc(Cl)c(O)c1Cl,"2,6-dichloro-3-methylphenol",375.55,le15,1
Cc1ccc(Br)s1,2-bromo-5-methylthiophene,333.75,le15,1
Cc1ccsc1Br,2-bromo-3-methylthiophene,341.45,le15,1
O=[N+]([O-])c1c(F)cc(F)cc1F,"1,3,5-trifluoro-2-nitrobenzene",354.45,le15,1
O=[N+]([O-])c1ccc(F)c(F)c1F,"1,2,3-Trifluoro-4-nitrobenzene",366.15,le15,1
O=[N+]([O-])c1cc(F)c(F)cc1F,"1,2,4-trifluoro-5-nitrobenzene",358.25,le15,1
CC1CCCC(Br)C1,1-bromo-3-methylcyclohexane,338.65,le15,1
O=CC=Cc1ccccc1[N+](=O)[O-],2-Nitrocinnamaldehyde,451.25,le15,1
O=CC=Cc1ccc([N+](=O)[O-])cc1,"2-Propenal, 3-(4-nitrophenyl)-",424.75,le15,1
COC(=O)C(C#N)=Cc1ccco1,"2-Furanacrylic acid, alpha-cyano-, methyl ester",401.25,le15,1
Cn1ncc2cc([N+](=O)[O-])ccc21,1-N-Methyl-5-nitroindazole,443.85,le15,1
Cn1cc2ccc([N+](=O)[O-])cc2n1,"2H-Indazole, 2-methyl-6-nitro-",447.35,le15,1
Cn1cnc2ccc([N+](=O)[O-])cc21,"Benzimidazole, 1-methyl-6-nitro- (8CI)",443.85,le15,1
CC(=O)CC(=O)Nc1ccccc1,"Butanamide, 3-oxo-N-phenyl-",435.15,le15,1
C=CCOC(=O)c1ccccc1N,"Anthranilic acid, allyl ester (8CI)",429.25,le15,1
COc1ccc2c(c1)nc(N)n2C,"1H-Benzimidazol-2-amine, 5-methoxy-1-methyl-",452.35,le15,1
N=C(N)NC(=N)Nc1ccccc1,"Imidodicarbonimidic diamide, N-phenyl-",461.85,le15,1
CCN(CC)C(=O)c1ccccc1,"Benzamide, N,N-diethyl-",398.65,le15,1
CCCN(C(C)=O)c1ccccc1,N-phenyl-N-propylacetamide,382.55,le15,1
CCN(CC)c1ccc(C=O)cc1,"Benzaldehyde, p-(diethylamino)- (8CI)",383.35,le15,1
CC1NCCOC1c1ccccc1,"Morpholine, 3-methyl-2-phenyl-",385.85,le15,1
CCCCNC(=O)c1ccccc1,"Benzamide, N-butyl-",474.75,le15,1
S=C=NCCCc1ccccc1,3-Phenylpropyl isothiocyanate,408.25,le15,1
S=c1[nH]c(=S)[nH]c(=S)[nH]1,"1,3,5-Triazine-2,4,6(1H,3H,5H)-trithione",373.65,le15,1
CCCN(CCC)c1ccccc1,"N,N-dipropylaniline",375.35,le15,1
CCCCNC(C)c1ccccc1,"Benzenemethanamine, N-butyl-alpha-methyl- (9CI)",364.35,le15,1
CC(C)c1cccc(C(C)C)c1N,"Benzenamine, 2,6-bis(1-methylethyl)-",481.35,le15,1
CCCCCCc1ccc(N)cc1,4-hexylaniline,394.51199999999994,le15,1
CCSC(=S)N(CC)CC,"Carbamodithioic acid, diethyl-, ethyl ester",365.25,le15,1
COC(=O)C(Cl)(Cl)Cl,"methyl 2,2,2-trichloroacetate",345.15,le15,1
O=C(O)C(Cl)(Cl)CCl,"Propanoic acid, 2,2,3-trichloro-",361.95,le15,1
CC(C)(O)C(Cl)(Cl)Cl,"2-Propanol, 1,1,1-trichloro-2-methyl-",334.95,le15,1
Cc1cc(Cl)c2ccccc2n1,4-chloro-2-methylquinoline,386.15,le15,1
O=C1CCC(=O)N1Br,"Succinimide, N-bromo- (8CI)",360.85,le15,1
Nc1cc(Cl)cc(Cl)c1O,"Phenol, 2-amino-4,6-dichloro-",400.25,le15,1
COC(=O)C(F)(F)C(F)(F)F,"methyl 2,2,3,3,3-pentafluoropropanoate",278.75,le15,1
O=Cc1c(F)c(F)cc(F)c1F,"2,3,5,6-Tetrafluorobenzaldehyde",347.0499999999999,le15,1
Cc1c(F)c(F)c(C)c(F)c1F,"1,2,4,5-tetrafluoro-3,6-dimethylbenzene",320.35,le15,1
CCOS(=O)(=O)C(F)(F)F,ethyl trifluoromethanesulfonate,308.75,le15,1
O=C1c2ccccc2C(=O)C1(O)O,"1H-Indene-1,3(2H)-dione, 2,2-dihydroxy-",512.8499999999998,le15,1
CCOC(=O)C(=O)c1ccccc1,ethyl 2-oxo-2-phenylacetate,386.15,le15,1
C=CC(O)c1ccc2c(c1)OCO2,"1,3-Benzodioxole-5-methanol, alpha-ethenyl-",408.35,le15,1
c1cc2c(cc1CC1CO1)OCO2,"1,3-Benzodioxole, 5-(oxiranylmethyl)- (9CI)",367.15,le15,1
O=C(O)CCSCCC(=O)O,"Propanoic acid, 3,3'-thiobis-",401.15,le15,1
C(#Cc1ccccc1)c1ccccc1,2-phenylethynylbenzene,399.19300000000004,le15,1
C=CCc1ccc(OC)c(OC)c1,"Benzene, 1,2-dimethoxy-4-(2-propenyl)-",390.15,le15,1
CC=Cc1ccc(OCC)c(O)c1,"Phenol, 2-ethoxy-5-(1-propenyl)-",438.35,le15,1
CC(C)C(=O)OCc1ccccc1,"Propanoic acid, 2-methyl-, phenylmethyl ester",368.65,le15,1
Cc1ccc(OC(=O)C(C)C)cc1,"Propanoic acid, 2-methyl-, 4-methylphenyl ester",366.95,le15,1
COc1ccc(CCC(C)=O)cc1,"2-Butanone, 4-(p-methoxyphenyl)- (6CI,7CI,8CI)",385.15,le15,1
CCC(=O)OC(C)c1ccccc1,"Benzenemethanol, alpha-methyl-, propanoate",379.15,le15,1
CC(C)COC(=O)c1ccccc1,"Benzoic acid, isobutyl ester (6CI,7CI,8CI)",374.55,le15,1
CCC(=O)OCCc1ccccc1,"Propanoic acid, 2-phenylethyl ester",367.55,le15,1
CCCCOC(=O)c1ccccc1,"Benzoic acid, butyl ester",380.15,le15,1
CC1(c2ccccc2)CCOCO1,"4-methyl-4-phenyl-1,3-dioxane",386.95,le15,1
CCOC(=O)CCc1ccccc1,ethyl 3-phenylpropanoate,381.15,le15,1
CC(=O)OC(C)Cc1ccccc1,"Acetic acid, alpha-methyl-phenethyl ester",376.15,le15,1
CCC(C(=O)OC)c1ccccc1,methyl 2-phenylbutanoate,366.75,le15,1
COC(C=Cc1ccccc1)OC,"Benzene, (3,3-dimethoxy-1-propenyl)-",372.55,le15,1
CCCCOc1ccc(C=O)cc1,"Benzaldehyde, 4-butoxy-",396.95,le15,1
C=CC(=O)OCC1CC2C=CC1C2,"2-Propenoic acid, bicyclo(2.2.1)hept-5-en-2-ylmethyl ester",395.55,le15,1
CC(C)(C)c1ccc(C(=O)O)cc1,"Benzoic acid, 4-(1,1-dimethylethyl)-",408.05,le15,1
CCCC(=O)OCc1ccccc1,"Butanoic acid, phenylmethyl ester",421.722,le15,1
CC(C)OC(=O)Cc1ccccc1,"Benzeneacetic acid, 1-methylethyl ester",370.65,le15,1
CCN(CC)C(=O)c1cccnc1,"N,N-diethylpyridine-3-carboxamide",414.25,le15,1
COCCOCCOCCOC,"1,2-Bis(2-methoxyethoxy)ethane",386.15,le15,1
CCOCCOCCOCCO,"Ethanol, 2-(2-(2-ethoxyethoxy)ethoxy)-",405.15,le15,1
CCN(CC)c1ccc(N=O)cc1,"Benzenamine, N,N-diethyl-4-nitroso-",402.55,le15,1
CCCCCc1ccc(C)cc1O,"Phenol, 5-methyl-2-pentyl- (9CI)",398.45,le15,1