smiles,compound,flashpoint,source,pure substance,canonical smiles
C[Si](O[SiH](O[Si](C)(C)C)O[Si](C)(C)C)(C)C,Tris(trimethylsiloxy)silane,323.15,chen14,1,C=Cc1ccccc1C
C(CCCCCCCCCCCCCCC)[Si](Cl)(Cl)Cl,Hexadecyltrichlorosilane,427.15,chen14,1,Cc1cccc(C(C)C)c1
Cl[SiH2]Cl,Dichlorosilane,236.15,chen14,1,C=Cc1cccc(C)c1
C[Si](Cl)(Cl)C,Dimethyldichlorosilane,257.15,chen14,1,CCCc1cccc(C)c1
BrC[Si](Cl)(C)C,Bromomethyldimethylchlorosilane,314.15,chen14,1,CCCCC(CC)c1ccc(C)cc1
C[SiH](C)C,Trimethylsilane,204.15,chen14,1,C=Cc1ccc(C)cc1
CC(=C[SiH2]Cl)C,Dimethylvinylchlorosilane,268.15,chen14,1,CCCCCCCc1ccc(C)cc1
Cl[Si](O[Si](Cl)(C)C)(C)C,"1,3-Dichlorotetramethyldisiloxane",288.15,chen14,1,CCCCCc1ccc(C)cc1
C[SiH](O[SiH](C)C)C,"1,1,3,3-Tetramethyldisiloxane",251.15,chen14,1,Cc1cccc2ccccc12
CN([Si](C)(C)C)[SiH3],Tetramethyldisilazane,284.15,chen14,1,CC1CCCc2ccccc21
C(C=C)[Si](Cl)(C)C,Allyl Dimethylchlorosilane,278.15,chen14,1,CC(c1ccccc1)c1ccccc1
C(C)(CCC)[Si](Cl)(Cl)Cl,sec-Amyltrichlorosilane,303.15,chen14,1,CCc1ccccc1CC
C(CCC)[Si](Cl)(Cl)C,n-Butylmethyldichlorosilane,303.15,chen14,1,CCCc1cccc(C)c1C
CN(C)C(N(C)C)[SiH3],Bis(dimethylamino)methylsilane,270.15,chen14,1,Cc1ccccc1C
C1(=CC=CC=C1)[Si](Cl)(Cl)Cl,Phenyltrichlorosilane,364.15,chen14,1,c1ccc(-c2ccccc2-c2ccccc2)cc1
C1(=CC=CC=C1)[Si](F)(F)F,Phenyl trifluorosilane,268.15,chen14,1,c1ccc(CCc2ccccc2)cc1
C[Si](OC(C)=O)(OC(C)=O)C,Dimethyldiacetoxysilane,310.15,chen14,1,Cc1cccc(C)c1C
C[Si](C#CC)(C)C,1-Trimethylsilylpropyne,270.15,chen14,1,Cc1ccc(C)c(C)c1C
C(=C)[Si](OCC)(C)C,Vinyldimethylethoxysilane,277.15,chen14,1,Cc1cc(C)c(C)c(C)c1
C(C=C)O[Si](C)(C)C,Allyloxytrimethylsilane,273.15,chen14,1,CCc1ccc(CC)c(CC)c1
C(C=C)[Si](OC)(OC)OC,Allyltrimethoxysilane,319.15,chen14,1,CCCCCCCCCCCCCCCCc1cc(C)c(C)cc1C
ClCCC[Si](OC)(OC)OC,3-Chloropropyltrimethoxysilane,348.15,chen14,1,Cc1ccc(C)c(C)c1
C(CC)[Si](OC)(OC)OC,n-Propyltrimethoxysilane,298.15,chen14,1,Cc1cc(C)c(C)cc1C
C[Si](O[Si](C)(C)C)(C)C,Hexamethyldisiloxane,270.15,chen14,1,CC(C)c1cccc(C(C)C)c1
C[Si]([Si](C)(C)C)(C)C,Hexamethyldisilane,272.15,chen14,1,CCCCc1cc(CC)cc(CC)c1
C(=C)[Si](C)(CC)CC,Vinyldiethylmethylsilane,288.15,chen14,1,CCc1cccc(CC)c1
C(C(C)C)[Si](OC)(OC)OC,Isobutyltrimethoxysilane,315.15,chen14,1,c1ccc(-c2cccc(-c3ccccc3)c2)cc1
C1(=CC=CC=C1)[Si](Cl)(C)C,Phenyldimethylchlorosilane,334.15,chen14,1,Cc1cccc(C)c1
CN(C)[Si](CC)(CC)CC,"(N,N-Dimethylamino)triethylsilane",299.15,chen14,1,CCc1cc(CC)cc(CC)c1
C(=C)[Si](OC(C)=O)(OC(C)=O)OC(C)=O,Vinyltriacetoxysilane,361.15,chen14,1,CC(C)c1cc(C(C)C)cc(C(C)C)c1
C(C)[Si](OC(C)=O)(OC(C)=O)OC(C)=O,Ethyltriacetoxysilane,377.15,chen14,1,Cc1cc(C)cc(C)c1
C[Si](C1C=CCC1)(C)C,3-(Trimethylsilyl)cyclopentene,299.15,chen14,1,CCc1ccc(CC)cc1
C(=C)[Si](CC)(CC)CC,Vinyltriethylsilane,298.15,chen14,1,CC(C)c1ccc(C(C)C)cc1
C(CCCCCCC)[SiH3],n-Octylsilane,309.15,chen14,1,Cc1ccc(C)cc1
C[Si](OC)(OC)C1=CC=CC=C1,Methyl phenyldimethoxysilane,349.15,chen14,1,CCCCCCCCC1CCc2ccccc2C1CCCCCCCC
C(#N)CC[Si](OCC)(OCC)OCC,2-Cyanoethyltriethoxysilane,359.15,chen14,1,c1ccc(-c2ccc(-c3ccccc3)cc2)cc1
C(C1CO1)OCCC[Si](OC)(OC)OC,3-Glycidoxypropyltrimethoxysilane,383.15,chen14,1,CCc1cc(C)ccc1C
C(C)(C)(C)[Si](Cl)(C)C(C)(C)C,Di-t-butylmethylchlorosilane,342.15,chen14,1,CCCCCCCCC(C)(C)c1ccc2ccccc2c1
C(CC)[Si](Cl)(CCC)CCC,Tri-n-propylchlorosilane,349.15,chen14,1,CCCCC(C)(C)c1ccc2ccccc2c1
C(C)(C)N(C(C)C)[Si](C)(C)C,(Diisopropylamino)trimethylsilane,301.15,chen14,1,CCCCCCCCCCCCCCCC(C)(C)c1ccccc1
Cl[Si](O[Si](O[Si](O[Si](C)(C)C)(C)C)(C)C)(C)C,1-Chlorononamethyltetrasiloxane,347.15,chen14,1,CCCCCCCCCCCCCC(C)(C)c1ccccc1
C[Si](OC(O[Si](C)(C)C)(O[Si](C)(C)C)[SiH3])(C)C,Tristrimethylsiloxymethylsilane,336.15,chen14,1,CCCCCCCC(CC(C)C)(CC(C)C)c1ccccc1
C1(=CC=CC=C1)C(C1=CC=CC=C1)[SiH3],Diphenylmethylsilane,393.15,chen14,1,CCCc1ccc2cc(C)ccc2c1
C[Si](OC(=C)C)(C)C,Trimethyl[(1-methylethenyl)oxy]silane,272.15,chen14,1,CCCCCCCCc1ccc2ccccc2c1
ClC(Cl)[SiH2]CCC(F)(F)F,"Dichloromethyl-3,3,3-trifluoropropylsilane",288.15,chen14,1,CCC(C)(C)c1ccccc1
ClCOCC[Si](C)(C)C,[2-(chloromethoxy)ethyl]trimethylsilane,319.15,chen14,1,CCCC1Cc2ccccc2C1
I[Si](C)(C)C,Iodotrimethylsilane,288.15,chen14,1,CCCc1ccc2ccccc2c1
C1(=CC=CC=C1)[SiH](C1=CC=CC=C1)C1=CC=CC=C1,Triphenylsilane,416.35,chen14,1,CC(C)(C)c1ccc2ccccc2c1
SCCC[Si](OCC)(OCC)OCC,[3-(mercapto)propyl]triethoxysilane,360.93,chen14,1,CC(C)(c1ccccc1)c1ccccc1
C[Si](O[Si](O[Si](O[Si](O[Si](O[Si](O[Si](C)(C)C)(C)C)(C)C)(C)C)(C)C)(C)C)(C)C,Hexadecamethylheptasiloxane,406.15,chen14,1,Cc1ccc2cc(C)ccc2c1
NCCC[SiH2]OCC,Gamma-aminopropylethoxysilane,369.26,chen14,1,CCCCCC[C@@H](C)c1ccccc1
Cl[Si](CC)(CC)Cl,Dichlorodiethylsilane,297.15,chen14,1,CCCCCCCCCCCC[C@@H](C)c1ccccc1
C[SiH](Cl)C,Dimethylchlorosilane,245.15,chen14,1,CCCCCCCCC[C@@H](C)c1ccccc1