smiles,compound,flashpoint,source,pure substance
C(=C)CC(=O)[O-],vinylacetate,265.0,carroll11,1
C(=C)OC(CC)=O,vinylpropanoate,279.0,carroll11,1
C(=C)OC(CCC)=O,vinylbutanoate,293.0,carroll11,1
C(C=CC)#N,2-butenenitrile,290.0,carroll11,1
C(C=C)SSCC=C,diallyldisulfide,335.0,carroll11,1
C(CCC=C)O,4-penten-1-ol,316.0,carroll11,1
C(CC=C)#N,3-butenenitrile,294.0,carroll11,1
C(CC)OC(C=C)=O,propylacrylate,297.0,carroll11,1
C1(=C(C(=CC(=C1)C)C)OC1=C(C=C(C=C1C)C)C)C,mesityloxide,298.0,carroll11,1
C=CC1=CC=CC=C1,styrene,304.0,carroll11,1
C(CC)OC(C(=C)C)=O,propylmethacrylate,308.0,carroll11,1
C(CC=C)O,3-buten-1-ol,305.0,carroll11,1
CC(CO)=C,2-methyl-2-propen-1-ol,306.0,carroll11,1
C(CCC)OC(C=C)=O,butylacrylate,310.0,carroll11,1
CC1=CC=C(C=C)C=C1,4-methylstyrene,319.0,carroll11,1
C(CCC=C)CC(=O)[O-],4-pentenylacetate,318.0,carroll11,1
C(CCCC=C)O,5-hexen-1-ol,320.0,carroll11,1
CC=1C=C(C=C)C=CC1,3-methylstyrene,321.0,carroll11,1
C(C=C)(=O)O,acrylicacid,327.0,carroll11,1
C1(C=CCCC1)=O,2-cyclohexen-1-one,329.0,carroll11,1
C(=C\CCCC)/CC(=O)[O-],trans-2-hexenylacetate,331.0,carroll11,1
C(=C)N(C(C)=O)C,N-vinyl-N-methylacetamide,336.0,carroll11,1
CC(CC=O)CCC=C(C)C,"3,7-dimethyl-6-octenal",351.0,carroll11,1
O=C1C=C(CC(C)(C)C1)C,isophorone,357.0,carroll11,1
C(C)C(COC(C=C)=O)CCCC,2-ethylhexylacrylate,359.0,carroll11,1
C(\C=C\CC)(=O)O,trans-2-pentenoicacid,375.0,carroll11,1
C(CC(C)CCC=C(C)C)CC(=O)[O-],citronellylacetate,376.0,carroll11,1
C(CCCCCCCC=C)O,9-decen-1-ol,392.0,carroll11,1
ClCCCC#C,5-chloro-1-pentyne,288.0,carroll11,1
C(C#C)O,2-propyn-1-ol,309.0,carroll11,1
COC(C#CCCCCC)=O,methyl2-octynoate,362.0,carroll11,1
ClC(=C)Cl,"1,1-dichloroethene",248.0,carroll11,1
FC1=CC=CC=C1,fluorobenzene,258.0,carroll11,1
ClC(C)(C)Cl,"2,2-dichloropropane",268.0,carroll11,1
FC1=CC=C(C)C=C1,4-fluorotoluene,285.0,carroll11,1
FC1=CC=C(C=C)C=C1,4-fluorostyrene,308.0,carroll11,1
C(C)C1=CC=C(C=C1)F,1-ethyl-4-fluorobenzene,303.0,carroll11,1
CC1=C(C=C(C=C1)F)C,"1,2-dimethyl-4-fluorobenzene",313.0,carroll11,1
FC1=CC(=CC(=C1)C)C,"1-fluoro-3,5-dimethylbenzene",308.0,carroll11,1
CC(C(C)=O)=O,"2,3-butanedione",283.0,carroll11,1
FC1=C(C)C=CC=C1,2-fluorotoluene,285.0,carroll11,1
FC=1C=C(C)C=CC1,3-fluorotoluene,285.0,carroll11,1
C(C)OC(CC)OCC,"1,1-diethoxypropane",286.0,carroll11,1
CN1CCOCC1,N-methylmorpholine,287.0,carroll11,1
CN1C=CC=C1,1-methylpyrrole,288.0,carroll11,1
N1=CC=CC=C1,pyridine,290.0,carroll11,1
ClCSC,chloromethylmethylsulfide,290.0,carroll11,1
N1=C(C=CC=C1)C,2-picoline,299.0,carroll11,1
ClCC(CC)Cl,"1,2-dichlorobutane",300.0,carroll11,1
ClC1=CC=CC=C1,chlorobenzene,301.0,carroll11,1
COCCCN,3-methoxypropylamine,296.0,carroll11,1
N1C=CC=C1,pyrrole,306.0,carroll11,1
C(C(C)N)N,"1,2-propanediamine",306.0,carroll11,1
ClCCC(C)Cl,"1,3-dichlorobutane",304.0,carroll11,1
N1CCOCC1,morpholine,304.0,carroll11,1
N1=CC(=CC=C1)C,3-picoline,309.0,carroll11,1
N1=CC=C(C=C1)C,4-picoline,311.0,carroll11,1
CC(CC(C)=O)=O,"2,4-pentanedione",311.0,carroll11,1
C(C)OC(CCl)=O,ethylchloroacetate,326.0,carroll11,1
ClCCCCCl,"1,4-dichlorobutane",316.0,carroll11,1
ClC1=C(C)C=CC=C1,2-chlorotoluene,320.0,carroll11,1
ClCCCS,3-chloro-1-propanethiol,316.0,carroll11,1
COCCOC(C)=O,2-methoxyethylacetate,316.0,carroll11,1
CC1=NC=CC(=C1)C,"2,4-dimethylpyridine",320.0,carroll11,1
ClC1=CC=C(C)C=C1,4-chlorotoluene,319.0,carroll11,1
ClC=1C=C(C)C=CC1,3-chlorotoluene,323.0,carroll11,1
C1(=CC=CC=C1)S,benzenethiol,324.0,carroll11,1
BrC1=CC=CC=C1,bromobenzene,324.0,carroll11,1
C(C)OCCOC(C)=O,2-ethoxyethylacetate,324.0,carroll11,1
CC1=C(C=CC=C1)OC,2-methylanisole,324.0,carroll11,1
CC=1C=C(C=CC1)OC,3-methylanisole,325.0,carroll11,1
ClC(CO)C,2-chloro-1-propanol,324.0,carroll11,1
CC1=CC=C(C=C1)OC,4-methylanisole,326.0,carroll11,1
C(C1=CC=CC=C1)OC,benzylmethylether,326.0,carroll11,1
ClCCO,2-chloroethanol,328.0,carroll11,1
CC1=NC(=CC(=C1)C)C,"2,4,6-trimethylpyridine",327.0,carroll11,1
C(CCSC)=O,4-thiapentanal,334.0,carroll11,1
C(C1=CC=CC=C1)OCC,benzylethylether,332.0,carroll11,1
C(C1=CC=CC=C1)Cl,benzylchloride,333.0,carroll11,1
C(C1=CC=CC=C1)=O,benzaldehyde,335.0,carroll11,1
BrC1=CC(=CC=C1)CC,1-bromo-3-ethylbenzene,344.0,carroll11,1
ClCCCCCCl,"1,5-dichloropentane",336.0,carroll11,1
ClC1=CC=C(C=C1)CC,1-chloro-4-ethylbenzene,335.0,carroll11,1
C(C1=CC=CC=C1)N,benzylamine,338.0,carroll11,1
SCCO,2-mercaptoethanol,341.0,carroll11,1
NC1=CC=CC=C1,aniline,343.0,carroll11,1
C(C)C1=C(N)C(=CC=C1)C,2-ethyl-6-methylaniline,375.0,carroll11,1
C(C1=CC=CC=C1)#N,benzonitrile,343.0,carroll11,1
C(C1=CC=CC=C1)S,benzylmercaptan,343.0,carroll11,1
C(C)OC(CC(=O)C)=O,ethylacetoacetate,343.0,carroll11,1
C(CCC)OCCOC(C)=O,2-butoxyethylacetate,344.0,carroll11,1
C(C1=CC=CC=C1)SC,benzylmethylsulfide,346.0,carroll11,1
ClCCCO,3-chloro-1-propanol,346.0,carroll11,1
C(C)(C)(C)OC(CC(=O)C)=O,tert-butylacetoacetate,349.0,carroll11,1
IC1=CC=CC=C1,iodobenzene,347.0,carroll11,1
BrC=1C=C(C)C=CC1,3-bromotoluene,348.0,carroll11,1
CN(C1=CC=CC=C1)C,"N,N-dimethylaniline",348.0,carroll11,1
BrC1=C(C=CC=C1)CC,1-bromo-2-ethylbenzene,352.0,carroll11,1
C(C)(=O)C1=CC=CC=C1,acetophenone,350.0,carroll11,1
BrC1=C(C)C=CC=C1,2-bromotoluene,351.0,carroll11,1
CNC1=CC=CC=C1,N-methylaniline,352.0,carroll11,1
C(C1=CC=CC=C1)Br,benzylbromide,352.0,carroll11,1
CC(CCC(C)=O)=O,"2,5-hexanedione",351.0,carroll11,1
COC(C1=CC=CC=C1)=O,methylbenzoate,353.0,carroll11,1
C(C)OC(C1=CC=CC=C1)=O,ethylbenzoate,357.0,carroll11,1
C(CC)OC(C1=CC=CC=C1)=O,propylbenzoate,371.0,carroll11,1
C(CCC)OC(C1=CC=CC=C1)=O,butylbenzoate,380.0,carroll11,1
C(CCCC)OC(C1=CC=CC=C1)=O,pentylbenzoate,393.0,carroll11,1
IC1=CC(=CC=C1)C,1-iodo-3-methylbenzene,356.0,carroll11,1
NC=1C(=CC=CC1)C,o-toluidine,358.0,carroll11,1
C(C)C1=C(C=CC=C1)O,2-ethylphenol,358.0,carroll11,1
CC=1C=C(C=CC1)CC(=O)[O-],3-methylphenylacetate,358.0,carroll11,1
C1=C(C=CC=C1O)C,m-cresol,359.0,carroll11,1
CC=1C=C(N)C=CC1,3-methylaniline,359.0,carroll11,1
C(C)C1=CC=C(N)C=C1,4-ethylaniline,370.0,carroll11,1
C(C)C=1C=C(N)C=CC1,3-ethylaniline,358.0,carroll11,1
C(C)C1=C(N)C=CC=C1,2-ethylaniline,358.0,carroll11,1
[N+](=O)([O-])C1=CC=CC=C1,nitrobenzene,361.0,carroll11,1
C(C)N(C1=CC=CC=C1)CC,"N,N-diethylaniline",361.0,carroll11,1
C(C)(C)C1=C(C=CC=C1)O,2-isopropylphenol,362.0,carroll11,1
IC1=C(C)C=CC=C1,2-iodotoluene,363.0,carroll11,1
IC1=CC=C(C)C=C1,4-iodotoluene,363.0,carroll11,1
C(CC)C1=CC=C(C=C1)OC,4-propylanisole,355.0,carroll11,1
C1(=CC=CC=C1)CC(CC)=O,1-phenyl-2-butanone,364.0,carroll11,1
C1(=CC=CC=C1)C(C)OC(C)=O,1-phenylethylacetate,364.0,carroll11,1
C(C1=CC=CC=C1)O,benzylalcohol,366.0,carroll11,1
C(CC)C1=C(C=CC=C1)O,2-propylphenol,366.0,carroll11,1
CC1=C(C=CC(=C1)C)O,"2,4-dimethylphenol",367.0,carroll11,1
C(C)C=1C=C(C=CC1)O,3-ethylphenol,367.0,carroll11,1
C1(=CC=CC=C1)C(C)OC(CC)=O,1-phenylethylpropionate,379.0,carroll11,1
C(C1=CC=CC=C1)CC(=O)[O-],benzylacetate,363.0,carroll11,1
C(CCCCS)S,"1,5-pentanedithiol",368.0,carroll11,1
CC1=C(N)C=CC=C1C,"2,3-dimethylaniline",369.0,carroll11,1
C(C1=CC=CC=C1)OC(CC)=O,benzylpropanoate,369.0,carroll11,1
C1(=CC=CC=C1)C(CCC)=O,1-phenyl-1-butanone,361.0,carroll11,1
C(C1=CC=CC=C1)I,benzyliodide,370.0,carroll11,1
C(C1=CC=CC=C1)C#N,benzylcyanide,374.0,carroll11,1
C(C)(C)(C)C1=CC=C(N)C=C1,4-tert-butylaniline,375.0,carroll11,1
C(C)(C)(C)C=1C=C(N)C=CC1,3-tert-butylaniline,374.0,carroll11,1
C(CCC)C1=CC=C(N)C=C1,4-butylaniline,375.0,carroll11,1
C(CC)C1=CC=C(N)C=C1,4-propylaniline,376.0,carroll11,1
C(CC)C1=C(N)C=CC=C1,2-propylaniline,370.0,carroll11,1
C(C)(C)C1=C(N)C=CC=C1,2-isopropylaniline,368.0,carroll11,1
C(C)(C)C=1C=C(C=CC1)O,3-isopropylphenol,377.0,carroll11,1
N1=CC=CC2=CC=CC=C12,quinoline,374.0,carroll11,1
C1(=CC=CC=C1)CCOC(C)=O,2-phenylethylacetate,375.0,carroll11,1
C(CC)C1=CC=C(C=C1)O,4-propylphenol,379.0,carroll11,1
C1(=CC=CC=C1)CCOC(CC)=O,2-phenylethylpropionate,386.0,carroll11,1
C(C1=CC=CC=C1)OC(CCC)=O,benzylbutanoate,380.0,carroll11,1
C(C)(CC)C1=C(C=CC=C1)O,2-sec-butylphenol,380.0,carroll11,1
C(CCC)NC1=CC=CC=C1,N-butylaniline,380.0,carroll11,1
C(C)(CC)NC1=CC=CC=C1,N-sec-butylaniline,366.0,carroll11,1
C(C)(C)(C)NC1=CC=CC=C1,N-tert-butylaniline,361.0,carroll11,1
C(C)(CC)C1=CC=C(N)C=C1,4-sec-butylaniline,381.0,carroll11,1
C(C)(CC)C1=C(N)C=CC=C1,2-sec-butylaniline,375.0,carroll11,1
C(C)(C)(C)C1=C(C=CC=C1)O,2-tert-butylphenol,375.0,carroll11,1
C1(=CC=CC=C1)CCCOC(C)=O,3-phenylpropylacetate,386.0,carroll11,1
C(C)(C)C1=C(N)C(=CC=C1)C(C)C,"2,6-diisopropylaniline",396.0,carroll11,1
C(C=C)OC1=CC=CC=C1,allylphenylether,336.0,carroll11,1
C(=C)OC=C,divinylether,226.0,carroll11,1
O1C=CC=C1,furan,237.0,carroll11,1
CC=1OC=CC1,2-methylfuran,247.0,carroll11,1
S1C=CC=C1,thiophene,264.0,carroll11,1
CC=1SC=CC1,2-methylthiophene,281.0,carroll11,1
C(C)C=1SC=CC1,2-ethylthiophene,294.0,carroll11,1
C(CC)C=1SC=CC1,2-propylthiophene,305.0,carroll11,1
C(C)(C)(C)C=1OC=CC1,2-tert-butylfuran,280.0,carroll11,1
CC1=CSC=C1,3-methylthiophene,284.0,carroll11,1
C(C=C)OC(C(=C)C)=O,allylmethacrylate,310.0,carroll11,1
C(\C=C(/C)\CCC=C(C)C)C(=O)[O-],geranylformate,368.0,carroll11,1
C(\C=C(/C)\CCC=C(C)C)CC(=O)[O-],geranylacetate,377.0,carroll11,1
C(=CC)C1=CC=C(C=C1)OC,4-propenylanisole,369.0,carroll11,1
C(C)\C(=C(/C(=O)[O-])\CC)\C(=O)[O-],diethylfumarate,366.0,carroll11,1
C(C)OC(C=CC1=CC=CC=C1)=O,ethylcinnamate,408.0,carroll11,1
COCC(C)O,1-methoxy-2-propanol,304.0,carroll11,1
COCCO,2-methoxyethanol,311.0,carroll11,1
CN(CCO)C,2-dimethylaminoethanol,314.0,carroll11,1
C(C)OCCO,2-ethoxyethanol,315.0,carroll11,1
C(C)(C)OCCO,2-isopropoxyethanol,316.0,carroll11,1
BrCC(OC)OC,"2-bromo-1,1-dimethoxyethane",324.0,carroll11,1
COCCNCCOC,bis(2-methoxyethyl)amine,331.0,carroll11,1
C(CCC)OCCO,2-butoxyethanol,335.0,carroll11,1
ClC1=CC(=CC=C1)Cl,"1,3-dichlorobenzene",336.0,carroll11,1
ClC1=NC=CC=C1,2-chloropyridine,337.0,carroll11,1
ClC1=C(C=CC=C1)Cl,"1,2-dichlorobenzene",341.0,carroll11,1
NC(CO)(C)C,2-amino-2-methyl-1-propanol,341.0,carroll11,1
CNCCO,2-(methylamino)ethanol,345.0,carroll11,1
NCC(C)O,1-amino-2-propanol,340.0,carroll11,1
ClC1=C(C=CC=C1)O,2-chlorophenol,345.0,carroll11,1
OCCNCCC,(2-hydroxyethyl)propylamine,351.0,carroll11,1
COC1=C(C=CC=C1)OC,"1,2-dimethoxybenzene",360.0,carroll11,1
ClC(CO)CCl,"2,3-dichloro-1-propanol",366.0,carroll11,1
C1(=CC=CC=C1)OC1=CC=CC=C1,diphenylether,388.0,carroll11,1
COC(C=1C(C(=O)OC)=CC=CC1)=O,dimethylphthalate,423.0,carroll11,1
C(C(C)C)OC(C=1C(C(=O)OCC(C)C)=CC=CC1)=O,diisobutylphthalate,458.0,carroll11,1
C(C)OC(C=1C(C(=O)OCC)=CC=CC1)=O,diethylphthalate,433.0,carroll11,1
C(C1=CC=CO1)=O,furfural,331.0,carroll11,1
C(C1=CC=CO1)O,furfurylalcohol,348.0,carroll11,1
C(C1=CC=CO1)CC(=O)[O-],furfurylacetate,338.0,carroll11,1
C(C1=CC=CO1)OC(CC)=O,furfurylpropanoate,355.0,carroll11,1
COC1OC(C=C1)OC,"2,5-dimethoxy-2,5-dihydrofuran",320.0,carroll11,1
COC=1C(C(=O)[O-])=CC=CC1,methylsalicylate,372.0,carroll11,1
C(C)OC=1C(C(=O)[O-])=CC=CC1,ethylsalicylate,380.0,carroll11,1
C1(=CC=CC=C1)CCO,2-phenylethanol,375.0,carroll11,1
C(COCCO)O,diethyleneglycol,397.0,carroll11,1
CN(CCO)CCO,N-methyldiethanolamine,410.0,carroll11,1
CC1=COC=C1,3-methylfuran,251.0,carroll11,1
C(C)C=1OC=CC1,2-ethylfuran,271.0,carroll11,1
C(C)C1=CSC=C1,3-ethylthiophene,296.0,carroll11,1
C1(CCCCC1)OC(C(=C)C)=O,cyclohexylmethacrylate,355.0,carroll11,1
C1(CCCCC1)OC(C=C)=O,cyclohexylacrylate,341.0,carroll11,1
C1(=CC=CC=C1)CCC(CC)=O,1-phenyl-3-pentanone,376.0,carroll11,1
C(CC)C=1OC=CC1,2-propylfuran,288.0,carroll11,1
C(C(C)C)OC(C1=CC=CC=C1)=O,isobutylbenzoate,375.0,carroll11,1
ClCCCCCCC#CCC,10-chloro-3-decyne,359.0,carroll11,1
ClCCCC#CCCCCC,1-chloro-4-decyne,360.0,carroll11,1
ClC(=C)C=C,"2-chloro-1,3-butadiene",253.0,carroll11,1
C(C(C)C)OCCO,2-isobutoxyethanol,324.0,carroll11,1
Cl[SiH](Cl)Cl,Trichlorosilane,245.15,chen14,1
C[Si](Cl)(Cl)Cl,Methyltrichlorosilane,276.15,chen14,1
C(=C)[Si](Cl)(Cl)Cl,Vinyltrichlorosilane,294.15,chen14,1
ClC(Cl)[Si](Cl)(Cl)C,Dichloromethylmethyldichlorosilane,301.15,chen14,1
C(C)[Si](Cl)(Cl)Cl,Ethyltrichlorosilane,263.15,chen14,1
C[SiH](Cl)C,Dimethylchlorosilane,245.15,chen14,1
C(C)[SiH3],Ethylsilane,213.15,chen14,1
Cl[Si](CCC(F)(F)F)(Cl)Cl,"Trichloro(3,3,3-trifluoropropyl)silane",288.15,chen14,1
C(C=C)[Si](Cl)(Cl)Cl,Allyltrichlorosilane,304.15,chen14,1
ClCCC[Si](Cl)(Cl)Cl,3-Chloropropyltrichlorosilane,357.15,chen14,1
C(CC)[Si](Cl)(Cl)Cl,n-Propyltrichlorosilane,310.15,chen14,1
ClC[Si](Cl)(C)C,Chloromethyldimethylchlorosilane,295.15,chen14,1
C[Si](Br)(C)C,Trimethyl bromosilane,270.15,chen14,1
C[Si](Cl)(C)C,Trimethylchlorosilane,255.15,chen14,1
C[Si](F)(C)C,Trimethylfluorosilane,238.15,chen14,1
CO[SiH](OC)OC,Trimethoxysilane,264.15,chen14,1
C(#N)CC[Si](Cl)(Cl)C,2-Cyanoethylmethyldichlorosilane,333.15,chen14,1
C(C=C)C[SiH](Cl)Cl,Allylmethyldichlorosilane,300.15,chen14,1
C(C)(C)(C)[Si](Cl)(Cl)Cl,t-Butyltrichlorosilane,294.15,chen14,1
C(C(C)C)[Si](Cl)(Cl)Cl,Isobutyltrichlorosilane,310.15,chen14,1
C(CCC)[Si](Cl)(Cl)Cl,n-Butyltrichlorosilane,327.15,chen14,1
C[Si](C)(C)N=C=S,Trimethylsilylisothiocyanate,308.15,chen14,1
C(CC)[Si](Cl)(Cl)C,n-Propylmethyldichlorosilane,300.15,chen14,1
BrC[Si](C)(C)C,Bromomethyltrimethylsilane,289.15,chen14,1
C(C)[Si](Cl)(C)C,ETHYLDIMETHYLCHLOROSILANE,269.15,chen14,1
CO[Si](C)(C)C,Methoxytrimethylsilane,243.15,chen14,1
C[Si](OC)(OC)C,Dimethyldimethoxysilane,265.15,chen14,1
C[Si](OC)(OC)OC,Methyltrimethoxysilane,284.15,chen14,1
CO[Si](OC)(OC)OC,Tetramethoxysilane,294.15,chen14,1
C[Si](C)(C)C,Tetramethylsilane,245.15,chen14,1
C(C)[SiH2]CC,Diethylsilane,253.15,chen14,1
CN(C)[SiH](C)C,"(N,N-Dimethylamino)dimethylsilane",260.15,chen14,1
N(=C=O)[Si](N=C=O)(N=C=O)N=C=O,Tetraisocyanatosilane,323.15,chen14,1
C1(CCCC1)[Si](Cl)(Cl)Cl,Cyclopentyltrichlorosilane,350.15,chen14,1
C[Si](C)(C)OC(C(F)(F)F)=O,Trimethylsilyltrifluoroacetate,273.15,chen14,1
C1(CCCC1)[SiH](Cl)Cl,Cyclopentyldichlorosilane,316.15,chen14,1
ClCC(C[Si](Cl)(Cl)C)C,3-Chloro-2-methylpropylmethyldichlorosilane,363.15,chen14,1
CC=C[SiH](OC)OC,Methylvinyldimethoxysilane,277.15,chen14,1
C(=C)[Si](OC)(OC)OC,Vinyltrimethoxysilane,296.15,chen14,1
CC(=C(C)C)[SiH3],Trimethylvinylsilane,239.15,chen14,1
C(C)[Si](Cl)(C)CC,Diethylmethylchlorosilane,288.15,chen14,1
ClC[Si](OCC)(C)C,Chloromethyldimethylethoxysilane,299.15,chen14,1
C(C)O[Si](C)(C)C,Ethoxytrimethylsilane,246.15,chen14,1
C(C)[Si](OC)(OC)OC,Ethyltrimethoxysilane,300.15,chen14,1
CN(C)[Si](C)(C)C,"(N,N-Dimethylamino)trimethylsilane",254.5,chen14,1
C[SiH](O[Si](C)(C)C)C,Pentamethyldisiloxane,254.15,chen14,1
C1(=CC=CC=C1)[SiH3],Phenylsilane,281.15,chen14,1
C(=CCCCC)[Si](Cl)(Cl)Cl,1-Hexenyltrichlorosilane,333.15,chen14,1
C1(CCCCC1)[Si](Cl)(Cl)Cl,Cyclohexyltrichlorosilane,358.15,chen14,1
ClC[Si](O[Si](C)(C)C)(C)CCl,Bis(chloromethyl)tetramethyldisiloxane,346.15,chen14,1
C(C#C)O[Si](C)(C)C,Propargyloxytrimethylsilane,300.15,chen14,1
C(=C)[Si](C)(C)C=C,Divinyldimethylsilane,281.15,chen14,1
C(CCCCC)[Si](Cl)(Cl)Cl,n-Hexyltrichlorosilane,358.15,chen14,1
C(CCCCC)[SiH](Cl)Cl,Hexyldichlorosilane,337.15,chen14,1
C[Si]1(OCCCC1)C,"1,1 -Dimethyl-1-sila-2-oxacyclohexane",287.15,chen14,1
C(C)(=O)OC[Si](C)(C)C,Acetoxymethyltrimethylsilane,293.15,chen14,1
C(C=C)[Si](C)(C)C,Allyltrimethylsilane,280.15,chen14,1
C(C)[Si](Cl)(CC)CC,Triethylchlorosilane,303.15,chen14,1
C(C)(C)(C)[Si](Cl)(C)C,t-Butyldimethylchlorosilane,295.15,chen14,1
ClCCC[Si](OC)(OC)C,3-Chloropropylmethyldimethoxysilane,318.15,chen14,1
C[Si](OCCC)(C)C,Trimethyl-n-propoxysilane,283.15,chen14,1
C(C)(C)(C)[Si](O)(C)C,t-Butyldimethylsilanol,318.15,chen14,1
C[Si](OCC)(OCC)C,Dimethyldiethoxysilane,284.15,chen14,1
C(C)[SiH](CC)CC,Triethylsilane,270.15,chen14,1
C(CCCCC)[SiH3],Hexylsilane,285.15,chen14,1
C(C)(C)(C)[SiH](C)C,t-Butyld imethyl silane,251.15,chen14,1
CN(C)[Si](C)(C)N(C)C,Bis(dimethylamino)dimethylsilane,266.15,chen14,1
C[Si]1(O[Si](O[Si](O1)(C)C)(C)C)C,Hexamethylcyclotrisiloxane,305.15,chen14,1
C[Si](S[Si](C)(C)C)(C)C,Hexamethyldisilthiane,299.15,chen14,1
C[Si](N[Si](C)(C)C)(C)C,Hexamethyldisilazane,281.15,chen14,1
CN(C)[SiH](N(C)C)N(C)C,Tris(dimethylamino)silane,298.15,chen14,1
C[Si](O[SiH2]O[Si](C)(C)C)(C)C,Hexamethyltrisiloxane,293.15,chen14,1
C1(=CC=CC=C1)C[SiH](Cl)Cl,Phenylmethyldichlorosilane,340.15,chen14,1
C1(=CC=CC=C1)C[SiH2]Cl,Phenylmethylchlorosilane,355.15,chen14,1
C[Si](OC(C)=O)(OC(C)=O)OC(C)=O,Methyltriacetoxysilane,358.15,chen14,1
C(=C)C(C=C)(C=C)[SiH3],Trivinylmethylsilane,288.15,chen14,1
C1(CCCCC1)C[SiH](Cl)Cl,Cyclohexylmethyldichlorosilane,355.15,chen14,1
C[Si](OC=CC=C)(C)C,"1-(Trimethylsiloxy)-1,3-butadiene",298.15,chen14,1
ClCC(=C)C[Si](C)(C)C,2-Chloromethyl-3-trimethylsilyl-1-propene,316.15,chen14,1
C(CCCCCC)[Si](Cl)(Cl)Cl,n-Heptyltrichlorosilane,337.15,chen14,1
C(CCCCC)[Si](Cl)(Cl)C,n-Hexylmethyldichlorosilane,358.15,chen14,1
C(=C)C[SiH](OCC)OCC,Vinylmethyldiethoxysilane,289.15,chen14,1
C[Si](N1CCOCC1)(C)C,N-(Trimethylsilyl)morpholine,300.15,chen14,1
C(C)(C)(C)O[Si](C)(C)C,t-Butoxytrimethylsilane,287.15,chen14,1
COCC(C)O[Si](C)(C)C,(1-Methoxy-2-propoxy)trimethylsilane,293.15,chen14,1
C[Si](OCC)(OCC)OCC,Methyltriethoxysilane,297.15,chen14,1
C(C)N(CC)[Si](C)(C)C,(Diethylamino)trimethylsilane,283.15,chen14,1
C[Si](C)(C)C[Si](C)(C)C,Bis(trimethylsilyl)methane,285.15,chen14,1
C[Si](N([Si](C)(C)C)C)(C)C,Heptamethyldisilazane,300.15,chen14,1
C[Si](OC(O[Si](C)(C)C)[SiH3])(C)C,Bis(trimethylsiloxy)methylsilane,296.15,chen14,1
C(=C)[Si](C=C)(C=C)C=C,Tetravinylsilane,291.15,chen14,1
C1(C=CC=C1)[Si](C)(C)C,Cyclopentadienyltrimethylsilane,302.15,chen14,1
C1(=CCCC1)O[Si](C)(C)C,(Cyclopentenyloxy)trimethylsilane,311.15,chen14,1
C(C=CC=C)[Si](C)(C)C,"(2,4-Pentadienyl)trimethylsilane",291.15,chen14,1
C(CCCCCCC)[Si](Cl)(Cl)Cl,n-Octyltrichlorosilane,369.15,chen14,1
C(CCCCCC)[Si](Cl)(Cl)C,n-Heptylmethyldichlorosilane,339.15,chen14,1
C[Si](O[Si](C=C)(C=C)C)(C)C,Tetramethyldivinyldisiloxane,292.15,chen14,1
C(C)C(C(=O)O[SiH3])(CC)CC,Triethylacetoxysilane,314.15,chen14,1
C(=C)[Si](OCC)(OCC)OCC,Vinyltriethoxysilane,307.15,chen14,1
C(=C)[Si](N[Si](C=C)(C)C)(C)C,"1,3-Divinyltetramethyldisilazane",307.15,chen14,1
C(C)[Si](OCC)(OCC)CC,Diethyldiethoxysilane,316.15,chen14,1
C(C)O[Si](OCC)(OCC)OCC,Tetraethoxysilane,323.15,chen14,1
C(C)[Si](CC)(CC)CC,Tetraethylsilane,305.15,chen14,1
NCCNCCC[Si](OC)(OC)OC,Aminoethylaminopropyltrimethoxysilane,269.15,chen14,1
CC(C(O[Si]([O])OCC)(C)C)C,Tetramethyldiethoxysiloxane,311.15,chen14,1
C[Si](O[Si](O[Si](C)(C)C)(C)C)(C)C,Octamethyltrisiloxane,303.15,chen14,1
C[Si]1(O[Si](O[Si](O[Si](O1)(C)C)(C)C)(C)C)C,Octamethylcyclotetrasiloxane,330.15,chen14,1
C[Si]1(N[Si](N[Si](N[Si](N1)(C)C)(C)C)(C)C)C,Octamethylcyclotetrasilazane,339.15,chen14,1
C[SiH](O[Si](O[SiH](C)C)(O[SiH](C)C)O[SiH](C)C)C,Tetrakisdimethylsiloxysilane,340.15,chen14,1
ClC1=CC=C(C=C1)[Si](C)(C)C,p-Chlorophenyltrimethylsilane,322.15,chen14,1
C1(=CC=CC=C1)[Si](OC)(OC)OC,Phenyltrimethoxysilane,358.15,chen14,1
C[Si](C1=CC=CC=C1)(C)C,Trimethylphenylsilane,313.15,chen14,1
C1(CCCCC1)C[SiH](OC)OC,Cyclohexylmethyldimethoxysilane,343.15,chen14,1
C(CCCCC)[Si](OC)(OC)OC,Hexyltrimethoxysilane,335.15,chen14,1
C(C)(C)[SiH](C(C)C)C(C)C,Triisopropylsilane,310.15,chen14,1
C(CC)[SiH](CCC)CCC,Tri-n-propylsilane,316.15,chen14,1
C(CC)[Si](O[SiH](C)C)(O[SiH](C)C)O[SiH](C)C,Propyltris(dimethylsiloxy)silane,323.15,chen14,1
C(C1=CC=CC=C1)[Si](C)(C)C,Benzyltrimethylsilane,335.15,chen14,1
C(C(=C)C)(=O)OCCC[Si](OC)(OC)OC,3-Methacryloxypropyltrimethoxysilane,365.15,chen14,1
C(#CCCCCC)[Si](C)(C)C,1-Heptynyltrimethylsilane,315.15,chen14,1
C(CCCCCCC)[Si](Cl)(C)C,n-Octyldimethylchlorosilane,370.15,chen14,1
C(C)N(CC)[Si](C)(C)N(CC)CC,Bis(diethylamino)dimethylsilane,308.15,chen14,1
C[Si](O[Si](O[Si](O[Si](C)(C)C)(C)C)(C)C)(C)C,Decamethyltetrasiloxane,335.15,chen14,1
C[Si]1(O[Si](O[Si](O[Si](O[Si](O1)(C)C)(C)C)(C)C)(C)C)C,Decamethylcyclopentasiloxane,350.15,chen14,1
C1(CC2C(CC1)O2)CC[Si](OC)(OC)OC,"2-(3,4-epoxycyclohexyl)ethyltrimethoxysilane",419.15,chen14,1
C(CCCCCCCCC)[Si](Cl)(Cl)C,n-Decylmethyldichlorosilane,393.15,chen14,1
C(=C)[Si](CC)(CC)CC,Vinyltriethylsilane,318.15,chen14,1
C1(=CC=CC=C1)[Si](Cl)(Cl)C1=CC=CC=C1,Diphenyldichlorosilane,415.15,chen14,1
C1(=CC=CC=C1)[Si](OCC)(OCC)OCC,Phenyltriethoxysilane,393.15,chen14,1
C1(=CC=CC=C1)[SiH2]C1=CC=CC=C1,Diphenylsilane,371.15,chen14,1