,compound,flashpoint,pure substance,smiles,source
14279,3methyl1hexene-,267.15,1,C=CC(C)CCC,le15
14280,4methyl1hexene-,258.15,1,C=CCC(C)CC,le15
14281,methylcyclohexane,269.15,1,CC1CCCCC1,le15
14282,"1,1dichloroethane",267.0,1,CC(Cl)Cl,le15
14283,"1,2dichloroethane",286.0,1,ClCCCl,le15
14284,ButylIsocyanate,299.85,1,CCCCN=C=O,le15
14285,AllylIsothiocyanate,319.25,1,C=CCN=C=S,le15
14286,Hexamethyleneimine,291.0,1,C1CCCNCC1,le15
14287,"2,4pentanedione",307.15,1,CC(=O)CC(C)=O,le15
14288,2propenylAcetate,295.15,1,CC=CCC(=O)[O-],le15
14289,Ethylacrylate,288.75,1,C=CC(=O)OCC,le15
14290,IsopropenylAcetate,288.75,1,C=C(C)CC(=O)[O-],le15
14291,2hexanone,308.15,1,CCCCC(C)=O,le15
14292,"3,3dimethyl2butanone",285.15,1,CC(=O)C(C)(C)C,le15
14293,4methyl2pentanone,291.15,1,CC(=O)CC(C)C,le15
14294,Cyclohexanol,341.15,1,OC1CCCCC1,le15
14295,Isobutylvinylether,264.15,1,C=COCC(C)C,le15
14296,"2,3dimethylpentane",267.0,1,CCC(C)C(C)C,le15
14297,"2,4dimethylpentane",260.95,1,CC(C)CC(C)C,le15
14298,Heptane,272.15,1,CCCCCCC,le15
14299,AllylDimethylSilane-,253.15,1,C=CC[SiH](C)C,le15
14300,TrimethylVinylSilane-,239.15,1,CC(C)=C(C)[SiH3],le15
14301,VinylTrimethylSilane-,253.15,1,C=C[Si](C)(C)C,le15
14302,DichloroSilane-,236.15,1,Cl[SiH2]Cl,le15
14303,4methylmorpholine,297.05,1,CN1CCOCC1,le15
14304,"1,3dimethylbutylamine",285.95,1,CC(C)CC(C)N,le15
14305,1heptanamine,308.15,1,CCCCCCCN,le15
14306,ButylDimethylAmine-,270.15,1,CCCCN(C)C,le15
14307,Diisopropylamine,272.15,1,CC(C)NC(C)C,le15
14308,Dipropylamine,290.15,1,CCCNCCC,le15
14309,Hexylamine,282.05,1,CCCCCCN,le15
14310,Ethynylbenzene,304.15,1,C#Cc1ccccc1,le15
14311,3ethoxypropionaldehyde,311.15,1,CCOCCC=O,le15
14312,Butylformate,291.15,1,CCCCOC=O,le15
14313,Ethylpropionate,285.15,1,CCOC(=O)CC,le15
14314,Isobutylformate,283.0,1,CC(C)COC=O,le15
14315,Isopropylacetate,275.15,1,CC(=O)OC(C)C,le15
14316,IsovalericAcid,343.0,1,CC(C)CC(=O)O,le15
14317,Methylbutyrate,287.15,1,CCCC(=O)OC,le15
14318,PentanoicAcid,361.15,1,CCCCC(=O)O,le15
14319,Propylacetate,285.15,1,CCCOC(C)=O,le15
14320,Tetrahydro2furanmethanol,343.15,1,OCC1CCCO1,le15
14321,1hexanol,333.15,1,CCCCCCO,le15
14322,2ethyl1butanol,330.15,1,CCC(CC)CO,le15
14323,2hexanol,330.95,1,CCCCC(C)O,le15
14324,3methyl3pentanol,297.15,1,CCC(C)(O)CC,le15
14325,Butylethylether,277.55,1,CCCCOCC,le15
14326,Dipropylether,294.25,1,CCCOCCC,le15
14327,Isopropylether,244.0,1,CC(C)OC(C)C,le15
14328,"1,5pentanediamine",335.15,1,NCCCCCN,le15
14329,EthylTrimethylSilane,300.15,1,CC[Si](C)(C)C,le15
14330,Benzonitrile,344.85,1,N#Cc1ccccc1,le15
14331,Diethylenetriamine,371.15,1,NCCNCCN,le15
14332,3pyridinecarbonitrile,357.15,1,N#Cc1cccnc1,le15
14333,EthenylBenzene,305.15,1,C=Cc1ccccc1,le15
14334,Styrene,305.15,1,C=Cc1ccccc1,le15
14335,"1,5pentanediol",402.0,1,OCCCCCO,le15
14336,1ethoxy2propanol,315.15,1,CCOCC(C)O,le15
14337,"1,4thioxane",315.35,1,C1CSCCO1,le15
14338,3methylthioPropionaldehyde,334.25,1,CCCC=S,le15
14339,1pentanethiol,291.45,1,CCCCCS,le15
14340,MethoxyTrimethylSilane-,243.15,1,CO[Si](C)(C)C,le15
14341,Propylnitrate,293.15,1,CCCO[N+](=O)[O-],le15
14342,Benzaldehyde,336.15,1,O=Cc1ccccc1,le15
14343,DiethyleneGlycol,397.15,1,OCCOCCO,le15
14344,"1,2dimethylbenzene",305.0,1,Cc1ccccc1C,le15
14345,"1,3dimethylBenzene",298.15,1,Cc1cccc(C)c1,le15
14346,"1,4dimethylbenzene",298.0,1,Cc1ccc(C)cc1,le15
14347,"1,7octadiyne",296.0,1,C#CCCCCC#C,le15
14348,Ethylbenzene,288.15,1,CCc1ccccc1,le15
14349,"2,4dimethylpyridine",310.35,1,Cc1ccnc(C)c1,le15
14350,2methylbenzenamine,358.15,1,Cc1ccccc1N,le15
14351,3methylbenzenamine,359.15,1,Cc1cccc(N)c1,le15
14352,4methylbenzenamine,360.15,1,Cc1ccc(N)cc1,le15
14353,Methoxybenzene,324.15,1,COc1ccccc1,le15
14354,"1,4dicyanobutane",432.0,1,N#CCCCCC#N,le15
14355,"1,5cyclooctadiene",305.0,1,C1=CCCC=CCC1,le15
14356,4vinyl1cyclohexene,289.25,1,C=CC1CC=CCC1,le15
14357,PhenylSilane,281.15,1,[SiH3]c1ccccc1,le15
14358,2chloropropionicAcid,380.35,1,CC(Cl)C(=O)O,le15
14359,EthylChloroformate,289.15,1,CCOC(=O)Cl,le15
14360,Trimethylchlorosilane-,246.15,1,C[Si](C)(C)Cl,le15
14361,Thiophenol,323.75,1,Sc1ccccc1,le15
14362,"1,7octadiene",282.0,1,C=CCCCCC=C,le15
14363,1octyne-,259.15,1,C#CCCCCCC,le15
14364,"1,2cyclohexanedione",357.0,1,O=C1CCCCC1=O,le15
14365,"1,2dimethylcyclohexane",288.0,1,CC1CCCCC1C,le15
14366,"1,3dimethylcyclohexane",278.0,1,CC1CCCC(C)C1,le15
14367,"1,4dimethylcyclohexane",283.0,1,CC1CCC(C)CC1,le15
14368,3ethyl1hexene,274.15,1,C=CC(CC)CCC,le15
14369,4methyl1heptene,275.15,1,C=CCC(C)CCC,le15
14370,ethylcyclohexane,308.15,1,CCC1CCCCC1,le15
14371,1trimethylsilylpropyne-,270.15,1,CC#C[Si](C)(C)C,le15
14372,DivinylDimethylSilane,281.15,1,C=C[Si](C)(C)C=C,le15
14373,Chlorobenzene,302.15,1,Clc1ccccc1,le15
14374,DichloroAcetaldehyde,333.15,1,O=CC(Cl)Cl,le15
14375,"1,1dichloropropane",280.0,1,CCC(Cl)Cl,le15
14376,"1,2dichloropropane",289.0,1,CC(Cl)CCl,le15
14377,"1,3dichloropropane",293.0,1,ClCCCCl,le15
14378,"2,2dichloropropane",268.0,1,CC(C)(Cl)Cl,le15
14379,Ethylcyanoacetate,383.15,1,CCOC(=O)CC#N,le15
14380,3isopropoxypropionitrile,341.45,1,CC(C)OCCC#N,le15
14381,TrifluoroAceticAcid,344.15,1,O=C(O)C(F)(F)F,le15
14382,"2,5hexanedione",352.15,1,CC(=O)CCC(C)=O,le15
14383,ethylcrotonate,275.35,1,C/C=C/C(=O)OCC,le15
14384,Propyl2propenoat,293.15,1,C=CC(=O)OCCC,le15
14385,"2,4dimethyl3pentanone",288.15,1,CC(C)C(=O)C(C)C,le15
14386,2heptanone,320.15,1,CCCCCC(C)=O,le15
14387,3heptanone,310.15,1,CCCCC(=O)CC,le15
14388,4heptanone,322.15,1,CCCC(=O)CCC,le15
14389,4methylcyclohexanol,343.15,1,CC1CCC(O)CC1,le15
14390,5methyl2hexanone,309.15,1,CC(=O)CCC(C)C,le15
14391,DiallylSulfide,319.25,1,C=CCSCC=C,le15
14392,"2,3dimethylhexane",270.0,1,CCCC(C)C(C)C,le15
14393,Octane,288.15,1,CCCCCCCC,le15
14394,AllylTrimethylSilane,280.15,1,C=CC[Si](C)(C)C,le15
14395,MethyldichloroSilane-,241.15,1,C[SiH](Cl)Cl,le15
14396,ButylIsothiocyanate,338.75,1,CCCCN=C=S,le15
14397,1Hindene,328.15,1,C1=Cc2ccccc2C1,le15
14398,2methylvalericacid,364.25,1,CCCC(C)C(=O)O,le15
14399,"3,3dimethylbutanoicacid",361.0,1,CC(C)(C)CC(=O)O,le15
14400,4hydroxy4methyl2pentanone,331.15,1,CC(=O)CC(C)(C)O,le15
14401,Butylacetate,297.15,1,CCCCOC(C)=O,le15
14402,Ethylbutyrate,297.15,1,CCCC(=O)OCC,le15
14403,EthylIsobutyrate,286.0,1,CCOC(=O)C(C)C,le15
14404,Hexanoicacid,377.15,1,CCCCCC(=O)O,le15
14405,Isobutylacetate,291.15,1,CC(=O)OCC(C)C,le15
14406,Pentylformate,299.85,1,CCCCCOC=O,le15
14407,1heptanol,346.15,1,CCCCCCCO,le15
14408,2methyl1hexanol,333.15,1,CCCCC(C)CO,le15
14409,"1,6hexanediamine",366.15,1,NCCCCCCN,le15
14410,HexylSilane,285.15,1,CCCCCC[SiH3],le15
14411,TriethylSilane-,271.15,1,CC[SiH](CC)CC,le15
14412,2methoxyethylacetate,322.15,1,COCCOC(C)=O,le15
14413,3ethoxypropionicacid,380.35,1,CCOCCC(=O)O,le15
14414,Ethyllactate,319.15,1,CCOC(=O)C(C)O,le15
14415,1ethenyl3methylBenzene,324.15,1,C=Cc1cccc(C)c1,le15
14416,1ethenyl4methylBenzene,319.15,1,C=Cc1ccc(C)cc1,le15
14417,"2,3dihydro1Hindene",321.15,1,c1ccc2c(c1)CCC2,le15
14418,alphaMethylstyrene,327.05,1,C=C(C)c1ccccc1,le15
14419,"1,1diethoxyethane",252.0,1,CCOC(C)OCC,le15
14420,"1,2diethoxyethane",308.15,1,CCOCCOCC,le15
14421,"1,6hexanediol",420.0,1,OCCCCCCO,le15
14422,1isopropoxy2propanol,309.15,1,CC(O)COC(C)C,le15
14423,1propoxy2propanol,321.15,1,CCCOCC(C)O,le15
14424,"2,5hexanediol",383.15,1,CC(O)CCC(C)O,le15
14425,1hexanethiol,293.75,1,CCCCCCS,le15
14426,EthoxyTrimethylSilane-,246.15,1,CCO[Si](C)(C)C,le15
14427,Chlorocyclohexane,305.15,1,ClC1CCCCC1,le15
14428,Isocyanatobenzene,324.15,1,O=C=Nc1ccccc1,le15
14429,butylnitrate,309.25,1,CCCCO[N+](=O)[O-],le15
14430,DimethylolUrea,505.15,1,O=C(NCO)NCO,le15
14431,2methylbenzaldehyde,340.15,1,Cc1ccccc1C=O,le15
14432,3methylbenzaldehyde,351.15,1,Cc1cccc(C=O)c1,le15
14433,4methylbenzaldehyde,353.15,1,Cc1ccc(C=O)cc1,le15
14434,Acetophenone,350.15,1,CC(=O)c1ccccc1,le15
14435,"1,8nonadiyne",314.0,1,C#CCCCCCC#C,le15
14436,1ethyl2methylBenzene,312.15,1,CCc1ccccc1C,le15
14437,1ethyl3methylBenzene,311.15,1,CCc1cccc(C)c1,le15
14438,1ethyl4methylBenzene,309.15,1,CCc1ccc(C)cc1,le15
14439,1methylethylBenzene,304.15,1,CC(C)c1ccccc1,le15
14440,Cumene,309.15,1,CC(C)c1ccccc1,le15
14441,Mesitylene,317.0,1,Cc1cc(C)cc(C)c1,le15
14442,Propylbenzene,320.15,1,CCCc1ccccc1,le15
14443,DimethylDimethoxySilane-,265.15,1,CO[Si](C)(C)OC,le15
14444,1chlorohexane,308.15,1,CCCCCCCl,le15
14445,DimethylVinylChloroSilane-,268.15,1,CC(C)=C[SiH2]Cl,le15
14446,"2,3dimethylaniline",370.15,1,Cc1cccc(N)c1C,le15
14447,2ethylbenzenamine,364.15,1,CCc1ccccc1N,le15
14448,BenzoicAcid,394.15,1,O=C(O)c1ccccc1,le15
14449,Salicylaldehyde,350.95,1,O=Cc1ccccc1O,le15
14450,"2,3dimethylphenol",368.0,1,Cc1cccc(O)c1C,le15
14451,"2,4dimethylphenol",367.0,1,Cc1ccc(O)c(C)c1,le15
14452,"2,5dimethylphenol",368.0,1,Cc1ccc(C)c(O)c1,le15
14453,"2,6dimethylphenol",346.0,1,Cc1cccc(C)c1O,le15
14454,2phenylethanol,375.15,1,OCCc1ccccc1,le15
14455,4ethylphenol,377.05,1,CCc1ccc(O)cc1,le15
14456,EthoxyBenzene,325.15,1,CCOc1ccccc1,le15
14457,Phenetole,335.95,1,CCOc1ccccc1,le15
14458,PhenylMethylSilane,298.15,1,[SiH3]Cc1ccccc1,le15
14459,2chloroethylacetate,339.25,1,CC(=O)OCCCl,le15
14460,ChloromethylTrimethylSilane-,271.15,1,C[Si](C)(C)CCl,le15
14461,EthylDimethylChloroSilane-,269.15,1,CC[Si](C)(C)Cl,le15
14462,1bromopropane,298.15,1,CCCBr,le15
14463,Nitrobenzene,360.95,1,O=[N+]([O-])c1ccccc1,le15
14464,MethylthioBenzene,342.15,1,CSc1ccccc1,le15
14465,Phenylmethanethiol,343.15,1,SCc1ccccc1,le15
14466,"1,8nonadiene",299.0,1,C=CCCCCCC=C,le15
14467,1nonyne,306.15,1,C#CCCCCCCC,le15
14468,TrivinylMethylSilane,288.15,1,C=CC([SiH3])(C=C)C=C,le15
14469,"1,3dichloro2butene",300.15,1,CC(Cl)=CCCl,le15
14470,"1,4dichloro2butene",326.15,1,ClCC=CCCl,le15
14471,"3,4dichloro1butene",301.15,1,C=CC(Cl)CCl,le15
14472,CyclohexylIsocyanate,322.05,1,O=C=NC1CCCCC1,le15
14473,2ethyl2hexenal,341.15,1,CCCC=C(C=O)CC,le15
14474,7methyl1octene,291.15,1,C=CCCCCC(C)C,le15
14475,1chloro2methylBenzene,324.15,1,Cc1ccccc1Cl,le15
14476,1chloro4methylBenzene,325.15,1,Cc1ccc(Cl)cc1,le15
14477,2chlorotoluene,316.0,1,Cc1ccccc1Cl,le15
14478,Benzylchloride,340.15,1,ClCc1ccccc1,le15
14479,ChloromethylBenzene,333.15,1,ClCc1ccccc1,le15
14480,"1,2dichlorobutane",299.0,1,CCC(Cl)CCl,le15
14481,"1,4dichlorobutane",313.0,1,ClCCCCCl,le15
14482,2chlorobenzenamine,364.15,1,Nc1ccccc1Cl,le15
14483,Butylacrylate,312.0,1,C=CC(=O)OCCCC,le15
14484,1octanal,325.15,1,CCCCCCCC=O,le15
14485,2ethylhexanal,317.15,1,CCCCC(C=O)CC,le15
14486,2octanone,335.15,1,CCCCCCC(C)=O,le15
14487,4octanone,318.15,1,CCCCC(=O)CCC,le15
14488,6methyl3heptanone,318.15,1,CCC(=O)CCC(C)C,le15
14489,PropargyloxytrimethylSilane,300.15,1,C#CCO[Si](C)(C)C,le15
14490,"2,2dimethyl3ethylpentane",286.15,1,CCC(CC)C(C)(C)C,le15
14491,"2,3dimethylheptane",363.0,1,CCCCC(C)C(C)C,le15
14492,"2,4dimethyl3ethylpentane",288.15,1,CCC(C(C)C)C(C)C,le15
14493,3ethyl4methylhexane,297.15,1,CCC(C)C(CC)CC,le15
14494,3ethylheptane,295.15,1,CCCCC(CC)CC,le15
14495,Nonane,304.15,1,CCCCCCCCC,le15
14496,VinylDiethylMethylSilane,288.15,1,C=C[Si](C)(CC)CC,le15
14497,"1,3dichloro2propanol",358.15,1,OC(CCl)CCl,le15
14498,"2,3dichloro1propanol",366.45,1,OCC(Cl)CCl,le15
14499,Dimethyldichlorosilane-,263.15,1,C[Si](C)(Cl)Cl,le15
14500,Ethyldichlorosilane-,264.15,1,CC[SiH](Cl)Cl,le15
14501,Quinoline,365.15,1,c1ccc2ncccc2c1,le15
14502,1piperazineEthanamine,366.15,1,NCCN1CCNCC1,le15
14503,Dibutylamine,313.15,1,CCCCNCCCC,le15
14504,Diisobutylamine,302.15,1,CC(C)CNCC(C)C,le15
14505,Ethylacetoacetate,330.35,1,CCOC(=O)CC(C)=O,le15
14506,"1,3diethenylBenzene",338.15,1,C=Cc1cccc(C=C)c1,le15
14507,1methyl1Hindene,338.15,1,CC1C=Cc2ccccc21,le15
14508,2methyl1Hindene,344.15,1,CC1=Cc2ccccc2C1,le15
14509,3methylbutylAcetate,298.15,1,CC(=O)OCCC(C)C,le15
14510,Butylpropionate,305.15,1,CCCCOC(=O)CC,le15
14511,Heptanoicacid,385.15,1,CCCCCCC(=O)O,le15
14512,Isopentylacetate,298.15,1,CC(=O)OCCC(C)C,le15
14513,PentylAcetate,297.05,1,CCCCCOC(C)=O,le15
14514,Propylbutyrate,310.15,1,CCCOC(=O)CCC,le15
14515,1octanol,354.15,1,CCCCCCCCO,le15
14516,2ethyl1hexanol,346.15,1,CCCCC(CC)CO,le15
14517,2octanol,360.95,1,CCCCCCC(C)O,le15
14518,Dibutylether,298.15,1,CCCCOCCCC,le15
14519,"1,1dimethyl1sila2oxacyclohexane",287.15,1,C[Si]1(C)CCCCO1,le15
14520,AllyloxytrimethylSilane,273.15,1,C=CCO[Si](C)(C)C,le15
14521,VinylDimethylEthoxySilane,277.15,1,C=C[Si](C)(C)OCC,le15
14522,TrimethylSilylIsothiocyanate,308.15,1,C[Si](C)(C)N=C=S,le15
14523,2methylbenzofuran,340.15,1,Cc1cc2ccccc2o1,le15
14524,2ethoxyethylacetate,320.35,1,CCOCCOC(C)=O,le15
14525,1ethenyl2ethylBenzene,331.15,1,C=Cc1ccccc1CC,le15
14526,1ethenyl3ethylBenzene,333.15,1,C=Cc1cccc(CC)c1,le15
14527,1ethenyl4ethylBenzene,334.15,1,C=Cc1ccc(CC)cc1,le15
14528,Tetralin,344.15,1,c1ccc2c(c1)CCCC2,le15
14529,AcetoxyTrimethylSilane,277.15,1,CC(=O)O[Si](C)(C)C,le15
14530,MethylVinylDimethoxySilane,277.15,1,CC=C[SiH](OC)OC,le15
14531,1heptanethiol,314.15,1,CCCCCCCS,le15
14532,BisDimethylaminoMethylSilane-,270.15,1,CN(C)C([SiH3])N(C)C,le15
14533,"1,2diethylBenzene",330.15,1,CCc1ccccc1CC,le15
14534,"1,3diethylBenzene",329.15,1,CCc1cccc(CC)c1,le15
14535,"1,4diethylbenzene",329.0,1,CCc1ccc(CC)cc1,le15
14536,1methyl2propylBenzene,326.15,1,CCCc1ccccc1C,le15
14537,1methyl3propylBenzene,325.15,1,CCCc1cccc(C)c1,le15
14538,1methylpropylBenzene,325.15,1,CCC(C)c1ccccc1,le15
14539,2methylpropylBenzene,325.15,1,CC(C)Cc1ccccc1,le15
14540,Isobutylbenzene,328.15,1,CC(C)Cc1ccccc1,le15
14541,secButylbenzene,325.15,1,CCC(C)c1ccccc1,le15
14542,tertbutylbenzene,317.0,1,CC(C)(C)c1ccccc1,le15
14543,AllylDimethylChloroSilane,278.15,1,C=CC[Si](C)(C)Cl,le15
14544,Acetanilide,446.15,1,CC(=O)Nc1ccccc1,le15
14545,PhenylIsothiocyanate,360.95,1,S=C=Nc1ccccc1,le15
14546,TrichloroSilane-,245.15,1,Cl[SiH](Cl)Cl,le15
14547,Methylbenzoate,356.15,1,COC(=O)c1ccccc1,le15
14548,PhenylAcetate,353.15,1,O=C([O-])Cc1ccccc1,le15
14549,EthoxymethylBenzene,332.15,1,CCOCc1ccccc1,le15
14550,PhenylDimethylSilane,311.15,1,C[SiH](C)c1ccccc1,le15
14551,TetravinylSilane,291.15,1,C=C[Si](C=C)(C=C)C=C,le15
14552,"1,5pentanedithiol",368.0,1,SCCCCCS,le15
14553,DiethylMethylChloroSilane,288.15,1,CC[Si](C)(Cl)CC,le15
14554,1bromobutane,297.05,1,CCCCBr,le15
14555,2phenoxyethanol,394.25,1,OCCOc1ccccc1,le15
14556,"1,9decadiene",316.15,1,C=CCCCCCCC=C,le15
14557,cisDecalin,331.15,1,C1CC[C@H]2CCCC[C@H]2C1,le15
14558,CyclopentadienylTrimethylSilane,302.15,1,C[Si](C)(C)C1C=CC=C1,le15
14559,Furfurylacetate,358.15,1,O=C([O-])CCc1ccco1,le15
14560,2decene,320.15,1,CC=CCCCCCCC,le15
14561,8methyl1nonene,316.15,1,C=CCCCCCC(C)C,le15
14562,"2,4pentadienylTrimethylSilane",291.15,1,C=CC=CC[Si](C)(C)C,le15
14563,3trimethylsilylCyclopentene,299.15,1,C[Si](C)(C)C1C=CCC1,le15
14564,Benzoylchloride,345.15,1,O=C(Cl)c1ccccc1,le15
14565,1chloro4ethylbenzene,337.15,1,CCc1ccc(Cl)cc1,le15
14566,"1,5dichloropentane",299.0,1,ClCCCCCCl,le15
14567,Vinylmethyldichlorosilane,277.15,1,C=CC[SiH](Cl)Cl,le15
14568,2oxolan2yloxolane,362.15,1,C1COC(C2CCCO2)C1,le15
14569,CyclohexylAcetate,331.15,1,O=C([O-])CC1CCCCC1,le15
14570,"2,6dimethyl4heptanone",322.15,1,CC(C)CC(=O)CC(C)C,le15
14571,2nonanone,333.15,1,CCCCCCCC(C)=O,le15
14572,3ethylheptanal,328.15,1,CCCCC(CC)CC=O,le15
14573,3nonanone,339.15,1,CCCCCCC(=O)CC,le15
14574,4nonanone,335.15,1,CCCCCC(=O)CCC,le15
14575,Decane,321.15,1,CCCCCCCCCC,le15
14576,CyclohexylDimethylSilane,336.15,1,C[SiH](C)C1CCCCC1,le15
14577,VinylTriethylSilane,302.15,1,C=C[Si](CC)(CC)CC,le15
14578,1propanesulfonylchloride,353.15,1,CCCS(=O)(=O)Cl,le15
14579,Ethylmethyldichlorosilane,275.15,1,CC[Si](C)(Cl)Cl,le15
14580,1nonanamine,335.15,1,CCCCCCCCCN,le15
14581,TripropylAmine,302.15,1,CCCN(CCC)CCC,le15
14582,2naphthol,426.15,1,Oc1ccc2ccccc2c1,le15
14583,Hexylacetate,318.15,1,CCCCCCOC(C)=O,le15
14584,IsobutylButyrate,323.15,1,CCCC(=O)OCC(C)C,le15
14585,Isobutylisobutyrate,313.0,1,CC(C)COC(=O)C(C)C,le15
14586,OctanoicAcid,254.15,1,CCCCCCCC(=O)O,le15
14587,1nonanol,348.15,1,CCCCCCCCCO,le15
14588,"2,6dimethyl4heptanol",339.15,1,CC(C)CC(O)CC(C)C,le15
14589,2nonanol,355.15,1,CCCCCCCC(C)O,le15
14590,3ethyl1heptanol,363.15,1,CCCCC(CC)CCO,le15
14591,4methyl1octanol,358.15,1,CCCCC(C)CCCO,le15
14592,6methyl1octanol,360.15,1,CCC(C)CCCCCO,le15
14593,Carbostyril ,473.75,1,O=c1ccc2ccccc2[nH]1,le15
14594,DiethylaminoTrimethylSilane,283.15,1,CCN(CC)[Si](C)(C)C,le15
14595,TrifluoromethylBenzene,285.15,1,FC(F)(F)c1ccccc1,le15
14596,AdipicAcid,469.15,1,O=C(O)CCCCC(=O)O,le15
14597,Ethylacetylglycolate,355.15,1,CCCC(=O)C(O)C(=O)[O-],le15
14598,Triethylenetetramine,408.15,1,NCCNCCNCCN,le15
14599,AcetoxymethylTrimethylSilane,293.15,1,CC(=O)OC[Si](C)(C)C,le15
14600,1octanethiol,341.15,1,CCCCCCCCS,le15
14601,Dibutylsulfide,349.85,1,CCCCSCCCC,le15
14602,Ditertbutylsulfide,321.15,1,CC(C)(C)SC(C)(C)C,le15
14603,BisDiethylaminoDimethylSilane,308.15,1,CCN(CC)[Si](C)(C)N(CC)CC,le15
14604,BisDimethylaminoDimethylSilane-,266.15,1,CN(C)[Si](C)(C)N(C)C,le15
14605,HexamethylDisilane-,272.15,1,C[Si](C)(C)[Si](C)(C)C,le15
14606,"1,2dichlorobenzene",340.0,1,Clc1ccccc1Cl,le15
14607,"1,3dichloroBenzene",345.15,1,Clc1cccc(Cl)c1,le15
14608,"1,4dichlorobenzene",339.15,1,Clc1ccc(Cl)cc1,le15
14609,Dichloroacetylchloride,339.25,1,O=C(Cl)C(Cl)Cl,le15
14610,TrichloroAcetaldehyde,323.15,1,O=CC(Cl)(Cl)Cl,le15
14611,Triethylorthoformate,303.15,1,CCOC(OCC)OCC,le15
14612,VinylTrimethoxySilane,296.15,1,C=C[Si](OC)(OC)OC,le15
14613,"1,2dimethyl3propylBenzene",345.15,1,CCCc1cccc(C)c1C,le15
14614,Pentylbenzene,338.15,1,CCCCCc1ccccc1,le15
14615,DimethylDiethoxySilane,284.15,1,CCO[Si](C)(C)OCC,le15
14616,1chlorooctane,343.15,1,CCCCCCCCCl,le15
14617,AllylChloromethylDimethylSilane,300.15,1,C=CC[Si](C)(C)CCl,le15
14618,Methyltrichlorosilane,276.15,1,C[Si](Cl)(Cl)Cl,le15
14619,Benzylacetate,363.75,1,O=C([O-])CCc1ccccc1,le15
14620,Ethylbenzoate,361.15,1,CCOC(=O)c1ccccc1,le15
14621,PhenylmethylAcetate,363.15,1,CC(=O)OCc1ccccc1,le15
14622,DipropylSulfone,399.15,1,CCCS(=O)(=O)CCC,le15
14623,EthylTrimethoxySilane,300.15,1,CC[Si](OC)(OC)OC,le15
14624,BenzylDimethylSilane,338.15,1,C[SiH](C)Cc1ccccc1,le15
14625,TrimethylPhenylSilane,313.15,1,C[Si](C)(C)c1ccccc1,le15
14626,TriethylChloroSilane,303.15,1,CC[Si](Cl)(CC)CC,le15
14627,1bromopentane,304.15,1,CCCCCBr,le15
14628,Methylsalicylate,369.15,1,COc1ccccc1C(=O)[O-],le15
14629,TetramethoxySilane,294.15,1,CO[Si](OC)(OC)OC,le15
14630,ChloromethylDimethylEthoxySilane,299.15,1,CCO[Si](C)(C)CCl,le15
14631,TrimethylBromoSilane-,270.15,1,C[Si](C)(C)Br,le15
14632,4chlorophenylisocyanate,383.15,1,O=C=Nc1ccc(Cl)cc1,le15
14633,DiethylPhosphate,364.15,1,CCOP(=O)([O-])OCC,le15
14634,1undecene,327.15,1,C=CCCCCCCCCC,le15
14635,PhenacylChloride,391.15,1,O=C(CCl)c1ccccc1,le15
14636,AllylMethylDichloroSilane,300.15,1,C=CCC[SiH](Cl)Cl,le15
14637,CyclopentenyloxyTrimethylSilane,311.15,1,C[Si](C)(C)OC1=CCCC1,le15
14638,Undecane,333.15,1,CCCCCCCCCCC,le15
14639,Trimethoxychlorosilane,295.15,1,CO[Si](Cl)(OC)OC,le15
14640,PhenylMethylChloroSilane,335.15,1,Cl[SiH2]Cc1ccccc1,le15
14641,Bromobenzene,324.15,1,Brc1ccccc1,le15
14642,BischloromethylDimethylSilane,319.15,1,C[Si](C)(CCl)CCl,le15
14643,DiethylDichloroSilane,300.15,1,CC[Si](Cl)(Cl)CC,le15
14644,Decylamine,372.15,1,CCCCCCCCCCN,le15
14645,Dipentylamine,324.15,1,CCCCCNCCCCC,le15
14646,ButylIsovalerate,326.15,1,CCCCOC(=O)CC(C)C,le15
14647,HeptylAcetate,340.15,1,CCCCCCCOC(C)=O,le15
14648,Isopentylbutyrate,332.15,1,CCCC(=O)OCCC(C)C,le15
14649,1decanol,355.15,1,CCCCCCCCCCO,le15
14650,TriisopropylSilane,310.15,1,CC(C)[SiH](C(C)C)C(C)C,le15
14651,ChloromethylDimethylchlorosilane,294.15,1,C[Si](C)(Cl)CCl,le15
14652,2butoxyethylacetate,344.15,1,CCCCOCCOC(C)=O,le15
14653,CyclohexylBenzene,372.15,1,c1ccc(C2CCCCC2)cc1,le15
14654,Dibutoxymethane,333.15,1,CCCCOCOCCCC,le15
14655,Ethyl2trimethylsilylAcetate,308.15,1,CCOC(=O)C[Si](C)(C)C,le15
14656,VinylMethylDiethoxySilane,289.15,1,C=CC[SiH](OCC)OCC,le15
14657,1nonanethiol,351.15,1,CCCCCCCCCS,le15
14658,BisTrimethylsilylMethane,285.15,1,C[Si](C)(C)C[Si](C)(C)C,le15
14659,DichloromethylBenzene,353.15,1,ClC(Cl)c1ccccc1,le15
14660,TrisdimethylaminoSilane,298.15,1,CN(C)[SiH](N(C)C)N(C)C,le15
14661,HexamethylDisilazane,281.15,1,C[Si](C)(C)N[Si](C)(C)C,le15
14662,Vinyltrichlorosilane,288.65,1,C=C[Si](Cl)(Cl)Cl,le15