,compound,flashpoint,pure substance,smiles,source
10335,"Hydrocinnamic acid, alpha-amino-3-carboxy-4-methoxy-, DL-",508.65,1,COc1ccc(CC(N)C(=O)O)cc1C(=O)O,le15
10336,"Acetamide, N-9H-fluoren-2-yl-N-hydroxy- (9CI)",502.15,1,CC(=O)N(O)c1ccc2c(c1)Cc1ccccc1-2,le15
10337,"Acetamide, N-(7-hydroxyfluoren-2-yl)- (8CI)",553.05,1,CC(=O)Nc1ccc2c(c1)Cc1cc(O)ccc1-2,le15
10338,"Acetamide, N-(5-hydroxy-9H-fluoren-2-yl)-",553.05,1,CC(=O)Nc1ccc2c(c1)Cc1cccc(O)c1-2,le15
10339,"Acetamide, N-(3-hydroxy-9H-fluoren-2-yl)- (9CI)",523.55,1,CC(=O)Nc1cc2c(cc1O)-c1ccccc1C2,le15
10340,"Acetamide, N-(1-hydroxy-9H-fluoren-2-yl)- (9CI)",513.45,1,CC(=O)Nc1ccc2c(c1O)Cc1ccccc1-2,le15
10341,"Carbamic acid, methyl-, o-(1,3-oxathiolan-2-yl)phenyl ester",449.25,1,CNC(=O)Oc1ccccc1C1OCCS1,le15
10342,"Benzeneacetamide, N,N-dimethyl-alpha-phenyl- (9CI)",446.45,1,CN(C)C(=O)C(c1ccccc1)c1ccccc1,le15
10343,"Benzenamine, N,N,3-trimethyl-4-(phenylazo)- (9CI)",463.35,1,Cc1cc(N(C)C)ccc1N=Nc1ccccc1,le15
10344,"Guanidine, N,N'-bis(2-methylphenyl)-",466.45,1,Cc1ccccc1NC(=N)Nc1ccccc1C,le15
10345,"Benzenamine, N,N-dimethyl-4-((2-methylphenyl)azo)- (9CI)",463.35,1,Cc1ccccc1N=Nc1ccc(N(C)C)cc1,le15
10346,"1,3,5-Triazine-2,4-diamine, N,N-diethyl-6-methoxy-N'-(1-methylethyl)-",449.25,1,CCN(CC)c1nc(NC(C)C)nc(OC)n1,le15
10347,"Acetic acid, (2,3,6-trichlorophenyl)-",440.75,1,O=C(O)Cc1c(Cl)ccc(Cl)c1Cl,le15
10348,"Silane, trichloro(2-phenylethyl)-",390.95,1,Cl[Si](Cl)(Cl)CCc1ccccc1,le15
10349,"Disulfide, isopropyl 1,2,2-trichloroethyl",368.15,1,CC(C)SSC(Cl)C(Cl)Cl,le15
10350,"3-Isoxazolidinone, 2-((2-chlorophenyl)methyl)-4,4-dimethyl-",419.05,1,CC1(C)CON(Cc2ccccc2Cl)C1=O,le15
10351,"Acetic acid, dichloro-, anhydride",363.75,1,O=C(OC(=O)C(Cl)Cl)C(Cl)Cl,le15
10352,"1,3-Dioxolane, 4-chloromethyl-2-(trichloromethyl)-",380.15,1,ClCC1COC(C(Cl)(Cl)Cl)O1,le15
10353,1-iodooctane,368.15,1,CCCCCCCCI,le15
10354,"Ethanol, 2,2'-(1,2-ethanediylbis(oxy))bis-, dinitrate",420.05,1,O=[N+]([O-])O.O=[N+]([O-])O.OCCOCCOCCO,le15
10355,"9,10-Anthracenedione, 1,2-dihydroxy-",501.15,1,O=C1c2ccccc2C(=O)c2c1ccc(O)c2O,le15
10356,"9,10-Anthracenedione, 1,4-dihydroxy-",495.15,1,O=C1c2ccccc2C(=O)c2c(O)ccc(O)c21,le15
10357,"9,10-Anthracenedione, 2,6-dihydroxy-",508.45,1,O=C1c2ccc(O)cc2C(=O)c2ccc(O)cc21,le15
10358,"9,10-Anthracenedione, 1,8-dihydroxy-",514.85,1,O=C1c2cccc(O)c2C(=O)c2c(O)cccc21,le15
10359,"9,10-Anthracenedione, 1,5-dihydroxy-",514.85,1,O=C1c2cccc(O)c2C(=O)c2cccc(O)c21,le15
10360,"9,10-Anthracenedione, 1,3-dihydroxy- (9CI)",552.15,1,O=C1c2ccccc2C(=O)c2c(O)cc(O)cc21,le15
10361,"Phenol, 2-(1,1-dimethylethyl)-4,6-dinitro- (9CI)",398.15,1,CC(C)(C)c1cc([N+](=O)[O-])cc([N+](=O)[O-])c1O,le15
10362,"Phenol, 4-(1,1-dimethylethyl)-2,6-dinitro-",382.45,1,CC(C)(C)c1cc([N+](=O)[O-])c(O)c([N+](=O)[O-])c1,le15
10363,"Benzoic acid, o-benzoyl-, methyl ester (8CI)",427.55,1,COC(=O)c1ccccc1C(=O)c1ccccc1,le15
10364,"Benzoic acid, 6-benzoyl-3-methyl- (9CI)",517.55,1,Cc1ccc(C(=O)c2ccccc2)c(C(=O)O)c1,le15
10365,"Anthraquinone, 1,4-diamino-2,3-dihydro- (8CI)",453.85,1,NC1=C2C(=O)c3ccccc3C(=O)C2=C(N)CC1,le15
10366,"Benzenamine, 4-(2-(4-nitrophenyl)ethenyl)-",477.85,1,Nc1ccc(C=Cc2ccc([N+](=O)[O-])cc2)cc1,le15
10367,"Phosphoric acid, diethyl 1-methyl-2-(methylthio)ethenyl ester (9CI)",389.55,1,CCOP(=O)(OCC)OC(C)=CSC,le15
10368,4H-Cyclopenta(def)chrysene,502.65,1,c1ccc2c(c1)cc1c3c2ccc2cccc(c23)C1,le15
10369,"Benzeneacetic acid, 2-phenylethyl ester",418.95,1,O=C(Cc1ccccc1)OCCc1ccccc1,le15
10370,"Propane, 1,2-epoxy-3-((alpha-phenyl-o-tolyl)oxy)- (7CI,8CI)",418.05,1,c1ccc(Cc2ccccc2OCC2CO2)cc1,le15
10371,"Propane, 1,2-epoxy-3-((alpha-phenyl-p-tolyl)oxy)- (7CI,8CI)",424.55,1,c1ccc(Cc2ccc(OCC3CO3)cc2)cc1,le15
10372,"1,3-dimethyl-1,3-diphenylurea",415.75,1,CN(C(=O)N(C)c1ccccc1)c1ccccc1,le15
10373,"Acetic acid, phenyl-, 2-benzylhydrazide",416.75,1,O=C(Cc1ccccc1)NNCc1ccccc1,le15
10374,"diethyl 2,2-bis(prop-2-enyl)propanedioate",379.87800000000004,1,C=CCC(CC=C)(C(=O)OCC)C(=O)OCC,le15
10375,"Toluene-2,4-diamine, 5-(o-tolylazo)- (8CI)",510.75,1,Cc1cc(N=Nc2ccccc2C)c(N)cc1N,le15
10376,"Benzenamine, 4-(6-methyl-2-benzothiazolyl)-",490.45,1,Cc1ccc2nc(-c3ccc(N)cc3)sc2c1,le15
10377,"2-Pyridinepropanamine, N,N-dimethyl-gamma-phenyl- (9CI)",437.65,1,CN(C)CCC(c1ccccc1)c1ccccn1,le15
10378,"(1,1'-Biphenyl)-4,4'-diamine, N4,N4,N4',N4'-tetramethyl-",446.55,1,CN(C)c1ccc(-c2ccc(N(C)C)cc2)cc1,le15
10379,"Ergoline, 6,8beta-dimethyl- (8CI)",473.35,1,C[C@@H]1C[C@@H]2c3cccc4[nH]cc(c34)C[C@H]2N(C)C1,le15
10380,"10-Undecenoic acid, butyl ester",401.15,1,C=CCCCCCCCCC(=O)OCCCC,le15
10381,"Urea, 1,3-dicyclohexyl-2-thio-",435.75,1,S=C(NC1CCCCC1)NC1CCCCC1,le15
10382,"4,5-Dichloro-2,3-dihydro-2-phenylpyridazin-3-one",441.45,1,O=c1c(Cl)c(Cl)cnn1-c1ccccc1,le15
10383,"Phenol, 2,4-dichloro-, methanesulfonate",441.95,1,CS(=O)(=O)Oc1ccc(Cl)cc1Cl,le15
10384,"Benzoic acid, 2-((phenylamino)carbonyl)-",443.85,1,O=C(O)c1ccccc1C(=O)Nc1ccccc1,le15
10385,"Benzoic acid, (4-(hydroxyimino)-2,5-cyclohexadien-1-ylidene)hydrazide",451.05,1,O=C(NN=C1C=CC(=NO)C=C1)c1ccccc1,le15
10386,"1,2-Propanediol, 3-(2-methoxyphenoxy)-, 1-carbamate",512.75,1,COc1ccccc1OCC(O)COC(N)=O,le15
10387,9-Benzyladenine 1-oxide,537.65,1,Nc1c2ncn(Cc3ccccc3)c2nc[n+]1[O-],le15
10388,"Benzoic acid, 2-((2,3-dimethylphenyl)amino)-",468.15,1,Cc1cccc(Nc2ccccc2C(=O)O)c1C,le15
10389,"Benzoic acid, 2-amino-, 2-phenylethyl ester",509.25,1,Nc1ccccc1C(=O)OCCc1ccccc1,le15
10390,"ethyl N,N-diphenylcarbamate",444.65,1,CCOC(=O)N(c1ccccc1)c1ccccc1,le15
10391,"Carbamic acid, methyl-, 4-(methylsulfinyl)-3,5-xylyl ester",468.25,1,CNC(=O)Oc1cc(C)c(S(C)=O)c(C)c1,le15
10392,"2-Pyridinecarboxylic acid, 4-amino-3,5,6-trichloro-",481.25,1,Nc1c(Cl)c(Cl)nc(C(=O)O)c1Cl,le15
10393,"2,4-Imidazolidinedione, 3-bromo-1-chloro-5,5-dimethyl-",367.65,1,CC1(C)C(=O)N(Br)C(=O)N1Cl,le15
10394,"Ethanol, 2-(2,4,5-trichlorophenoxy)-",434.65,1,OCCOc1cc(Cl)c(Cl)cc1Cl,le15
10395,"1-Hexanamine, 2-ethyl-N-(2-ethylhexyl)-",401.15,1,CCCCC(CC)CNCC(CC)CCCC,le15
10396,1-Hexadecanamine,413.15,1,CCCCCCCCCCCCCCCCN,le15
10397,"Phosphoramidic acid, diethyl-, 2-chloroethenyl ethyl ester",382.15,1,CCOP(=O)(OC=CCl)N(CC)CC,le15
10398,"1,2-dibromo-1,1,2-trifluoroethane",274.15,1,FC(Br)C(F)(F)Br,le15
10399,"Phenol, 4-bromo-2,5-dichloro-",391.35,1,Oc1cc(Cl)c(Br)cc1Cl,le15
10400,"Phenol, 4-bromo-2,6-dichloro- (8CI)(9CI)",376.05,1,Oc1c(Cl)cc(Br)cc1Cl,le15
10401,"2,3-dibromothiophene",324.85,1,Brc1ccsc1Br,le15
10402,"3,4-dibromothiophene",363.55,1,Brc1cscc1Br,le15
10403,"2,5-dibromothiophene",372.55,1,Brc1ccc(Br)s1,le15
10404,"2-Propenoic acid, 2-cyano-3-(2,4-dichlorophenyl)- (9CI)",474.15,1,N#CC(=Cc1ccc(Cl)cc1Cl)C(=O)O,le15
10405,"ethyl 2,2,3,3,4,4,4-heptafluorobutanoate",287.55,1,CCOC(=O)C(F)(F)C(F)(F)C(F)(F)F,le15
10406,2-Bromo-2-methyl-N-phenylpropanamide,442.45,1,CC(C)(Br)C(=O)Nc1ccccc1,le15
10407,"Maleic anhydride, dihydroxy-, dipropionate",424.65,1,CCC(=O)O.CCC(=O)O.O=C1OC(=O)C(O)=C1O,le15
10408,"1,4,9,10-Tetrahydroxyanthracene",595.85,1,Oc1ccc(O)c2c(O)c3ccccc3c(O)c12,le15
10409,"Peroxide, dibenzoyl",427.389,1,O=C(OOC(=O)c1ccccc1)c1ccccc1,le15
10410,"Benzimidazole, 5-tert-butyl-2-(trifluoromethyl)-",413.85,1,CC(C)(C)c1ccc2nc(C(F)(F)F)[nH]c2c1,le15
10411,"1,4-Naphthalenedione, 2-hydroxy-3-(3-methyl-2-butenyl)- (9CI)",482.15,1,CC(C)=CCC1=C(O)C(=O)c2ccccc2C1=O,le15
10412,"3-Pyridinecarboxylic acid, 2-((2,6-dimethylphenyl)amino)- (9CI)",465.25,1,Cc1cccc(C)c1Nc1ncccc1C(=O)O,le15
10413,"Benz(a)anthracene, 6-methyl-",490.95,1,Cc1cc2ccccc2c2cc3ccccc3cc12,le15
10414,"Benz(a)anthracene, 4-methyl-",490.95,1,Cc1cccc2c1ccc1cc3ccccc3cc12,le15
10415,"Chrysene, 6-methyl-",490.95,1,Cc1cc2c3ccccc3ccc2c2ccccc12,le15
10416,"Benz(a)anthracene, 5-methyl-",490.95,1,Cc1cc2cc3ccccc3cc2c2ccccc12,le15
10417,"Benz(a)anthracene, 10-methyl-",490.95,1,Cc1ccc2cc3ccc4ccccc4c3cc2c1,le15
10418,"Benz(a)anthracene, 8-methyl-",490.95,1,Cc1cccc2cc3c(ccc4ccccc43)cc12,le15
10419,"Benz(a)anthracene, 12-methyl-",490.95,1,Cc1c2ccccc2cc2ccc3ccccc3c12,le15
10420,"Benz(a)anthracene, 3-methyl-",490.95,1,Cc1ccc2c(ccc3cc4ccccc4cc32)c1,le15
10421,"Benz(a)anthracene, 1-methyl-",490.95,1,Cc1cccc2ccc3cc4ccccc4cc3c12,le15
10422,"Chrysene, 1-methyl-",490.95,1,Cc1cccc2c1ccc1c3ccccc3ccc21,le15
10423,"Benz(a)anthracene, 9-methyl-",490.95,1,Cc1ccc2cc3c(ccc4ccccc43)cc2c1,le15
10424,"Benz(a)anthracene, 2-methyl-",490.95,1,Cc1ccc2ccc3cc4ccccc4cc3c2c1,le15
10425,heptanoyl heptanoate,403.05,1,CCCCCCC(=O)OC(=O)CCCCCC,le15
10426,pentadecanoic acid,422.75,1,CCCCCCCCCCCCCCC(=O)O,le15
10427,heptyl octanoate,403.15,1,CCCCCCCOC(=O)CCCCCCC,le15
10428,1-octoxyoctane,386.65,1,CCCCCCCCOCCCCCCCC,le15
10429,"Heptane, 3,3'-(oxybis(methylene))bis-",380.65,1,CCCCC(CC)COCC(CC)CCCC,le15
10430,Hexadecan-2-ol,384.45,1,CCCCCCCCCCCCCCC(C)O,le15
10431,"9,10-Anthracenedione, 2-chloro-",452.85,1,O=C1c2ccccc2C(=O)c2cc(Cl)ccc21,le15
10432,"9,10-Anthracenedione, 1-chloro-",452.85,1,O=C1c2ccccc2C(=O)c2c(Cl)cccc21,le15
10433,dibromo(dichloro)methane,309.35,1,ClC(Cl)(Br)Br,le15
10434,"Acetic acid, (4-chlorophenoxy)-, 2-(1-methylethyl)hydrazide (9CI)",430.45,1,CC(C)NNC(=O)COc1ccc(Cl)cc1,le15
10435,"1,3-Dioxolo(4,5-g)furo(2,3-b)quinoline, 9-methoxy-",474.15,1,COc1c2cc3c(cc2nc2occc12)OCO3,le15
10436,"2(1H)-Pyrimidinone, 4-amino-1-beta-D-arabinofuranosyl-",556.95,1,Nc1ccn([C@@H]2O[C@H](CO)[C@@H](O)[C@@H]2O)c(=O)n1,le15
10437,Chrysen-6-ylamine,560.05,1,Nc1cc2c3ccccc3ccc2c2ccccc12,le15
10438,"Benz(c)acridine, 7-methyl-",478.65,1,Cc1c2ccccc2nc2c1ccc1ccccc12,le15
10439,"Dodecanamide, N-(2-hydroxyethyl)-",475.35,1,CCCCCCCCCCCC(=O)NCCO,le15
10440,"3(2H)-Benzothiazoleacetic acid, 4-chloro-2-oxo-",510.25,1,O=C(O)Cn1c(=O)sc2cccc(Cl)c21,le15
10441,"Hexane, 1,2-dibromo-",356.35,1,CCCCC(Br)CBr,le15
10442,"Hexane, 1,6-dibromo-",383.95,1,BrCCCCCCBr,le15
10443,"1,1,1,3,3,3-hexafluoro-2-phenylpropan-2-ol",333.15,1,OC(c1ccccc1)(C(F)(F)F)C(F)(F)F,le15
10444,"Xanthen-9-one, 1,3,7-trihydroxy-",497.85,1,O=c1c2cc(O)ccc2oc2cc(O)cc(O)c12,le15
10445,"1,1'-Biphenyl, 4,4'-dinitro-",481.95,1,O=[N+]([O-])c1ccc(-c2ccc([N+](=O)[O-])cc2)cc1,le15
10446,1-nitro-2-(2-nitrophenyl)benzene,461.05,1,O=[N+]([O-])c1ccccc1-c1ccccc1[N+](=O)[O-],le15
10447,"s-Triazin-2(1H)-one, 4-amino-1-beta-D-ribofuranosyl- (8CI)",550.15,1,Nc1ncn([C@@H]2O[C@H](CO)[C@@H](O)[C@H]2O)c(=O)n1,le15
10448,"1,2,4-Triazin-3(2H)-one, 5-amino-2-beta-D-ribofuranosyl-",550.15,1,Nc1cnn([C@@H]2O[C@H](CO)[C@@H](O)[C@H]2O)c(=O)n1,le15
10449,"dimethyl naphthalene-2,6-dicarboxylate",462.35,1,COC(=O)c1ccc2cc(C(=O)OC)ccc2c1,le15
10450,"Methanone, (2-hydroxy-4-methoxyphenyl)(2-hydroxyphenyl)-",419.15,1,COc1ccc(C(=O)c2ccccc2O)c(O)c1,le15
10451,"Benz(3,4)anthra(1,2-b)oxirene, 1a,11b-dihydro- (9CI)",485.55,1,c1ccc2c(c1)-c1cc3ccccc3cc1C1OC21,le15
10452,"2-Propanol, 1,3-diphenoxy-",466.95,1,OC(COc1ccccc1)COc1ccccc1,le15
10453,"2H-1-Benzopyran-2-one, 7-methoxy-8-(3-methyl-2-butenyl)- (9CI)",440.75,1,COc1ccc2ccc(=O)oc2c1CC=C(C)C,le15
10454,"Aziridine, 1,1'-(1,3-phenylenedicarbonyl)bis(2-methyl-",484.05,1,CC1CN1C(=O)c1cccc(C(=O)N2CC2C)c1,le15
10455,"Phosphorothioic acid, O,O-diethyl S-(ethylthio)methyl ester",399.15,1,CCOP(=O)(OCC)SCSCC,le15
10456,"Methane, triphenyl- (8CI)",433.45,1,c1ccc(C(c2ccccc2)c2ccccc2)cc1,le15
10457,"3-Cyclohexene-1-carboxylic acid, 5-ethyl-6-methyl-4-phenyl-",456.45,1,CCC1C(c2ccccc2)=CCC(C(=O)O)C1C,le15
10458,diethyl 2-hexylpropanedioate,395.85,1,CCCCCCC(C(=O)OCC)C(=O)OCC,le15
10459,"Phosphorotrithioic acid, O-methyl S,S-dipropyl ester",411.05,1,CCCSP(=S)(OC)SCCC,le15
10460,"Urea, 1,1,3-tributyl-2-thio- (8CI)",416.55,1,CCCCNC(=S)N(CCCC)CCCC,le15
10461,"Urea, 1-dodecyl-2-thio-",434.75,1,CCCCCCCCCCCCNC(N)=S,le15
10462,"2,3-Phenazinediamine, 7-chloro-",544.45,1,Nc1cc2nc3ccc(Cl)cc3nc2cc1N,le15
10463,"Benzenesulfonic acid, 4-((methoxycarbonyl)amino)-, hydrazide (9CI)",549.35,1,COC(=O)Nc1ccc(S(=O)(=O)NN)cc1,le15
10464,"Benzenamine, N,N-diphenyl-",430.45,1,c1ccc(N(c2ccccc2)c2ccccc2)cc1,le15
10465,"Pyridine, 2-((2-(dimethylamino)ethyl)furfurylamino)- (8CI)",447.35,1,CN(C)CCN(Cc1ccco1)c1ccccn1,le15
10466,"2,5-Cyclohexadiene-1,4-dione, 2,3,5,6-tetrachloro-",384.85,1,O=C1C(Cl)=C(Cl)C(=O)C(Cl)=C1Cl,le15
10467,"ethyl 2,2-dibromoacetate",342.65,1,CCOC(=O)C(Br)Br,le15
10468,"methyl 2,3-dibromopropanoate",344.25,1,COC(=O)C(Br)CBr,le15
10469,"Benzene, 1,2,3,4-tetrachloro-5-methoxy-",390.75,1,COc1cc(Cl)c(Cl)c(Cl)c1Cl,le15
10470,"Pentanoic acid, 2,2,3,3,4,4,5,5-octafluoro-",323.05,1,O=C(O)C(F)(F)C(F)(F)C(F)(F)C(F)F,le15
10471,"2H-Furo(2,3-h)-1-benzopyran-2-one, 5,6-dimethoxy-",493.65,1,COc1c(OC)c2occc2c2oc(=O)ccc12,le15
10472,"Benzophenone, 2,2',4,4'-tetrahydroxy-",562.35,1,O=C(c1ccc(O)cc1O)c1ccc(O)cc1O,le15
10473,"7H-Furo(3,2-g)(1)benzopyran-7-one, 4,9-dimethoxy- (8CI)(9CI)",498.25,1,COc1c2ccoc2c(OC)c2oc(=O)ccc12,le15
10474,"1,2-Benzenedicarboxylic acid, di-2-propenyl ester",439.15,1,C=CCOC(=O)c1ccccc1C(=O)OCC=C,le15
10475,"2,4,6(1H,3H,5H)-Pyrimidinetrione, 5-ethyl-1-methyl-5-phenyl-",466.35,1,CCC1(c2ccccc2)C(=O)NC(=O)N(C)C1=O,le15
10476,"Tryptophan, N-acetyl-, L-",581.75,1,CC(=O)N[C@@H](Cc1c[nH]c2ccccc12)C(=O)O,le15
10477,"Aniline, p-((p-nitrophenyl)thio)- (6CI,7CI,8CI)",516.65,1,Nc1ccc(Sc2ccc([N+](=O)[O-])cc2)cc1,le15
10478,"Phosphorothioic acid, S-(2-(ethylsulfinyl)ethyl) O,O-dimethyl ester",455.35,1,CCS(=O)CCSP(=O)(OC)OC,le15
10479,"6H-Pyrido(4,3-b)carbazole, 5,11-dimethyl-",500.25,1,Cc1c2ccncc2c(C)c2c1[nH]c1ccccc12,le15
10480,"1,4-Butanediol, dimethanesulfonate",507.55,1,CS(=O)(=O)OCCCCOS(C)(=O)=O,le15
10481,1-methyl-4-(4-methylphenyl)sulfonylbenzene,506.15,1,Cc1ccc(S(=O)(=O)c2ccc(C)cc2)cc1,le15
10482,"1,3-Propanediol, 2-butyl-2-ethyl-, dicarbamate",489.75,1,CCCCC(CC)(COC(N)=O)COC(N)=O,le15
10483,"Phosphonodithioic acid, ethyl-, O-ethyl S-phenyl ester",422.65,1,CCOP(=S)(CC)Sc1ccccc1,le15
10484,"Phosphonodithioic acid, methyl-, O-phenyl S-propyl ester",422.65,1,CCCSP(C)(=S)Oc1ccccc1,le15
10485,Benzyl disulfide (8CI),422.15,1,c1ccc(CSSCc2ccccc2)cc1,le15
10486,"Benzene, 1,1'-(1,2-ethanediylbis(thio))bis-",457.75,1,c1ccc(SCCSc2ccccc2)cc1,le15
10487,"Silane, trimethoxy(2-(7-oxabicyclo(4.1.0)hept-3-yl)ethyl)-",362.85,1,CO[Si](CCC1CCC2OC2C1)(OC)OC,le15
10488,"Benzene, 1,3,5-tris(1,1-dimethylethyl)-",372.25,1,CC(C)(C)c1cc(C(C)(C)C)cc(C(C)(C)C)c1,le15
10489,"Dodecane, 1-phenyl- (8CI)",413.75,1,CCCCCCCCCCCCc1ccccc1,le15
10490,"4-chloro-3,5-dinitrobenzoic acid",482.55,1,O=C(O)c1cc([N+](=O)[O-])c(Cl)c([N+](=O)[O-])c1,le15
10491,triethyl(triethylsilyloxy)silane,350.15,1,CC[Si](CC)(CC)O[Si](CC)(CC)CC,le15
10492,"1-bromo-2,3,4,5,6-pentafluorobenzene",360.95,1,Fc1c(F)c(F)c(Br)c(F)c1F,le15
10493,"Phosphoric acid, dimethyl-4-nitrophenyl ester (9CI)",417.45,1,Cc1c(OP(=O)([O-])[O-])ccc([N+](=O)[O-])c1C,le15
10494,"Pyrene, 2-nitro-",503.45,1,O=[N+]([O-])c1cc2ccc3cccc4ccc(c1)c2c34,le15
10495,"Pyrene, 1-nitro-",496.65,1,O=[N+]([O-])c1ccc2ccc3cccc4ccc1c2c34,le15
10496,"4-Piperidinecarboxylic acid, 1-methyl-4-phenyl-, ethyl ester",384.75,1,CCOC(=O)C1(c2ccccc2)CCN(C)CC1,le15
10497,"1,2,4-Thiadiazole, 5-ethoxy-3-(trichloromethyl)-",380.95,1,CCOc1nc(C(Cl)(Cl)Cl)ns1,le15
10498,"1,4-Benzenediol, 2,3,5,6-tetrachloro-",400.05,1,Oc1c(Cl)c(Cl)c(O)c(Cl)c1Cl,le15
10499,"3,4,5,6-Tetrachloro-1,2-benzenediol  (9CI)",413.85,1,Oc1c(O)c(Cl)c(Cl)c(Cl)c1Cl,le15
10500,"2-Furanacetamide, alpha-((5-nitro-2-furanyl)methylene)- (9CI)",504.95,1,NC(=O)C(=Cc1ccc([N+](=O)[O-])o1)c1ccco1,le15
10501,"Phosphonic acid, methyl-, diphenyl ester",383.15,1,CP(=O)(Oc1ccccc1)Oc1ccccc1,le15
10502,"Phosphorothioic acid, O,O-diethyl O-pyrazinyl ester",412.65,1,CCOP(=S)(OCC)Oc1cnccn1,le15
10503,"2-Naphthalenol, 1-(2-phenyldiazenyl)-",563.346,1,Oc1ccc2ccccc2c1N=Nc1ccccc1,le15
10504,"Acetamide, N-(2-(6-hydroxy-5-methoxy-1H-indol-3-yl)ethyl)- (9CI)",568.45,1,COc1cc2c(CCNC(C)=O)c[nH]c2cc1O,le15
10505,"Benzenamine, 4,4'-sulfonylbis-",536.35,1,Nc1ccc(S(=O)(=O)c2ccc(N)cc2)cc1,le15
10506,"2-Propenoic acid, 2-methyl-, 3-(trimethoxysilyl)propyl ester",365.15,1,C=C(C)C(=O)OCCC[Si](OC)(OC)OC,le15
10507,"Pyrimidine, 2,4-diamino-5-(p-chlorophenyl)-6-ethyl-",524.15,1,CCc1nc(N)nc(N)c1-c1ccc(Cl)cc1,le15
10508,1-iodo-4-nitrobenzene,373.15,1,O=[N+]([O-])c1ccc(I)cc1,le15
10509,1-iodo-2-nitrobenzene,396.05,1,O=[N+]([O-])c1ccccc1I,le15
10510,"Benzene, 1-iodo-3-nitro-",344.85,1,O=[N+]([O-])c1cccc(I)c1,le15
10511,"Urea, N'-(3,4-dichlorophenyl)-N-methoxy-N-methyl-",284.15,1,CON(C)C(=O)Nc1ccc(Cl)c(Cl)c1,le15
10512,"Ether, p-bromophenyl phenyl (8CI)",391.55,1,Brc1ccc(Oc2ccccc2)cc1,le15
10513,"1-Triazene-1-carbothioamide, 3-(3,4-dichlorophenyl)- (9CI)",442.25,1,NC(=S)N=NNc1ccc(Cl)c(Cl)c1,le15
10514,1-bromododecane,383.15,1,CCCCCCCCCCCCBr,le15
10515,"Carbamic acid, methyl-, o-(4,7-dihydro-1,3-dioxepin-2-yl)phenyl ester",442.75,1,CNC(=O)Oc1ccccc1C1OCC=CCO1,le15
10516,"1,3,5-Triazine-2,4,6(1H,3H,5H)-trione, 1,3,5-tri-2-propenyl-",426.55,1,C=CCn1c(=O)n(CC=C)c(=O)n(CC=C)c1=O,le15
10517,"1,3,5-Triazine, hexahydro-1,3,5-tris(1-oxo-2-propenyl)-",574.15,1,C=CC(=O)N1CN(C(=O)C=C)CN(C(=O)C=C)C1,le15
10518,"Benzenesulfonamide, 4-amino-N-2-pyridinyl-",513.35,1,Nc1ccc(S(=O)(=O)Nc2ccccn2)cc1,le15
10519,"Carbamic acid, acetylmethyl-, 3-(1,1-dimethylethyl)phenyl ester",434.25,1,CC(=O)CNC(=O)Oc1cccc(C(C)(C)C)c1,le15
10520,"1,4-dibromo-2-methylbenzene",381.05,1,Cc1cc(Br)ccc1Br,le15
10521,"2,2,3,4,4,4-Hexafluorobutyl methacrylate",329.15,1,C=C(C)C(=O)OCC(F)(F)C(F)C(F)(F)F,le15
10522,"Phthalamide, N,N'-dimethyl-N,N'-dinitroso- (8CI)",459.75,1,CN(N=O)C(=O)c1ccccc1C(=O)N(C)N=O,le15
10523,"Isocyanic acid, methylenedi-p-phenylene ester",427.15,1,O=C=Nc1ccc(Cc2ccc(N=C=O)cc2)cc1,le15
10524,"Phenol, 4,4'-sulfonylbis-",532.55,1,O=S(=O)(c1ccc(O)cc1)c1ccc(O)cc1,le15
10525,"4(3H)-Quinazolinone, 2-methyl-3-(2-methylphenyl)-",473.05,1,Cc1ccccc1-n1c(C)nc2ccccc2c1=O,le15
10526,"2-Propenoic acid, 3-(4-methoxyphenyl)-, 2-ethoxyethyl ester",437.95,1,CCOCCOC(=O)C=Cc1ccc(OC)cc1,le15
10527,"Propanedioic acid, (phenylmethyl)-, diethyl ester",427.85,1,CCOC(=O)C(Cc1ccccc1)C(=O)OCC,le15
10528,"1-Butanol, 1,1',1''-phosphinidynetri- (9CI)",394.25,1,CCCC(O)P(C(O)CCC)C(O)CCC,le15
10529,"Benzoic acid, 3,5-bis(1,1-dimethylethyl)-4-hydroxy-",447.15,1,CC(C)(C)c1cc(C(=O)O)cc(C(C)(C)C)c1O,le15
10530,"Benzoic acid, p-(octyloxy)- (8CI)",406.25,1,CCCCCCCCOc1ccc(C(=O)O)cc1,le15
10531,"3,6,9,12,15-Pentaoxaheptadecane",384.95,1,CCOCCOCCOCCOCCOCC,le15
10532,2-[2-[2-(2-butoxyethoxy)ethoxy]ethoxy]ethanol,429.35,1,CCCCOCCOCCOCCOCCO,le15
10533,"1,4-Benzenediol, 2,5-bis(1,1-dimethylpropyl)-",435.85,1,CCC(C)(C)c1cc(O)c(C(C)(C)CC)cc1O,le15
10534,(9Z)-cycloheptadec-9-en-1-one,430.25,1,O=C1CCCCCCC/C=C\CCCCCCC1,le15
10535,"Fluoranthene, 3-(chloromethyl)-",474.35,1,ClCc1ccc2c3c(cccc13)-c1ccccc1-2,le15
10536,"Pyrene, 1-(chloromethyl)-",474.35,1,ClCc1ccc2ccc3cccc4ccc1c2c34,le15
10537,"1,1,1,3,3,3-hexachloropropane",353.25,1,ClC(Cl)(Cl)CC(Cl)(Cl)Cl,le15
10538,"1,1,2,2,3,3-Hexachloropropane",366.85,1,ClC(Cl)C(Cl)(Cl)C(Cl)Cl,le15
10539,"2,6-Dibromoaniline",387.75,1,Nc1c(Br)cccc1Br,le15
10540,"Benzene, 1,1'-ethylidenebis(4-chloro-",416.75,1,CC(c1ccc(Cl)cc1)c1ccc(Cl)cc1,le15
10541,Ethyl 2-bromooctanoate,385.25,1,CCCCCCC(Br)C(=O)OCC,le15
10542,"Adenosine, 3'-deoxy-",606.25,1,Nc1ncnc2c1ncn2[C@@H]1O[C@H](CO)C[C@H]1O,le15
10543,"Adenosine, 2'-deoxy-",606.25,1,Nc1ncnc2c1ncn2[C@H]1C[C@H](O)[C@@H](CO)O1,le15
10544,"3-Butynal, 2,4-diphenyl-2-hydroxy-, oxime",578.65,1,ON=CC(O)(C#Cc1ccccc1)c1ccccc1,le15
10545,"2,5-Pyridinedicarboxylic acid, dipropyl ester",444.45,1,CCCOC(=O)c1ccc(C(=O)OCCC)nc1,le15
10546,"Pyridine, 2,3,4,5,6-pentachloro-",424.65,1,Clc1nc(Cl)c(Cl)c(Cl)c1Cl,le15
10547,"4(3H)-Quinazolinone, 2-methyl-3-(3-methyl-2-pyridinyl)-",488.45,1,Cc1cccnc1-n1c(C)nc2ccccc2c1=O,le15
10548,"3,5-Pyridinedicarboxylic acid, diisopropyl ester",421.15,1,CC(C)OC(=O)c1cncc(C(=O)OC(C)C)c1,le15
10549,"Chalcone, 4-(dimethylamino)- (8CI)",434.45,1,CN(C)c1ccc(C=CC(=O)c2ccccc2)cc1,le15
10550,"2,8,9-Trioxa-5-aza-1-silabicyclo(3.3.3)undecane, 1-phenyl-",398.75,1,c1ccc([Si]23OCCN(CCO2)CCO3)cc1,le15
10551,heptadecanenitrile,410.65,1,CCCCCCCCCCCCCCCCC#N,le15
10552,"Phenol, 2,4-dibromo-",374.35,1,Oc1ccc(Br)cc1Br,le15
10553,"3,5-dibromophenol",395.15,1,Oc1cc(Br)cc(Br)c1,le15
10554,"2,6-dibromophenol",355.666,1,Oc1c(Br)cccc1Br,le15