,compound,flashpoint,pure substance,smiles,source
8851,"1,2-dimethyl-4-phenylbenzene",402.05,1,Cc1ccc(-c2ccccc2)cc1C,le15
8852,1-ethyl-3-phenylbenzene,398.45,1,CCc1cccc(-c2ccccc2)c1,le15
8853,1-methyl-3-(4-methylphenyl)benzene,398.95,1,Cc1ccc(-c2cccc(C)c2)cc1,le15
8854,"1,3-dimethyl-5-phenylbenzene",394.75,1,Cc1cc(C)cc(-c2ccccc2)c1,le15
8855,Bibenzyl,402.0,1,c1ccc(CCc2ccccc2)cc1,le15
8856,"2,6-Octadien-1-ol, 3,7-dimethyl-, formate, (2E)-",382.25,1,CC(C)=CCC/C(C)=C/COC=O,le15
8857,"1,6-Octadien-3-ol, 3,7-dimethyl-, formate",358.75,1,C=CC(C)(CCC=C(C)C)OC=O,le15
8858,"Cyclohexaneacetic acid, 2-propenyl ester",371.95,1,C=CCOC(=O)CC1CCCCC1,le15
8859,"Silane, dimethoxymethylphenyl-",353.15,1,COC(OC)[SiH2]c1ccccc1,le15
8860,13-Oxabicyclo(10.1.0)tridecane,386.15,1,C1CCCCCC2OC2CCCC1,le15
8861,cyclohexyloxycyclohexane,367.05,1,C1CCC(OC2CCCCC2)CC1,le15
8862,Dodec-2-en-1-al,394.15,1,CCCCCCCCCC=CC=O,le15
8863,"Cyclopentanone, 2-heptyl-",371.75,1,CCCCCCCC1CCCC1=O,le15
8864,"(4S,4aS,8aR)-4,8a-dimethyl-1,2,3,4,5,6,7,8-octahydronaphthalen-4a-ol",377.35,1,C[C@H]1CCC[C@@]2(C)CCCC[C@]12O,le15
8865,"Ethanethiol, 2-(trimethoxysilyl)-",344.95,1,CO[Si](CCS)(OC)OC,le15
8866,"4-Nonene, 5-butyl-",339.25,1,CCCC=C(CCCC)CCCC,le15
8867,heptylcyclohexane,366.35,1,CCCCCCCC1CCCCC1,le15
8868,1tridecene,353.0,1,C=CCCCCCCCCCCC,le15
8869,"Benzonitrile, 4-chloro-3-nitro-",399.167,1,N#Cc1ccc(Cl)c([N+](=O)[O-])c1,le15
8870,"2-Propenoic acid, 3-(4-chlorophenyl)- (9CI)",423.65,1,O=C(O)C=Cc1ccc(Cl)cc1,le15
8871,1-bromo-2-ethenylbenzene,357.082,1,C=Cc1ccccc1Br,le15
8872,"Benzene, (2-bromoethenyl)-",374.85,1,BrC=Cc1ccccc1,le15
8873,1-bromo-4-ethenylbenzene,359.85,1,C=Cc1ccc(Br)cc1,le15
8874,"Benzenamine, 2,3,4,5,6-pentafluoro-",346.15,1,Nc1c(F)c(F)c(F)c(F)c1F,le15
8875,"Benzenamine, 2,6-dinitro- (9CI)",441.35,1,Nc1c([N+](=O)[O-])cccc1[N+](=O)[O-],le15
8876,"1,8-dichlorooctane",391.15,1,ClCCCCCCCCCl,le15
8877,"Benzenamine, 2,4-dinitro-",497.15,1,Nc1ccc([N+](=O)[O-])cc1[N+](=O)[O-],le15
8878,"Benzenamine, 3,5-dinitro- (9CI)",467.55,1,Nc1cc([N+](=O)[O-])cc([N+](=O)[O-])c1,le15
8879,phenyl(pyridin-2-yl)methanone,427.05,1,O=C(c1ccccc1)c1ccccn1,le15
8880,3-Aminodibenzofuran,450.15,1,Nc1ccc2c(c1)oc1ccccc12,le15
8881,phenyl(pyridin-3-yl)methanone,423.15,1,O=C(c1ccccc1)c1cccnc1,le15
8882,2-Dibenzofuranamine,450.15,1,Nc1ccc2oc3ccccc3c2c1,le15
8883,"Methanone, phenyl-4-pyridinyl-",423.15,1,O=C(c1ccccc1)c1ccncc1,le15
8884,"Benzyl alcohol, 3,4-dihydroxy-alpha-((methylamino)methyl)-, (-)-",481.05,1,CNCC(O)c1ccc(O)c(O)c1,le15
8885,N-benzylaniline,425.15,1,c1ccc(CNc2ccccc2)cc1,le15
8886,N-methyl-N-phenylaniline,389.75,1,CN(c1ccccc1)c1ccccc1,le15
8887,"4-Biphenylamine, 2'-methyl-",418.85,1,Cc1ccccc1-c1ccc(N)cc1,le15
8888,"Benzenamine, 3-methyl-N-phenyl-",420.55,1,Cc1cccc(Nc2ccccc2)c1,le15
8889,2-phenethylpyridine,379.25,1,c1ccc(CCc2ccccn2)cc1,le15
8890,"2,4-Piperidinedione, 3,3-diethyl-5-methyl-",416.25,1,CCC1(CC)C(=O)NCC(C)C1=O,le15
8891,"Pyrimidine, 2,4,6-trichloro-",375.65,1,Clc1cc(Cl)nc(Cl)n1,le15
8892,"2-Benzoxazolinone, 5-chloro-3-methyl-",404.75,1,Cn1c(=O)oc2ccc(Cl)cc21,le15
8893,"Benzeneethanamine, 4-chloro-alpha,alpha-dimethyl-",400.15,1,CC(C)(N)Cc1ccc(Cl)cc1,le15
8894,trichloro(chloromethyl)silane,342.55,1,ClC[Si](Cl)(Cl)Cl,le15
8895,"Propane, 1-iodo-2-methyl-",285.15,1,CC(C)CI,le15
8896,2-iodo-2-methylpropane,280.95,1,CC(C)(C)I,le15
8897,"Phenol, pentafluoro-",345.15,1,Oc1c(F)c(F)c(F)c(F)c1F,le15
8898,"Phenol, 2,4-dinitro-",415.95,1,O=[N+]([O-])c1ccc(O)c([N+](=O)[O-])c1,le15
8899,"Phenol, 2,3-dinitro-",424.35,1,O=[N+]([O-])c1cccc(O)c1[N+](=O)[O-],le15
8900,"Phenol, 2,5-dinitro-",414.65,1,O=[N+]([O-])c1ccc([N+](=O)[O-])c(O)c1,le15
8901,"Phenol, 2,6-dinitro-",377.95,1,O=[N+]([O-])c1cccc([N+](=O)[O-])c1O,le15
8902,"Furan, 2-nitro-5-(2-nitroethenyl)-",420.45,1,O=[N+]([O-])C=Cc1ccc([N+](=O)[O-])o1,le15
8903,"Phenol, 3,4-dinitro-",467.25,1,O=[N+]([O-])c1ccc(O)cc1[N+](=O)[O-],le15
8904,"ethyl 4,4,4-trifluoro-3-oxobutanoate",302.05,1,CCOC(=O)CC(=O)C(F)(F)F,le15
8905,"Phosphorofluoridic acid, bis(1-methylethyl) ester",337.65,1,CC(C)OP(=O)(F)OC(C)C,le15
8906,"Dibenzo(b,e)(1,4)dioxin",388.85,1,c1ccc2c(c1)Oc1ccccc1O2,le15
8907,"p-Benzoquinone, 2-phenyl- (8CI)",398.35,1,O=C1C=CC(=O)C(c2ccccc2)=C1,le15
8908,"Benzenemethanol, alpha-phenyl-",413.95,1,OC(c1ccccc1)c1ccccc1,le15
8909,"p-Cresol, alpha-phenyl- (8CI)",427.35,1,Oc1ccc(Cc2ccccc2)cc1,le15
8910,phenoxymethylbenzene,383.95,1,c1ccc(COc2ccccc2)cc1,le15
8911,p-Phenylbenzyl alcohol,428.05,1,OCc1ccc(-c2ccccc2)cc1,le15
8912,2-benzylphenol,420.45,1,Oc1ccccc1Cc1ccccc1,le15
8913,1-methyl-3-phenoxybenzene,383.95,1,Cc1cccc(Oc2ccccc2)c1,le15
8914,1-methyl-2-phenoxybenzene,380.05,1,Cc1ccccc1Oc1ccccc1,le15
8915,"(1,1'-Biphenyl)-4,4'-diamine",476.65,1,Nc1ccc(-c2ccc(N)cc2)cc1,le15
8916,"1,4-Benzenediamine, N-phenyl-",470.95,1,Nc1ccc(Nc2ccccc2)cc1,le15
8917,"Hydrazine, 1,1-diphenyl-",453.65,1,NN(c1ccccc1)c1ccccc1,le15
8918,"2-N-phenylbenzene-1,2-diamine",454.75,1,Nc1ccccc1Nc1ccccc1,le15
8919,"Pyridine, 4,4'-(1,2-ethanediyl)bis-",390.35,1,c1cc(CCc2ccncc2)ccn1,le15
8920,"1,2-Diphenylhydrazine (9CI)",360.85,1,c1ccc(NNc2ccccc2)cc1,le15
8921,Dibenzothiophene,443.15,1,c1ccc2c(c1)sc1ccccc12,le15
8922,2-butylnaphthalene,405.25,1,CCCCc1ccc2ccccc2c1,le15
8923,2-tert-butylnaphthalene,394.75,1,CC(C)(C)c1ccc2ccccc2c1,le15
8924,1-tert-butylnaphthalene,394.75,1,CC(C)(C)c1cccc2ccccc12,le15
8925,1-butylnaphthalene,404.55,1,CCCCc1cccc2ccccc12,le15
8926,"2-Propenoic acid, 2-ethylhexyl ester",352.55,1,C=CC(=O)OCC(CC)CCCC,le15
8927,"6-Octen-1-ol, 3,7-dimethyl-, formate",365.35,1,CC(C)=CCCC(C)CCOC=O,le15
8928,"Octanoic acid, 2-propenyl ester",368.15,1,C=CCOC(=O)CCCCCCC,le15
8929,10-Undecenoic acid,418.965,1,C=CCCCCCCCCC(=O)O,le15
8930,"Undecanal, 2-methyl-",366.45,1,CCCCCCCCCC(C)C=O,le15
8931,Lauraldehyde (8CI),375.15,1,CCCCCCCCCCCC=O,le15
8932,2-Dodecanone,354.35,1,CCCCCCCCCCC(C)=O,le15
8933,"2,6,8-trimethylnonan-4-one",336.25,1,CC(C)CC(=O)CC(C)CC(C)C,le15
8934,"1,3,5-Triazine, 2,4,6-trichloro-",487.55,1,Clc1nc(Cl)nc(Cl)n1,le15
8935,5-n-Butylnonane,338.05,1,CCCCC(CCCC)CCCC,le15
8936,"Ethane, 2-chloro-2-(difluoromethoxy)-1,1,1-trifluoro-",321.65,1,FC(F)OC(Cl)C(F)(F)F,le15
8937,"6-Benzoxazolol, 2-amino-5-chloro- (8CI)(9CI)",450.85,1,Nc1nc2cc(Cl)c(O)cc2o1,le15
8938,2-phenoxypropanoyl chloride,361.45,1,CC(Oc1ccccc1)C(=O)Cl,le15
8939,ethyl 4-chlorobenzoate,380.35,1,CCOC(=O)c1ccc(Cl)cc1,le15
8940,ethyl 3-chlorobenzoate,388.35,1,CCOC(=O)c1cccc(Cl)c1,le15
8941,4-chloro-5-methyl-2-propan-2-ylphenol,382.65,1,Cc1cc(O)c(C(C)C)cc1Cl,le15
8942,chloromethyl-dimethyl-phenylsilane,364.25,1,C[Si](C)(CCl)c1ccccc1,le15
8943,"Acetamide, 2-iodo-",406.65,1,NC(=O)CI,le15
8944,benzoyl bromide,362.85,1,O=C(Br)c1ccccc1,le15
8945,"Benzaldehyde, 4-bromo-",382.05,1,O=Cc1ccc(Br)cc1,le15
8946,"Benzaldehyde, 2-bromo-",369.35,1,O=Cc1ccccc1Br,le15
8947,"Benzene, (2-bromoethyl)-",362.55,1,BrCCc1ccccc1,le15
8948,1-(bromomethyl)-4-methylbenzene,370.95,1,Cc1ccc(CBr)cc1,le15
8949,"1-bromo-3,5-dimethylbenzene",360.35,1,Cc1cc(C)cc(Br)c1,le15
8950,"2-bromo-1,3-dimethylbenzene",347.05,1,Cc1cccc(C)c1Br,le15
8951,"1-bromo-2,3-dimethylbenzene",357.15,1,Cc1cccc(Br)c1C,le15
8952,"1-bromo-2,4-dimethylbenzene",354.75,1,Cc1ccc(Br)c(C)c1,le15
8953,alpha-Methylbenzyl bromide,353.35,1,CC(Br)c1ccccc1,le15
8954,1-(bromomethyl)-3-methylbenzene,355.15,1,Cc1cccc(CBr)c1,le15
8955,"Benzene, 1-bromo-4-ethyl-",344.35,1,CCc1ccc(Br)cc1,le15
8956,1-bromo-2-ethylbenzene,344.15,1,CCc1ccccc1Br,le15
8957,1-(bromomethyl)-2-methylbenzene,355.15,1,Cc1ccccc1CBr,le15
8958,"2-bromo-1,4-dimethylbenzene",352.15,1,Cc1ccc(C)c(Br)c1,le15
8959,"4-bromo-1,2-dimethylbenzene",358.95,1,Cc1ccc(Br)cc1C,le15
8960,"1H-Imidazole-1-acetic acid, 2-methyl-5-nitro-",514.75,1,Cc1ncc([N+](=O)[O-])n1CC(=O)O,le15
8961,"Furo(2,3-b)quinolin-4(9H)-one",429.85,1,O=c1c2ccccc2[nH]c2occc12,le15
8962,"Phenol, m-anilino- (8CI)",420.55,1,Oc1cccc(Nc2ccccc2)c1,le15
8963,"Phenol, 4-(phenylamino)-",419.35,1,Oc1ccc(Nc2ccccc2)cc1,le15
8964,"Benzenamine, 4-phenoxy-",428.95,1,Nc1ccc(Oc2ccccc2)cc1,le15
8965,"(1,1'-Biphenyl)-4-ol, 3-amino-",442.25,1,Nc1cc(-c2ccccc2)ccc1O,le15
8966,2-phenoxyaniline,386.15,1,Nc1ccccc1Oc1ccccc1,le15
8967,"(1,1'-Biphenyl)-3-ol, 4-amino-",438.75,1,Nc1ccc(-c2ccccc2)cc1O,le15
8968,2-(1-Naphthyl)acetamide,481.35,1,NC(=O)Cc1cccc2ccccc12,le15
8969,"Isothiocyanic acid, 1-naphthyl ester",440.35,1,S=C=Nc1cccc2ccccc12,le15
8970,"2-Propenoic acid, 2-methyl-, 2-(diethylamino)ethyl ester",349.85,1,C=C(C)C(=O)OCCN(CC)CC,le15
8971,"1-Butanamine, N,N-dibutyl-",336.45,1,CCCCN(CCCC)CCCC,le15
8972,"1-Hexanamine, N-hexyl-",368.15,1,CCCCCCNCCCCCC,le15
8973,"1-Propanamine, 2-methyl-N,N-bis(2-methylpropyl)-",330.35,1,CC(C)CN(CC(C)C)CC(C)C,le15
8974,Tributylamine,345.0,1,CCCCN(CCCC)CCCC,le15
8975,2-bromobutanoyl chloride,321.95,1,CCC(Br)C(=O)Cl,le15
8976,"Silanamine, 1-ethenyl-N-(ethenyldimethylsilyl)-1,1-dimethyl-",325.25,1,C=C[Si](C)(C)N[Si](C)(C)C=C,le15
8977,"Benzoyl chloride, 3-nitro-",385.15,1,O=C(Cl)c1cccc([N+](=O)[O-])c1,le15
8978,"Benzaldehyde, 2-chloro-5-nitro-",402.55,1,O=Cc1cc([N+](=O)[O-])ccc1Cl,le15
8979,"Benzoyl chloride, 4-nitro-",394.95,1,O=C(Cl)c1ccc([N+](=O)[O-])cc1,le15
8980,2-Chloro-6-nitrobenzaldehyde,407.65,1,O=Cc1c(Cl)cccc1[N+](=O)[O-],le15
8981,"Carbamic acid, methyl-, 2-chlorophenyl ester",380.45,1,CNC(=O)Oc1ccccc1Cl,le15
8982,"Acetamide, N-(4-chlorophenyl)-N-hydroxy- (9CI)",422.15,1,CC(=O)N(O)c1ccc(Cl)cc1,le15
8983,"1,1,1,2-tetrachloro-2-fluoroethane",299.55,1,FC(Cl)C(Cl)(Cl)Cl,le15
8984,"1,1,2,2-tetrachloro-1-fluoroethane",298.25,1,FC(Cl)(Cl)C(Cl)Cl,le15
8985,"1,2,3,4,5,6-hexafluorobenzene",283.15,1,Fc1c(F)c(F)c(F)c(F)c1F,le15
8986,2-bromo-4-methylaniline,375.05,1,Cc1ccc(N)c(Br)c1,le15
8987,4-bromo-3-methylaniline,374.35,1,Cc1cc(N)ccc1Br,le15
8988,"Benzenamine, 3-bromo-4-methyl- (9CI)",383.15,1,Cc1ccc(N)cc1Br,le15
8989,"Benzene, 1-fluoro-2,4-dinitro-",405.95,1,O=[N+]([O-])c1ccc(F)c([N+](=O)[O-])c1,le15
8990,"2,2,3,3-tetrafluoropropyl prop-2-enoate",307.85,1,C=CC(=O)OCC(F)(F)C(F)F,le15
8991,"1H-Benzimidazole, 2-(trifluoromethyl)- (9CI)",385.85,1,FC(F)(F)c1nc2ccccc2[nH]1,le15
8992,"Phosphonic acid, phenyl-, O,O-dimethyl ester",390.45,1,COP(=O)(OC)c1ccccc1,le15
8993,"7H-Furo(3,2-g)(1)benzopyran-7-one",446.25,1,O=c1ccc2cc3ccoc3cc2o1,le15
8994,"2H-Furo(2,3-h)(1)benzopyran-2-one",446.25,1,O=c1ccc2ccc3occc3c2o1,le15
8995,"7-Oxabicyclo(2.2.1)heptane-2,3-dicarboxylic acid",463.65,1,O=C(O)C1C2CCC(O2)C1C(=O)O,le15
8996,"1,3,5,7-Tetraazabicyclo(3.3.1)nonane, 3,7-dinitroso-",504.25,1,O=NN1CN2CN(C1)CN(N=O)C2,le15
8997,"(1,1'-Biphenyl)-4,4'-diol",449.25,1,Oc1ccc(-c2ccc(O)cc2)cc1,le15
8998,"Phenol, p-phenoxy- (8CI)",414.55,1,Oc1ccc(Oc2ccccc2)cc1,le15
8999,"(1,1'-Biphenyl)-2,5-diol",465.45,1,Oc1ccc(O)c(-c2ccccc2)c1,le15
9000,methyl naphthalene-2-carboxylate,418.95,1,COC(=O)c1ccc2ccccc2c1,le15
9001,"2(1H)-Pyridone, 1-(m-aminophenyl)-",483.85,1,Nc1cccc(-n2ccccc2=O)c1,le15
9002,"diethyl cyclopropane-1,1-dicarboxylate",359.85,1,CCOC(=O)C1(C(=O)OCC)CC1,le15
9003,diethyl 2-methylidenebutanedioate,381.15,1,C=C(CC(=O)OCC)C(=O)OCC,le15
9004,"Hexanedioic acid, ethenyl methyl ester (9CI)",378.15,1,C=COC(=O)CCCCC(=O)OC,le15
9005,diethyl (E)-pent-2-enedioate,379.85,1,CCOC(=O)/C=C/CC(=O)OCC,le15
9006,"Benzenesulfonic acid, ethyl ester",398.65,1,CCOS(=O)(=O)c1ccccc1,le15
9007,"Phosphorodithioic acid, O,O-diethyl ester",355.95,1,CCOP(=S)([S-])OCC,le15
9008,"Benzenesulfonamide, 4-amino-N-methyl- (9CI)",444.15,1,CNS(=O)(=O)c1ccc(N)cc1,le15
9009,"Cyclohexaneacetic acid, alpha-ethyl-1-hydroxy-",443.25,1,CCC(C(=O)O)C1(O)CCCCC1,le15
9010,"Decanoic acid, 9-oxo-",444.95,1,CC(=O)CCCCCCCC(=O)O,le15
9011,3-methylbutanoyl 3-methylbutanoate,364.45,1,CC(C)CC(=O)OC(=O)CC(C)C,le15
9012,"2,2-dimethylpropanoyl 2,2-dimethylpropanoate",330.15,1,CC(C)(C)C(=O)OC(=O)C(C)(C)C,le15
9013,"ethyl 2,2-diethyl-3-oxobutanoate",354.55,1,CCOC(=O)C(CC)(CC)C(C)=O,le15
9014,ethyl 2-acetylhexanoate,362.25,1,CCCCC(C(C)=O)C(=O)OCC,le15
9015,pentanoyl pentanoate,374.25,1,CCCCC(=O)OC(=O)CCCC,le15
9016,"Benzene, 1,1'-thiobis-",401.55,1,c1ccc(Sc2ccccc2)cc1,le15
9017,"1,2,3,4,5,6,7,8-octahydroanthracene",409.55,1,c1c2c(cc3c1CCCC3)CCCC2,le15
9018,"1,2,3,4,5,6,7,8-octahydrophenanthrene",405.35,1,c1cc2c(c3c1CCCC3)CCCC2,le15
9019,"Decanoic acid, methyl ester",363.15,1,CCCCCCCCCC(=O)OC,le15
9020,Undecanoic acid,401.35,1,CCCCCCCCCCC(=O)O,le15
9021,"Nonanoic acid, ethyl ester",367.55,1,CCCCCCCCC(=O)OCC,le15
9022,octyl propanoate,365.15,1,CCCCCCCCOC(=O)CC,le15
9023,"Hexanoic acid, pentyl ester",361.05,1,CCCCCOC(=O)CCCCC,le15
9024,"Octanoic acid, propyl ester",361.05,1,CCCCCCCC(=O)OCCC,le15
9025,hexyl pentanoate,361.05,1,CCCCCCOC(=O)CCCC,le15
9026,"Hexanoic acid, 3-methylbutyl ester",358.15,1,CCCCCC(=O)OCCC(C)C,le15
9027,"Propanoic acid, 2,2-dimethyl-, hexyl ester",349.85,1,CCCCCCOC(=O)C(C)(C)C,le15
9028,decyl formate,373.05,1,CCCCCCCCCCOC=O,le15
9029,butyl heptanoate,361.05,1,CCCCCCC(=O)OCCCC,le15
9030,heptyl butanoate,363.75,1,CCCCCCCOC(=O)CCC,le15
9031,2-methylpropyl heptanoate,356.05,1,CCCCCCC(=O)OCC(C)C,le15
9032,"Propane, 1,2-epoxy-3-((2-ethylhexyl)oxy)-",369.85,1,CCCCC(CC)COCC1CO1,le15
9033,"4-Nonanol, 2,6,8-trimethyl-",367.45,1,CC(C)CC(C)CC(O)CC(C)C,le15
9034,dodecan-2-ol,370.95,1,CCCCCCCCCCC(C)O,le15
9035,1dodecanol,400.0,1,CCCCCCCCCCCCO,le15
9036,"1,3-Propanediamine, N,N-dibutyl-",376.15,1,CCCCN(CCCC)CCCN,le15
9037,"Disiloxane, 1,3-diethenyl-1,1,3,3-tetramethyl-",297.15,1,C=C[Si](C)(C)O[Si](C)(C)C=C,le15
9038,"Acetic acid, (4-chlorophenoxy)-",417.55,1,O=C(O)COc1ccc(Cl)cc1,le15
9039,"4-(Chloromethyl)-1,2-dimethoxybenzene",371.75,1,COc1ccc(CCl)cc1OC,le15
9040,"Thiourea, (3-chlorophenyl)- (9CI)",406.35,1,NC(=S)Nc1cccc(Cl)c1,le15
9041,"Urea, 1-(o-chlorophenyl)-2-thio-",404.25,1,NC(=S)Nc1ccccc1Cl,le15
9042,2-carbonochloridoyloxyethyl carbonochloridate,367.05,1,O=C(Cl)OCCOC(=O)Cl,le15
9043,1-bromo-4-methoxybenzene,369.798,1,COc1ccc(Br)cc1,le15
9044,4-Bromobenzyl alcohol,388.85,1,OCc1ccc(Br)cc1,le15
9045,1-bromo-3-methoxybenzene,366.45,1,COc1cccc(Br)c1,le15
9046,1-bromo-2-methoxybenzene,369.15,1,COc1ccccc1Br,le15
9047,"p-Cresol, 2-bromo-",356.05,1,Cc1ccc(O)c(Br)c1,le15
9048,"3H-1,2-Dithiole-3-one, 4,5-dichloro-",370.95,1,O=c1ssc(Cl)c1Cl,le15
9049,"Ethane, 1,2-bis(2-chloroethoxy)-",394.15,1,ClCCOCCOCCCl,le15
9050,"1,1-dichloro-2,2-diethoxyethane",333.15,1,CCOC(OCC)C(Cl)Cl,le15
9051,"Isocyanic acid, (m-trifluoromethylphenyl) ester",331.15,1,O=C=Nc1cccc(C(F)(F)F)c1,le15
9052,4-(trifluoromethoxy)benzonitrile,355.15,1,N#Cc1ccc(OC(F)(F)F)cc1,le15
9053,"Isocyanic acid, (alpha,alpha,alpha-trifluoro-o-tolyl) ester",342.15,1,O=C=Nc1ccccc1C(F)(F)F,le15
9054,2-(Hydroxymethyl)-5-nitro-1H-imidazole-1-ethanol,514.35,1,O=[N+]([O-])c1cnc(CO)n1CCO,le15
9055,"Acetamide, N-(5-nitro-2-thiazolyl)-",410.65,1,CC(=O)Nc1ncc([N+](=O)[O-])s1,le15
9056,"Naphthalene, 2-methyl-1-nitro-",423.55,1,Cc1ccc2ccccc2c1[N+](=O)[O-],le15
9057,"1H-Pyrrole-2,5-dione, 1-(4-methylphenyl)- (9CI)",427.35,1,Cc1ccc(N2C(=O)C=CC2=O)cc1,le15
9058,N-Hydroxy-N-formyl-2-aminonaphthalene,456.65,1,O=CN(O)c1ccc2ccccc2c1,le15
9059,"1H-Pyrrole-2,5-dione, 1-(2-methylphenyl)- (9CI)",412.45,1,Cc1ccccc1N1C(=O)C=CC1=O,le15
9060,"6-Phenyl-1,3,5-triazine-2,4-diyldiamine",558.95,1,Nc1nc(N)nc(-c2ccccc2)n1,le15
9061,"(1,1'-Biphenyl)-4-amine, 4'-fluoro- (9CI)",430.05,1,Nc1ccc(-c2ccc(F)cc2)cc1,le15
9062,"Phenol, 2-amino-4-(methylsulfonyl)-",490.75,1,CS(=O)(=O)c1ccc(O)c(N)c1,le15
9063,"Cyclohexylamine, N-benzylidene- (6CI,7CI,8CI)",397.61300000000006,1,C(=NC1CCCCC1)c1ccccc1,le15
9064,"Ethanol, 2,2'-(cyclohexylimino)bis-",449.35,1,OCCN(CCO)C1CCCCC1,le15
9065,"1H-Azepine-1-carbothioic acid, hexahydro-, S-ethyl ester",395.75,1,CCSC(=O)N1CCCCCC1,le15
9066,"1-Propanamine, 3-((2-ethylhexyl)oxy)-",375.95,1,CCCCC(CC)COCCCN,le15
9067,"1,3-Propanediamine, N'-(3-(dimethylamino)propyl)-N,N-dimethyl-",371.45,1,CN(C)CCCNCCCN(C)C,le15
9068,bromomethyl-chloro-dimethylsilane,314.25,1,C[Si](C)(Cl)CBr,le15
9069,"Phenol, 4-chloro-5-methyl-2-nitro-",394.25,1,Cc1cc(O)c([N+](=O)[O-])cc1Cl,le15
9070,"1,3,5-Triazine-2,4-diamine, 6-chloro-N-(1-methylethyl)-",462.55,1,CC(C)Nc1nc(N)nc(Cl)n1,le15
9071,"Ethane, 1,2-dibromo-",285.75,1,BrCCBr,le15
9072,"Isocyanic acid, 3,4-dichlorophenyl ester",383.15,1,O=C=Nc1ccc(Cl)c(Cl)c1,le15
9073,"3,5-Dichloro-4-hydroxybenzonitrile",382.15,1,N#Cc1cc(Cl)c(O)c(Cl)c1,le15
9074,"2-Naphthalenecarboxylic acid, 3-hydroxy-",463.55,1,O=C(O)c1cc2ccccc2cc1O,le15
9075,"Isocyanic acid, m-phenylenedimethylene ester",392.25,1,O=C=NCc1cccc(CN=C=O)c1,le15
9076,"Isocyanic acid, p-xylylene ester",393.05,1,O=C=NCc1ccc(CN=C=O)cc1,le15
9077,"2,4-Imidazolidinedione, 1,3-bis(hydroxymethyl)-5,5-dimethyl-",410.65,1,CC1(C)C(=O)N(CO)C(=O)N1CO,le15
9078,"1(3H)-Isobenzofuranone, 3-butylidene-",386.15,1,CCCC=C1OC(=O)c2ccccc21,le15
9079,"2-Propenoic acid, 3-phenyl-, 2-propenyl ester",436.65,1,C=CCOC(=O)C=Cc1ccccc1,le15
9080,"3H-Pyrazol-3-one, 1,2-dihydro-1,5-dimethyl-2-phenyl-",387.95,1,Cc1cc(=O)n(-c2ccccc2)n1C,le15
9081,"3H-Pyrazol-3-one, 2,4-dihydro-5-methyl-2-(4-methylphenyl)-",447.75,1,CC1=NN(c2ccc(C)cc2)C(=O)C1,le15
9082,Nonanedioic acid,465.25,1,O=C(O)CCCCCCCC(=O)O,le15
9083,diethyl pentanedioate,369.25,1,CCOC(=O)CCCC(=O)OCC,le15
9084,"diethyl 2,2-dimethylpropanedioate",344.25,1,CCOC(=O)C(C)(C)C(=O)OCC,le15
9085,"Malonic acid, ethyl-, diethyl ester (8CI)",361.15,1,CCOC(=O)C(CC)C(=O)OCC,le15
9086,diethyl 2-methylbutanedioate,370.45,1,CCOC(=O)CC(C)C(=O)OCC,le15
9087,DiethylGlutarate,369.0,1,CCOC(=O)CCCC(=O)OCC,le15
9088,phenyl(thiophen-2-yl)methanone,412.85,1,O=C(c1ccccc1)c1cccs1,le15
9089,"Propanenitrile, 3-(ethyl(3-methylphenyl)amino)-",418.25,1,CCN(CCC#N)c1cccc(C)c1,le15
9090,"Propanenitrile, 3-(trichlorosilyl)-",358.35,1,N#CCC[Si](Cl)(Cl)Cl,le15
9091,"Phenol, 2-amino-6-chloro-4-nitro-",443.95,1,Nc1cc([N+](=O)[O-])cc(Cl)c1O,le15
9092,"Propanedinitrile, ((2-chlorophenyl)methylene)-",421.15,1,N#CC(C#N)=Cc1ccccc1Cl,le15
9093,"Phosphorochloridothioic acid, O,O-diethyl ester",348.95,1,CCOP(=S)(Cl)OCC,le15
9094,"1,1'-Biphenyl, 2-chloro- (9CI)",389.05,1,Clc1ccccc1-c1ccccc1,le15
9095,"1,1'-Biphenyl, 3-chloro-",402.65,1,Clc1cccc(-c2ccccc2)c1,le15
9096,"1,1'-Biphenyl, 4-chloro- (9CI)",400.15,1,Clc1ccc(-c2ccccc2)cc1,le15
9097,"1,4-Benzenediol, 2-bromo-",395.25,1,Oc1ccc(O)c(Br)c1,le15
9098,Chloro(phenyl)acetyl chloride,377.55,1,O=C(Cl)C(Cl)c1ccccc1,le15
9099,"Acetophenone, 2',4'-dichloro- (8CI)",374.05,1,CC(=O)c1ccc(Cl)cc1Cl,le15
9100,"Thiophene, 3,4-dichlorotetrahydro-, 1,1-dioxide (8CI)(9CI)",469.15,1,O=S1(=O)CC(Cl)C(Cl)C1,le15
9101,4-bromobenzenethiol,366.85,1,Sc1ccc(Br)cc1,le15
9102,"2-Naphthalenol, 1-nitro- (9CI)",417.45,1,O=[N+]([O-])c1c(O)ccc2ccccc12,le15
9103,"Quinaldic acid, 4-hydroxy- (8CI)",443.65,1,O=C(O)c1cc(O)c2ccccc2n1,le15
9104,"Glutamic acid, N-acetyl- (6CI,7CI)",526.85,1,CC(=O)N[C@@H](CCC(=O)O)C(=O)O,le15
9105,3-(Indol-3-yl)propionic acid,284.85,1,O=C(O)CCc1c[nH]c2ccccc12,le15
9106,"Benzeneacetic acid, alpha-cyano-, ethyl ester",410.65,1,CCOC(=O)C(C#N)c1ccccc1,le15
9107,"1,3,5-Triazin-2(1H)-one, tetrahydro-1,3-bis(hydroxymethyl)-5-ethyl-",444.55,1,CCN1CN(CO)C(=O)N(CO)C1,le15
9108,phenyl(piperidin-1-yl)methanone,418.15,1,O=C(c1ccccc1)N1CCCCC1,le15
9109,"Acetamide, N,N-dibutyl-2-fluoro-",391.45,1,CCCCN(CCCC)C(=O)CF,le15
9110,"L-Alanine, 3-((3-methyl-2-butenyl)thio)-",425.75,1,CC(C)=CCSC[C@H](N)C(=O)O,le15
9111,"2,2-diethoxy-N,N-diethylethanamine",338.15,1,CCOC(CN(CC)CC)OCC,le15
9112,"1,2-Ethanediamine, N-(2-aminoethyl)-N'-(2-((2-aminoethyl)amino)ethyl)-",458.15,1,NCCNCCNCCNCCN,le15
9113,"Benzamide, 2,6-dichloro-",388.15,1,NC(=O)c1c(Cl)cccc1Cl,le15
9114,3-(trifluoromethyl)benzoic acid,376.05,1,O=C(O)c1cccc(C(F)(F)F)c1,le15
9115,"1,4-Naphthalenedione, 5,8-dihydroxy- (9CI)",542.35,1,O=C1C=CC(=O)c2c(O)ccc(O)c21,le15
9116,"2H-1-Benzopyran-3-carboxylic acid, 2-oxo-",435.85,1,O=C(O)c1cc2ccccc2oc1=O,le15
9117,"Quinoline, 4-nitro-, 1-oxide",461.35,1,O=[N+]([O-])c1cc[n+]([O-])c2ccccc12,le15
9118,"8-Quinolinol, 5-nitro-",480.35,1,O=[N+]([O-])c1ccc(O)c2ncccc12,le15
9119,"3-Buten-2-one, 4-(3,4-(methylenedioxy)phenyl)- (6CI,7CI,8CI)",420.75,1,CC(=O)C=Cc1ccc2c(c1)OCO2,le15