smiles,compound,flashpoint,source,pure substance
CCCCCC(C)O,2-HEPTANOL,332.1,didier14,1
CCCCCCl,1-CHLOROPENTANE,286.0,didier14,1
N#CCCCC#N,GLUTARONITRILE,417.0,didier14,1
CCCCCCCCCCCCCCCC,n-HEXADECANE,408.1,didier14,1
COC(=O)C(C)C,METHYL ISOBUTYRATE,276.1,didier14,1
COC(=O)C(C)O,METHYL LACTATE,322.1,didier14,1
CCOCC(C)OC(C)=O,PROPYLENE GLYCOL ETHYL ETHER ACETATE,327.0,didier14,1
NC(=O)c1ccccc1,BENZAMIDE,430.0,didier14,1
CCC(=O)OC,METHYL PROPIONATE,271.0,didier14,1
C=CC(C)(C)C,"3,3-DIMETHYL-1-BUTENE",245.2,didier14,1
CCC(C)(C)C(C)C,"2,3,3-TRIMETHYLPENTANE",273.0,didier14,1
C=CC(C)C,3-METHYL-1-BUTENE,217.2,didier14,1
CC(C)=C(C)C,"2,3-DIMETHYL-2-BUTENE",257.1,didier14,1
CC(=O)C(C)C,METHYL ISOPROPYL KETONE,279.1,didier14,1
CCC(C)C(C)(C)C,"2,2,3-TRIMETHYLPENTANE",270.0,didier14,1
,"cis-1,8-TERPIN",410.0,didier14,1
,"trans-1,8-TERPIN",418.0,didier14,1
c1ccc2cc3c(ccc4ccccc43)cc2c1,BENZANTHRACENE,508.0,didier14,1
CCC(C)C(C)=O,3-METHYL-2-PENTANONE,285.1,didier14,1
CCC(=O)C(C)C,ETHYL ISOPROPYL KETONE,286.1,didier14,1
CC(C)C(C)C(C)C,"2,3,4-TRIMETHYLPENTANE",273.0,didier14,1
CC(C)C(=O)C(C)C,DIISOPROPYL KETONE,288.1,didier14,1
,PROPYLENE GLYCOL 1-tert-BUTYL ETHER,317.1,didier14,1
CCCCCCCCCCCCCCCCCC(=O)O,n-OCTADECANOIC ACID,476.1,didier14,1
CC(O)CO,"1,2-PROPYLENE GLYCOL",372.0,didier14,1
Cc1cccc(C)c1O,"2,6-XYLENOL",346.1,didier14,1
,ACROLEIN CYANOHYDRIN,366.0,didier14,1
Cc1ccc2cc(C)ccc2c1,"2,6-DIMETHYLNAPHTHALENE",381.0,didier14,1
Cc1ccc2ccc(C)cc2c1,"2,7-DIMETHYLNAPHTHALENE",382.0,didier14,1
CCC(C)C(C)CC,"3,4-DIMETHYLHEXANE",277.0,didier14,1
CCC(O)CC,3-PENTANOL,300.0,didier14,1
CCC(O)CO,"1,2-BUTANEDIOL",363.1,didier14,1
COCC(C)=O,METHOXYACETONE,293.0,didier14,1
CC(O)COC(C)COC(C)(C)C,1-tert-BUTOXY-2-[2-(HYDROXY)PROPOXY]PROPANE,400.0,didier14,1
CCC(C)CCO,3-METHYL-1-PENTANOL,331.1,didier14,1
CCC(C)CC(C)C,"2,4-DIMETHYLHEXANE",283.1,didier14,1
CCCC(C)CCC,4-METHYLHEPTANE,279.1,didier14,1
CCCCC(C)CC,3-METHYLHEPTANE,279.0,didier14,1
CCCCOC(=O)CC,n-BUTYL PROPIONATE,305.4,didier14,1
CC1(C)CCCCC1,"1,1-DIMETHYLCYCLOHEXANE",276.0,didier14,1
CC1(O)CCCCC1,1-METHYLCYCLOHEXANOL,338.1,didier14,1
CCCCCCC(C)CC,3-METHYLNONANE,311.0,didier14,1
CCCCC(C)=O,2-HEXANONE,296.1,didier14,1
C=CCOC(C)=O,ALLYL ACETATE,295.4,didier14,1
CC(C)CCC(C)C,"2,5-DIMETHYLHEXANE",271.0,didier14,1
CCCCCC(C)C,2-METHYLHEPTANE,277.1,didier14,1
C=CCCCC,1-HEXENE,242.0,didier14,1
C=CCCCCC,1-HEPTENE,265.1,didier14,1
CCCCCCCCCCCCCCCCCCCCCCCCCCC,n-HEPTACOSANE,475.0,didier14,1
CC(C)(O)C(=O)O,alpha-HYDROXYISOBUTYRIC ACID,396.0,didier14,1
CC(C)(C)CC(=O)O,NEOHEXANOIC ACID,352.1,didier14,1
CC(C)C(C)O,3-METHYL-2-BUTANOL,299.1,didier14,1
CCc1ccc2cc(CC)ccc2c1,"2,6-DIETHYLNAPHTHALENE",410.0,didier14,1
Nc1ccc(N=Nc2ccccc2)cc1,p-AMINOAZOBENZENE,466.0,didier14,1
OCCS,2-MERCAPTOETHANOL,340.1,didier14,1
CCOCC,DIETHYL ETHER,228.2,didier14,1
CCCC(C)O,2-PENTANOL,307.0,didier14,1
CC(N)=O,ACETAMIDE,398.0,didier14,1
c1ccc(-c2cccc3ccccc23)cc1,1-PHENYLNAPHTHALENE,435.0,didier14,1
Cc1c([N+](=O)[O-])cccc1[N+](=O)[O-],"2,6-DINITROTOLUENE",417.0,didier14,1
C=C(C)CCCC,2-METHYL-1-HEXENE,267.1,didier14,1
Cc1ccc([N+](=O)[O-])c([N+](=O)[O-])c1,"3,4-DINITROTOLUENE",453.0,didier14,1
CCc1ccccc1C,o-ETHYLTOLUENE,312.1,didier14,1
OC/C=C\CO,"cis-2-BUTENE-1,4-DIOL",401.1,didier14,1
,3-METHYL-trans-2-PENTENE,246.2,didier14,1
CCC(Cl)CCl,"1,2-DICHLOROBUTANE",297.0,didier14,1
OCC(Cl)CCl,"2,3-DICHLORO-1-PROPANOL",365.0,didier14,1
CSC(C)(C)C,METHYL t-BUTYL SULFIDE,270.1,didier14,1
COC(=O)OC,DIMETHYL CARBONATE,289.9,didier14,1
O=C(Cl)c1cccc(Cl)c1,m-CHLOROBENZOYL CHLORIDE,372.0,didier14,1
Cc1cc([N+](=O)[O-])cc([N+](=O)[O-])c1,"3,5-DINITROTOLUENE",443.0,didier14,1
Cc1cc([N+](=O)[O-])ccc1[N+](=O)[O-],"2,5-DINITROTOLUENE",438.0,didier14,1
CCCCCOCCO,2-PENTOXYETHANOL,347.0,didier14,1
O=Cc1ccc(C(=O)O)cc1,4-CARBOXYBENZALDEHYDE,548.0,didier14,1
O=C(O)C1CCC(C(=O)O)CC1,"1,4-CYCLOHEXANEDICARBOXYLIC ACID",508.1,didier14,1
CCCC(CC)CC,3-ETHYLHEXANE,279.0,didier14,1
CCc1cccc(C)c1,m-ETHYLTOLUENE,311.1,didier14,1
CC(=O)OC1CCCCC1,CYCLOHEXYL ACETATE,330.1,didier14,1
CCc1ccc(C)cc1,p-ETHYLTOLUENE,309.1,didier14,1
,TEREPHTHALDEHYDE,394.0,didier14,1
CCCC(=O)OC,METHYL n-BUTYRATE,287.0,didier14,1
COC(=O)/C=C\C(=O)OC,DIMETHYL MALEATE,386.1,didier14,1
CCSC,METHYL ETHYL SULFIDE,258.1,didier14,1
Nc1ccccc1,ANILINE,343.1,didier14,1
COCC(=O)O,METHOXYACETIC ACID,388.0,didier14,1
CC(O)CC(C)O,"2,4-PENTANEDIOL",374.1,didier14,1
CCCCC(C)O,2-HEXANOL,319.3,didier14,1
CCCC[N+](=O)[O-],1-NITROBUTANE,320.1,didier14,1
OCCCCl,1-CHLORO-3-PROPANOL,346.1,didier14,1
CCCCCC(N)=O,HEXANAMIDE,410.0,didier14,1
CCCCSC,METHYL n-BUTYL SULFIDE,289.0,didier14,1
CCCOCC,ETHYL PROPYL ETHER,247.0,didier14,1
CCCCCOC(C)=O,n-PENTYL ACETATE,296.1,didier14,1
CCCCCC#N,HEXANENITRILE,320.0,didier14,1
N#CCNCC#N,"2,2'-IMINOBIS-ACETONITRILE",413.0,didier14,1
CCOCCOCC,"1,2-DIETHOXYETHANE",300.1,didier14,1
CCCCCCCCCCCCC,n-TRIDECANE,352.0,didier14,1
CCCCCCCCCCCCCC,n-TETRADECANE,373.1,didier14,1
C=CCCCCCCCCCCCCCC,1-HEXADECENE,405.1,didier14,1
CCCCCCCCCCCCCCCCC,n-HEPTADECANE,421.1,didier14,1
CCCCCCCCCCCCCCCCCCC,n-NONADECANE,441.0,didier14,1
CCCCCCCCCCCCCCCCCCCCCCCCCCCC,n-OCTACOSANE,475.0,didier14,1
CCCCCCCCCCCCCCCCCCCCCCCCCCCCC,n-NONACOSANE,475.0,didier14,1
ClCC(Cl)(Cl)Cl,"1,1,1,2-TETRACHLOROETHANE",334.0,didier14,1
CCCCCCCCCCCCCCCCCCCCCCCCCCCCCC,n-TRIACONTANE,475.0,didier14,1
CCO,ETHANOL,286.0,didier14,1
CC(=O)O,ACETIC ACID,316.0,didier14,1
C/C=C\CCCC,cis-2-HEPTENE,265.0,didier14,1
C/C=C/CC,trans-2-PENTENE,225.0,didier14,1
,"1,2-BENZENE DICARBOXYLIC ACID, HEPTYL, UNDECYL ESTER",514.0,didier14,1
CCCCCCCCCCCOC(=O)c1ccccc1C(=O)OCCCCCCCCC,n-NONYL n-UNDECYL PHTHALATE,524.0,didier14,1
O=C(O)c1ccccc1,BENZOIC ACID,394.3,didier14,1
,"1,4-BENZENEDICARBOXYLIC ACID,BIS(2,3-DIHYDROXYPROPYL)ESTER",575.0,didier14,1
CCCCCC=O,HEXANAL,300.0,didier14,1
CO,METHANOL,284.0,didier14,1
CC(C)O,ISOPROPANOL,285.1,didier14,1
O=C(O)CS,THIOGLYCOLIC ACID,398.0,didier14,1
CN(C)C=O,"N,N-DIMETHYLFORMAMIDE",331.0,didier14,1
CC(C)C(=O)OCC(C)(C)C(OC(=O)C(C)C)C(C)C,"2,2,4-TRIMETHYL-1,3-PENTANEDIOL DIISOBUTYRATE",394.0,didier14,1
CCCOCCOCCO,DIETHYLENE GLYCOL MONOPROPYL ETHER,372.0,didier14,1
O=C(O)CC(O)C(=O)O,MALIC ACID,515.0,didier14,1
CC(C)C1CCCCC1,ISOPROPYLCYCLOHEXANE,308.1,didier14,1
O=C(O)c1ccccc1O,SALICYLIC ACID,430.0,didier14,1
CC12CC3CC(C1)CC(C)(C3)C2,"1,3-DIMETHYLADAMANTANE",325.1,didier14,1
CCC(C)C1CCCCC1,sec-BUTYLCYCLOHEXANE,319.0,didier14,1
CCCO,1-PROPANOL,291.0,didier14,1
C1CCC(SC2CCCCC2)CC1,DICYCLOHEXYL SULFIDE,393.0,didier14,1
CCCCO,1-BUTANOL,306.0,didier14,1
CCCCCO,1-PENTANOL,320.0,didier14,1
c1ccccc1,BENZENE,262.0,didier14,1
CCC(C)(C)C(C)(C)C,"2,2,3,3-TETRAMETHYLPENTANE",289.0,didier14,1
CCC(C)CC(C)(C)CC,"3,3,5-TRIMETHYLHEPTANE",301.0,didier14,1
N#CCN(CC#N)CC#N,"2,2',2''-NITRILOTRIS-ACETONITRILE",487.0,didier14,1
CC,ETHANE,138.2,didier14,1
C=C,ETHYLENE,124.0,didier14,1
CN,METHYLAMINE,215.0,didier14,1
CCC,PROPANE,169.2,didier14,1
CC#N,ACETONITRILE,275.1,didier14,1
CC=O,ACETALDEHYDE,235.0,didier14,1
CSC,DIMETHYL SULFIDE,237.2,didier14,1
CC(C)Cl,ISOPROPYL CHLORIDE,238.2,didier14,1
CC(C)N,ISOPROPYLAMINE,236.2,didier14,1
CC(C)S,ISOPROPYL MERCAPTAN,238.2,didier14,1
CC(Cl)Cl,"1,1-DICHLOROETHANE",261.1,didier14,1
C=C(Cl)Cl,"1,1-DICHLOROETHYLENE",251.2,didier14,1
C[N+](=O)[O-],NITROMETHANE,308.1,didier14,1
CC(C)(C)O,2-METHYL-2-PROPANOL,284.3,didier14,1
CC(Cl)C(C)Cl,"2,3-DICHLOROBUTANE",291.1,didier14,1
CCC(C)(C)O,2-METHYL-2-BUTANOL,293.1,didier14,1
CC(C)(O)C#N,ACETONE CYANOHYDRIN,336.1,didier14,1
O=CC(Cl)(Cl)Cl,TRICHLOROACETALDEHYDE,323.0,didier14,1
CCOC(C)COC(C)COC(C)CO,TRIPROPYLENE GLYCOL MONOETHYL ETHER,405.0,didier14,1
CC(C)(C)OO,t-BUTYL HYDROPEROXIDE,299.8,didier14,1
CC(=O)C(C)(C)C,"3,3-DIMETHYL-2-BUTANONE",285.1,didier14,1
C=CC(C)CC,3-METHYL-1-PENTENE,245.2,didier14,1
C=CC(Cl)CCl,"3,4-DICHLORO-1-BUTENE",301.1,didier14,1
CCOCCC(=O)OCC,ETHYL-3-ETHOXYPROPIONATE,331.1,didier14,1
C/C=C\CCCCC,cis-2-OCTENE,294.0,didier14,1
CCC/C=C\CCC,cis-4-OCTENE,290.0,didier14,1
C1CCC(OOC2CCCCC2)CC1,CYCLOHEXYL PEROXIDE,381.0,didier14,1
,"2-METHYL-, 3-HYDROXY-2,2,4-TRIMETHYLPENTYL PROPANOATE",379.1,didier14,1
CCC(C)(O)CC,3-METHYL-3-PENTANOL,297.1,didier14,1
COCC(C)OC,"1,2-DIMETHOXYPROPANE",273.7,didier14,1
O=C(O)CC(O)(CC(=O)O)C(=O)O,CITRIC ACID,549.0,didier14,1
CCC(CO)(CO)CO,TRIMETHYLOLPROPANE,445.1,didier14,1
CCC1(CC)CCCCC1,"1,1-DIETHYLCYCLOHEXANE",322.1,didier14,1
,TRILACTIC ACID,496.0,didier14,1
CC(C)CN,ISOBUTYLAMINE,255.3,didier14,1
CC(C)C#N,ISOBUTYRONITRILE,281.5,didier14,1
CC(C)CO,2-METHYL-1-PROPANOL,301.0,didier14,1
CCC(C)Cl,sec-BUTYL CHLORIDE,244.0,didier14,1
CC(Cl)CCl,"1,2-DICHLOROPROPANE",286.1,didier14,1
C=C(Cl)CCl,"2,3-DICHLOROPROPENE",283.1,didier14,1
CC(N)CN,"1,2-PROPANEDIAMINE",306.1,didier14,1
CCC(C)O,2-BUTANOL,296.1,didier14,1
CC(O)CN,1-AMINO-2-PROPANOL,347.0,didier14,1
CC(O)C#N,LACTONITRILE,350.1,didier14,1
CNC(C)=O,N-METHYLACETAMIDE,381.1,didier14,1
COC(C)=O,METHYL ACETATE,263.1,didier14,1
CC(=O)OO,PERACETIC ACID,313.1,didier14,1
COC(=O)Cl,METHYL CHLOROFORMATE,285.1,didier14,1
CC[N+](=O)[O-],NITROETHANE,301.0,didier14,1
CC(C)C(=O)O,ISOBUTYRIC ACID,329.1,didier14,1
O=C(Cl)C(Cl)Cl,DICHLOROACETYL CHLORIDE,339.0,didier14,1
,2-METHACRYLAMIDE,376.0,didier14,1
O=C(O)C(Cl)Cl,DICHLOROACETIC ACID,383.1,didier14,1
CC(C)[N+](=O)[O-],2-NITROPROPANE,297.1,didier14,1
CC(C)(c1ccc(O)cc1)c1ccc(O)cc1,BISPHENOL A,480.1,didier14,1
CC(C)c1ccccc1.[O-]O,CUMENE HYDROPEROXIDE,322.0,didier14,1
CC1CCC(C(C)C)CC1.[O-]O,p-MENTHANE HYDROPEROXIDE,404.0,didier14,1
C=CC(=O)OCCO,2-HYDROXYETHYL ACRYLATE,371.1,didier14,1
OC/C=C/CO,"trans-2-BUTENE-1,4-DIOL",401.1,didier14,1
CCCCCCCC(C)=O,2-NONANONE,337.1,didier14,1
Cc1c(N)cccc1N,"2,6-DIAMINOTOLUENE",419.0,didier14,1
c1ccc(C2CCCCC2)cc1,CYCLOHEXYLBENZENE,372.0,didier14,1
COC(=O)c1ccc2cc(C(=O)OC)ccc2c1,"DIMETHYL-2,6-NAPHTHALENEDICARBOXYLATE",479.0,didier14,1
c1ccc(-c2ccccc2-c2ccccc2)cc1,o-TERPHENYL,436.0,didier14,1
O=C1c2ccccc2C(=O)c2ccccc21,ANTHRAQUINONE,458.1,didier14,1
CCOC(=O)c1ccccc1C(=O)OCC,DIETHYL PHTHALATE,390.1,didier14,1
CC(C)COC(=O)c1ccccc1C(=O)OCC(C)C,DIISOBUTYL PHTHALATE,434.1,didier14,1
CCCCOC(=O)c1ccccc1C(=O)OCCCC,DI-n-BUTYL PHTHALATE,430.1,didier14,1
CCCCCCOC(=O)c1ccccc1C(=O)OCCCCCC,DI-n-HEXYL PHTHALATE,466.1,didier14,1
CCCCCCCCCOC(=O)c1ccccc1C(=O)OCCCCCCCCC,DI-n-NONYL PHTHALATE,489.1,didier14,1
CCCCCCCCCCOC(=O)c1ccccc1C(=O)OCCCCCCCCCC,DI-n-DECYL PHTHALATE,505.0,didier14,1
c1ccc2c(c1)ccc1ccccc12,PHENANTHRENE,444.0,didier14,1
C=C(C)C(=O)OCCO,2-HYDROXYETHYL METHACRYLATE,370.1,didier14,1
CCCCCc1cccc2ccccc12,1-n-PENTYLNAPHTHALENE,413.0,didier14,1
CCCCCCCC(C)C,2-METHYLNONANE,314.0,didier14,1
C=CCCCCCCCC,1-DECENE,311.0,didier14,1
Clc1cccc(Cl)c1Cl,"1,2,3-TRICHLOROBENZENE",386.0,didier14,1
Oc1cccc(O)c1O,"1,2,3-BENZENETRIOL",458.0,didier14,1
ClC(Cl)=C(Cl)C(Cl)=C(Cl)Cl,"HEXACHLORO-1,3-BUTADIENE",395.0,didier14,1
Cc1ccccc1[N+](=O)[O-],o-NITROTOLUENE,379.0,didier14,1
O=[N+]([O-])c1ccccc1Cl,o-CHLORONITROBENZENE,400.1,didier14,1
Nc1ccccc1[N+](=O)[O-],o-NITROANILINE,441.1,didier14,1
COC(C)COC(C)COC(C)=O,DIPROPYLENE GLYCOL MONOMETHYL ETHER ACETATE,359.0,didier14,1
O=C(O)c1ccccc1C(=O)O,PHTHALIC ACID,477.0,didier14,1
O=C(O)c1cc(C(=O)O)c(C(=O)O)cc1C(=O)O,PYROMELLITIC ACID,597.0,didier14,1
CCc1ccccc1O,o-ETHYLPHENOL,351.1,didier14,1
O=Cc1ccccc1O,SALICYLALDEHYDE,349.1,didier14,1
COc1ccccc1O,GUAIACOL,355.0,didier14,1
Cc1cccc2ccccc12,1-METHYLNAPHTHALENE,355.1,didier14,1
Clc1cccc2ccccc12,1-CHLORONAPHTHALENE,394.1,didier14,1
c1ccc2ccccc2c1,NAPHTHALENE,352.0,didier14,1
c1ccc2ncccc2c1,QUINOLINE,374.0,didier14,1
Cc1ccc2ccccc2c1,2-METHYLNAPHTHALENE,370.1,didier14,1
Cc1ccc2ccccc2n1,QUINALDINE,352.6,didier14,1
CCN(CC)c1ccccc1,"N,N-DIETHYLANILINE",358.1,didier14,1
C=C(C)C(=O)OCC(C)O,2-HYDROXYPROPYL METHACRYLATE,369.1,didier14,1
C1CCC(C2CCCCC2)CC1,BICYCLOHEXYL,347.1,didier14,1
CCCCCCC(=O)CC,3-NONANONE,339.1,didier14,1
CCCCCC(=O)CCCCC,DIAMYL KETONE,361.5,didier14,1
N#C/C=C\C#N,MALEONITRILE,389.0,didier14,1
Nc1ccc(-c2ccc(N)cc2)cc1,BENZIDINE,521.0,didier14,1
CC(O)OCCN,2-AMINOETHOXYETHANOL,397.0,didier14,1
c1ccc(-c2ccc(-c3ccccc3)cc2)cc1,p-TERPHENYL,480.0,didier14,1
CCc1ccc2ccccc2c1,2-ETHYLNAPHTHALENE,377.1,didier14,1
,PROPYLENE GLYCOL 2-tert-BUTYL ETHER,324.0,didier14,1
COC(=O)C1CCC(C(=O)OC)CC1,"DIMETHYL-1,4-CYCLOHEXANEDICARBOXYLATE",383.1,didier14,1
Cc1ccccc1C,o-XYLENE,290.0,didier14,1
Cc1ccccc1O,o-CRESOL,354.0,didier14,1
Clc1ccccc1Cl,o-DICHLOROBENZENE,339.0,didier14,1
Nc1ccccc1Cl,o-CHLOROANILINE,363.7,didier14,1
Cc1ccccc1N,o-TOLUIDINE,358.1,didier14,1
Oc1ccccc1Cl,o-CHLOROPHENOL,337.0,didier14,1
Cc1ccc(C)c(C)c1,"1,2,4-TRIMETHYLBENZENE",318.6,didier14,1
Cc1ccc(Cl)cc1Cl,"2,4-DICHLOROTOLUENE",369.3,didier14,1
Nc1ccc(Cl)c(Cl)c1,"3,4-DICHLOROANILINE",439.0,didier14,1
Cc1ccc(C)c(O)c1,"2,5-XYLENOL",360.0,didier14,1
CCOC(=O)C(=O)OCC,DIETHYL OXALATE,339.2,didier14,1
O=C(OCCO)c1ccc(C(=O)OCCO)cc1,BIS-(2-HYDROXYETHYL) TEREPHTHALATE,545.0,didier14,1
Cc1cc(C)c(C)cc1C,"1,2,4,5-TETRAMETHYLBENZENE",328.0,didier14,1
ClCC(Cl)CCl,"1,2,3-TRICHLOROPROPANE",347.0,didier14,1
CCC(=O)CC,3-PENTANONE,286.0,didier14,1
OC(CCl)CCl,"1,3-DICHLORO-2-PROPANOL",358.1,didier14,1
OCC(O)CCl,"3-CHLORO-1,2-PROPANEDIOL",408.1,didier14,1
COC(=O)CCl,METHYL CHLOROACETATE,324.8,didier14,1
COC(=O)CO,METHYL GLYCOLATE,339.1,didier14,1
CC1CCCC1,METHYLCYCLOPENTANE,246.0,didier14,1
O=[N+]([O-])c1ccc(Cl)c([N+](=O)[O-])c1,"1-CHLORO-2,4-DINITROBENZENE",467.0,didier14,1
CCOC(=O)C(C)C,ETHYL ISOBUTYRATE,287.0,didier14,1
CCOC(=O)C(C)O,ETHYL LACTATE,319.1,didier14,1
C=C(CC(=O)O)C(=O)O,ITACONIC ACID,488.0,didier14,1
CCC(CC)CO,2-ETHYL-1-BUTANOL,330.0,didier14,1
CC(C)(C)c1ccccc1,tert-BUTYLBENZENE,333.1,didier14,1
CC(C)(C)c1ccc(O)c(O)c1,p-tert-BUTYLCATECHOL,403.0,didier14,1
CC(C)c1ccc(C(C)C)cc1.[O-]O,p-DIISOPROPYLBENZENE HYDROPEROXIDE,465.0,didier14,1
O=[N+]([O-])c1ccccc1,NITROBENZENE,361.0,didier14,1
Cc1cccc([N+](=O)[O-])c1,m-NITROTOLUENE,375.0,didier14,1
CCC(C)(C)OC,METHYL tert-PENTYL ETHER,262.1,didier14,1
O=[N+]([O-])c1ccc(Cl)c(Cl)c1,"1,2-DICHLORO-4-NITROBENZENE",396.1,didier14,1
O=[N+]([O-])c1cccc([N+](=O)[O-])c1,m-DINITROBENZENE,423.1,didier14,1
C=CCOC(=O)/C=C\C(=O)OCC=C,DIALLYL MALEATE,393.0,didier14,1
,4-HYDROXYACETOPHENONE,447.0,didier14,1
C=CC(=O)OCC(C)O,2-HYDROXYPROPYL ACRYLATE,372.1,didier14,1
Cc1ccc([N+](=O)[O-])cc1,p-NITROTOLUENE,379.0,didier14,1
CCC,Propane,169.0,pan07,1
CCCC,Butane,213.0,pan07,1
CCCCC,Pentane,224.0,pan07,1
CC(C)(C)C,"2,2-Dimethylpropane",208.0,pan07,1
CCCCCC,Hexane,250.0,pan07,1
CCC(C)(C)C,"2,2-Dimethylbutane",225.0,pan07,1
CC(C)C(C)C,"2,3-Dimethylbutane",244.0,pan07,1
CCCCCCC,Heptane,269.0,pan07,1
CCC(C)(C)CC,"3,3-Dimethylpentane",254.0,pan07,1
CC(C)CC(C)C,"2,4-Dimethylpentane",261.0,pan07,1
CCC(CC)CC,3-Ethylpentane,255.0,pan07,1
CCCC(C)(C)C,"2,2-Dimethylpentane",250.0,pan07,1
CC(C)CC(C)(C)C,"2,2,4-Trimethylpentane",261.0,pan07,1
CCC(C)C(C)(C)C,"2,2,3-Trimethylpentane",270.0,pan07,1
CCC(C)(CC)CC,3-Methyl-3-ethylpentane,276.0,pan07,1
CCCC(CC)CC,3-Ethylhexane,278.0,pan07,1
CCCCC(C)CC,3-Methylheptane,279.0,pan07,1
CCCC(C)(C)CC,"3,3-Dimethylhexane",272.0,pan07,1
CCCC(C)C(C)C,"2,3-Dimethylhexane",283.0,pan07,1
CCC(C)CC(C)C,"2,4-Dimethylhexane",283.0,pan07,1
CC(C)CCC(C)C,"2,5-Dimethylhexane",271.0,pan07,1
CCCCCCCCC,Nonane,304.0,pan07,1
CCCC(C)C(C)CC,"3,4-Dimethylheptane",288.0,pan07,1
CCCCC(C)C(C)C,"2,3-Dimethylheptane",288.0,pan07,1
CC(C)CCCC(C)C,"2,6-Dimethylheptane",299.0,pan07,1
CCC(C)(CC)C(C)C,"2,3-Dimethyl-3-ethylpentane",288.0,pan07,1
CC(C)CCC(C)(C)C,"2,2,5-Trimethylhexane",286.0,pan07,1
CCCCCC(C)CC,3-Methyloctane,297.0,pan07,1
CC(C)C(C)C(C)(C)C,"2,2,3,4-Tetramethylpentane",284.0,pan07,1
CC(C)(C)CC(C)(C)C,"2,2,4,4-Tetramethylpentane",276.0,pan07,1
CCCC(CC)CCC,4-Ethylheptane,288.0,pan07,1
CCCCCC(C)(C)C,"2,2-Dimethylheptane",297.0,pan07,1
CCCC(C)CC(C)C,"2,4-Dimethylheptane",288.0,pan07,1
CCC(C)C(C)C(C)C,"2,3,4-Trimethylhexane",288.0,pan07,1
CCC(C)C(C)(C)CC,"3,3,4-Trimethylhexane",288.0,pan07,1
CC(C)CC(C)C(C)C,"2,3,5-Trimethylhexane",288.0,pan07,1
CCCC(C)C(C)(C)C,"2,2,3-Trimethylhexane",288.0,pan07,1
CCC(C)CC(C)CC,"3,5-Dimethylheptane",288.0,pan07,1
CCC(CC)(CC)CC,Tetraethylmethane,294.0,pan07,1
CCCCCCCCCC,Decane,319.0,pan07,1
CCCCC(CC)CCC,4-Ethyloctane,314.0,pan07,1
CCC(C)C(C)CC(C)C,"2,4,5-Trimethylheptane",304.0,pan07,1
CCCCCC(C)C(C)C,"2,3-Dimethyloctane",314.0,pan07,1
CCCCCC(C)(C)CC,"3,3-Dimethyloctane",314.0,pan07,1
CCCC(C)CC(C)CC,"3,5-Dimethyloctane",314.0,pan07,1
CCC(C)CCCC(C)C,"2,6-Dimethyloctane",314.0,pan07,1
CCCC(CC)C(C)(C)C,"3-Ethyl-2,2-dimethylhexane",311.0,pan07,1
CCC(C)(C)C(C)(C)CC,"3,3,4,4-Tetramethylhexane",304.0,pan07,1
CC(C)(C)CCC(C)(C)C,"2,2,5,5-Tetramethylhexane",304.0,pan07,1
CCC(C)C(C)(C)C(C)C,"2,3,3,4-Tetramethylhexane",304.0,pan07,1
CC(C)C(C)C(C)C(C)C,"2,3,4,5-Tetramethylhexane",304.0,pan07,1
CCC(C)(C)CC(C)(C)C,"2,2,4,4-Tetramethylhexane",304.0,pan07,1
CCC(C)CC(C)(C)CC,"3,3,5-Trimethylheptane",304.0,pan07,1
CCC(C)CC(C)C(C)C,"2,3,5-Trimethylheptane",304.0,pan07,1
CCCCC(C)(CC)CC,3-Ethyl-3-methylheptane,314.0,pan07,1
CCCC(CC)C(C)CC,4-Ethyl-3-methylheptane,314.0,pan07,1
CCCCCCCC(C)C,2-Methylnonane,314.0,pan07,1
CCCCCCCCCCC,Undecane,333.0,pan07,1
CCCCCCCCCCCC,Dodecane,344.0,pan07,1
CCCCCCCCCCCCCC,Tetradecane,372.0,pan07,1
CCCCCCCCCCCCCCCC,Hexadecane,408.0,pan07,1
CC(CC(C)(C)C)CC(C)(C)CC(C)(C)C,"2,2,4,4,6,8,8-Heptamethylnonane",368.0,pan07,1
CCC(C)C,2-Methylbutane,216.0,pan07,1
CCCC(C)C,2-Methylpentane,250.0,pan07,1
CCC(C)(C)C(C)C,"2,3,3-Trimethylpentane",273.0,pan07,1
CCCCCC(C)C,2-Methylheptane,277.0,pan07,1
CCCCC(C)(C)C,"2,2-Dimethylhexane",269.0,pan07,1
CCC(CC)C(C)(C)C,"3-Ethyl-2,2-dimethylpentane",286.0,pan07,1
CCC(C)(C)CC(C)C,"2,4,4-Trimethylhexane",288.0,pan07,1
CCCC(C)(C)CCC,"4,4-Dimethylheptane",288.0,pan07,1
CCCC(C)(C)C(C)C,"2,3,3-Trimethylhexane",288.0,pan07,1
CC(C)CC(C)CC(C)C,"2,4,6-Trimethylheptane",304.0,pan07,1
CCC(C)(C(C)C)C(C)C,"3-Ethyl-2,3,4-trimethylpentane",304.0,pan07,1
CCC(C)(C)C(C)C(C)C,"2,3,4,4-Tetramethylhexane",304.0,pan07,1
CCC(C)C(C)C(C)CC,"3,4,5-Trimethylheptane",304.0,pan07,1
CCC(C)CC(CC)CC,3-Ethyl-5-methylheptane,304.0,pan07,1
CCCCC(C)CCCC,5-Methylnonane,312.0,pan07,1
CC(C)C,2-Methylpropane,186.0,pan07,1
CCC(C)CC,3-Methylpentane,241.0,pan07,1
CCC(C)C(C)C,"2,3-Dimethylpentane",258.0,pan07,1
CCCC(C)CC,3-Methylhexane,258.0,pan07,1
CC(C)C(C)(C)C,"2,2,3-Trimethylbutane",247.0,pan07,1
CCCCCCCC,Octane,286.0,pan07,1
CC(C)(C)C(C)(C)C,"2,2,3,3-Tetramethylbutane",273.0,pan07,1
CC(C)C(C)C(C)C,"2,3,4-Trimethylpentane",273.0,pan07,1
CCC(C)C(C)CC,"3,4-Dimethylhexane",277.0,pan07,1
CCC(C)C(CC)CC,3-Ethyl-4-methylhexane,288.0,pan07,1
CCC(C)CC(C)(C)C,"2,2,4-Trimethylhexane",288.0,pan07,1
CC(C)CCCCC(C)C,"2,7-Dimethyloctane",314.0,pan07,1
CCC(C)C(C)C(C)(C)C,"2,2,3,4-Tetramethylhexane",304.0,pan07,1
CCCCCCCCCCCCC,Tridecane,352.0,pan07,1
CCCCCCCCCCCCCCC,Pentadecane,388.0,pan07,1
CCCCCl,1-Chlorobutane,262.1,caroll15,1
CC(C)CCCl,1-Chloro-3-methylbutane,289.2,caroll15,1
CCC(C)CCl,1-Chloro-2-methylbutane,283.0,caroll15,1
CCCCCCl,1-Chloropentane,284.3,caroll15,1
CC(C)(C)CCCl,"1-Chloro-3,3-dimethylbutane",292.2,caroll15,1
CCC(C)(C)CCl,"1-Chloro-2,2-dimethylbutane",292.2,caroll15,1
CCC(CC)CCl,3-(Chloromethyl)pentane,298.2,caroll15,1
CCC(CC)CCl,1-Chloro-2-ethylbutane,298.2,caroll15,1
CCCC(C)CCl,1-Chloro-2-methylpentane,298.2,caroll15,1
CCC(C)CCCl,1-Chloro-3-methylpentane,298.2,caroll15,1
CCCCCCCl,1-Chlorohexane,299.9,caroll15,1
CCCC(C)CCCl,1-Chloro-3-methylhexane,312.4,caroll15,1
CCCCCCCCl,1-Chloroheptane,314.9,caroll15,1
CCC(C)CCCCCl,1-Chloro-5-methylheptane,325.7,caroll15,1
CCCCCCCCCl,1-Chlorooctane,334.2,caroll15,1
CCCCCCCCCCCl,1-Chlorodecane,356.2,caroll15,1
CCCCCCCCCCCCl,1-Chloroundecane,367.6,caroll15,1
CCCCCCCCCCCCCl,1-Chlorododecane,377.7,caroll15,1
CCCCCCCCCCCCCCCl,1-Chlorotetradecane,403.2,caroll15,1
CCCCCCCCCCCCCCCCCl,1-Chlorohexadecane,411.3,caroll15,1
CCCCCCCCCCCCCCCCCCl,1-Chloroheptadecane,418.4,caroll15,1
CCCCCCCCCCCCCCCCCCCl,1-Chlorooctadecane,457.2,caroll15,1
CCC(Cl)CC,3-Chloropentane,283.0,caroll15,1
CCC(Cl)C(C)C,3-Chloro-2-methylpentane,294.0,caroll15,1
CC(C)CC(C)Cl,2-Chloro-4-methylpentane,294.0,caroll15,1
CCCCC(C)Cl,2-Chlorohexane,298.2,caroll15,1
CCCC(Cl)CC,3-Chlorohexane,298.2,caroll15,1