,compound,flashpoint,pure substance,smiles,source
11780,Benzoic acid,394.3,1,O=C(O)c1ccccc1,didier14
11781,1-HEXANAL,300.0,1,CCCCCC=O,didier14
11782,Isopropanol,285.1,1,CC(C)O,didier14
11783,1-Propanol,297.6,1,CCCO,didier14
11784,1-Butanol,310.5,1,CCCCO,didier14
11785,1-Pentanol,322.1,1,CCCCCO,didier14
11786,Benzene,262.0,1,c1ccccc1,didier14
11787,"Pentane, 2,2,3,3-tetramethyl-",294.6,1,CCC(C)(C)C(C)(C)C,didier14
11788,"3,3,5-Trimethylheptane",304.0,1,CCC(C)CC(C)(C)CC,didier14
11789,Dimethyl sulfide,237.2,1,CSC,didier14
11790,2-Chloropropane,238.2,1,CC(C)Cl,didier14
11791,Isopropylamine,236.2,1,CC(C)N,didier14
11792,2-Propanethiol,239.0,1,CC(C)S,didier14
11793,"Ethane, 1,1-dichloro-",263.1,1,CC(Cl)Cl,didier14
11794,tert-Butanol,284.3,1,CC(C)(C)O,didier14
11795,"2-Butanol, 2-methyl-",292.1,1,CCC(C)(C)O,didier14
11796,Pinacolone,282.1,1,CC(=O)C(C)(C)C,didier14
11797,"1-Pentene, 3-methyl-",245.2,1,C=CC(C)CC,didier14
11798,"3-Pentanol, 3-methyl-",297.1,1,CCC(C)(O)CC,didier14
11799,"1,2-Dimethoxypropane",273.1,1,COCC(C)OC,didier14
11800,2-Methyl-1-propanol,302.3,1,CC(C)CO,didier14
11801,"Butane, 2-chloro-",258.1,1,CCC(C)Cl,didier14
11802,sec-Butanol,296.1,1,CCC(C)O,didier14
11803,Methyl acetate,260.1,1,COC(C)=O,didier14
11804,2-Nonanone,345.5,1,CCCCCCCC(C)=O,didier14
11805,"1,1':2',1''-Terphenyl",436.0,1,c1ccc(-c2ccccc2-c2ccccc2)cc1,didier14
11806,"Nonane, 2-methyl-",314.0,1,CCCCCCCC(C)C,didier14
11807,1-Decene,320.1,1,C=CCCCCCCCC,didier14
11808,"Phenol, 2-ethyl-",358.1,1,CCc1ccccc1O,didier14
11809,3-Nonanone,339.1,1,CCCCCCC(=O)CC,didier14
11810,6-Undecanone,361.5,1,CCCCCC(=O)CCCCC,didier14
11811,p-Terphenyl,480.0,1,c1ccc(-c2ccc(-c3ccccc3)cc2)cc1,didier14
11812,"1,2-Dimethylbenzene",305.1,1,Cc1ccccc1C,didier14
11813,"Benzenamine, 2-methyl-",358.1,1,Cc1ccccc1N,didier14
11814,"1,2,4-TRIMETHYL BENZENE",318.6,1,Cc1ccc(C)c(C)c1,didier14
11815,"1,2,4,5-Tetramethylbenzene",346.1,1,Cc1cc(C)c(C)cc1C,didier14
11816,3-Pentanone,280.1,1,CCC(=O)CC,didier14
11817,2-Ethyl-1-butanol,326.1,1,CCC(CC)CO,didier14
11818,p-DIMETHYLAMINOBENZALDEHYDE,420.1,1,CN(C)c1ccc(C=O)cc1,didier14
11819,p-DIISOPROPYLBENZENE,354.1,1,CC(C)c1ccc(C(C)C)cc1,didier14
11820,3-METHYLUNDECANE,344.0,1,CCCCCCCCC(C)CC,didier14
11821,n-PENTADECANOIC ACID,454.0,1,CCCCCCCCCCCCCCC(=O)O,didier14
11822,DIETHYLETHANOLAMINE,321.1,1,CCN(CC)CCO,didier14
11823,STYRENE,305.0,1,C=Cc1ccccc1,didier14
11824,BENZYL CHLORIDE,333.1,1,ClCc1ccccc1,didier14
11825,BENZYLAMINE,333.1,1,NCc1ccccc1,didier14
11826,BENZONITRILE,344.1,1,N#Cc1ccccc1,didier14
11827,BENZYL ALCOHOL,366.1,1,OCc1ccccc1,didier14
11828,BENZALDEHYDE,335.1,1,O=Cc1ccccc1,didier14
11829,BENZYL MERCAPTAN,343.1,1,SCc1ccccc1,didier14
11830,NICOTINONITRILE,357.1,1,N#Cc1cccnc1,didier14
11831,ANISOLE,325.1,1,COc1ccccc1,didier14
11832,METHYL PHENYL SULFIDE,342.0,1,CSc1ccccc1,didier14
11833,m-METHYLSTYRENE,324.1,1,C=Cc1cccc(C)c1,didier14
11834,"1,4-DI-tert-BUTYLBENZENE",361.0,1,CC(C)(C)c1ccc(C(C)(C)C)cc1,didier14
11835,DIPHENYLMETHANE,403.1,1,c1ccc(Cc2ccccc2)cc1,didier14
11836,"1,3,5-TRIETHYLBENZENE",354.1,1,CCc1cc(CC)cc(CC)c1,didier14
11837,TRIPROPYLAMINE,302.0,1,CCCN(CCC)CCC,didier14
11838,TRIALLYLAMINE,304.0,1,C=CCN(CC=C)CC=C,didier14
11839,TRI-n-BUTYLAMINE,359.3,1,CCCCN(CCCC)CCCC,didier14
11840,2-ETHYLHEXYL ACETATE,344.1,1,CCCCC(CC)COC(C)=O,didier14
11841,2-ETHYLHEXYL ACRYLATE,355.1,1,C=CC(=O)OCC(CC)CCCC,didier14
11842,"1,2-DIPHENYLETHANE",402.0,1,c1ccc(CCc2ccccc2)cc1,didier14
11843,trans-STILBENE,418.0,1,C(=C/c1ccccc1)\c1ccccc1,didier14
11844,DIBENZYL ETHER,408.1,1,c1ccc(COCc2ccccc2)cc1,didier14
11845,PHENETOLE,325.0,1,CCOc1ccccc1,didier14
11846,ANETHOLE,362.1,1,CC=Cc1ccc(OC)cc1,didier14
11847,n-BUTYLBENZENE,323.1,1,CCCCc1ccccc1,didier14
11848,BENZYL FORMATE,355.0,1,O=COCc1ccccc1,didier14
11849,n-DECYLBENZENE,380.0,1,CCCCCCCCCCc1ccccc1,didier14
11850,TRIDECANAL,390.0,1,CCCCCCCCCCCCC=O,didier14
11851,p-TOLUALDEHYDE,353.0,1,Cc1ccc(C=O)cc1,didier14
11852,2-METHYL-1-UNDECANOL,392.0,1,CCCCCCCCCC(C)CO,didier14
11853,VINYL PROPIONATE,274.0,1,C=COC(=O)CC,didier14
11854,DIETHYL CARBONATE,298.1,1,CCOC(=O)OCC,didier14
11855,BUTYRIC ANHYDRIDE,355.0,1,CCCC(=O)OC(=O)CCC,didier14
11856,p-CHLOROTOLUENE,325.0,1,Cc1ccc(Cl)cc1,didier14
11857,3-OCTANONE,316.1,1,CCCCCC(=O)CC,didier14
11858,n-BUTANE,199.2,1,CCCC,didier14
11859,1-BUTENE,193.2,1,C=CCC,didier14
11860,ACROLEIN,247.2,1,C=CC=O,didier14
11861,3-CHLOROPROPENE,241.2,1,C=CCCl,didier14
11862,n-PROPYLAMINE,261.0,1,CCCN,didier14
11863,ALLYLAMINE,244.3,1,C=CCN,didier14
11864,ACRYLONITRILE,273.1,1,C=CC#N,didier14
11865,"2,2,5,5-TETRAMETHYLHEXANE",289.0,1,CC(C)(C)CCC(C)(C)C,didier14
11866,ALLYL ALCOHOL,294.0,1,C=CCO,didier14
11867,"2,6-DIMETHYLHEPTANE",299.0,1,CC(C)CCCC(C)C,didier14
11868,METHYL VINYL ETHER,217.2,1,C=COC,didier14
11869,ACETALDOXIME,313.1,1,CC=NO,didier14
11870,METHYL FORMATE,254.0,1,COC=O,didier14
11871,"2,4,4-TRIMETHYL-1-PENTENE",267.1,1,C=C(C)CC(C)(C)C,didier14
11872,"2,4,4-TRIMETHYL-2-PENTENE",272.1,1,CC(C)=CC(C)(C)C,didier14
11873,1-METHYL-2-n-PROPYLBENZENE,326.0,1,CCCc1ccccc1C,didier14
11874,1-METHYL-3-n-PROPYLBENZENE,325.0,1,CCCc1cccc(C)c1,didier14
11875,1-METHYL-4-n-PROPYLBENZENE,326.0,1,CCCc1ccc(C)cc1,didier14
11876,DI-tert-BUTYL SULFIDE,300.0,1,CC(C)(C)SC(C)(C)C,didier14
11877,2-METHYLPENTANE,238.0,1,CCCC(C)C,didier14
11878,trans-CROTONIC ACID,368.0,1,C/C=C/C(=O)O,didier14
11879,DIMETHYLETHANOLAMINE,314.1,1,CN(C)CCO,didier14
11880,VINYL ACETATE,265.0,1,C=COC(C)=O,didier14
11881,"2,4-DIMETHYLPENTANE",261.0,1,CC(C)CC(C)C,didier14
11882,n-NONYLBENZENE,372.0,1,CCCCCCCCCc1ccccc1,didier14
11883,ISOPROPYL ACETATE,275.0,1,CC(=O)OC(C)C,didier14
11884,1-METHYLVINYL ACETATE,283.0,1,C=C(C)OC(C)=O,didier14
11885,ACETIC ANHYDRIDE,322.6,1,CC(=O)OC(C)=O,didier14
11886,m-DIVINYLBENZENE,338.0,1,C=Cc1cccc(C=C)c1,didier14
11887,ETHYL ISOVALERATE,298.1,1,CCOC(=O)CC(C)C,didier14
11888,"3,5-XYLENOL",373.0,1,Cc1cc(C)cc(O)c1,didier14
11889,"2,4,6-TRIMETHYLPYRIDINE",330.1,1,Cc1cc(C)nc(C)c1,didier14
11890,"2,6-DIMETHYL-4-HEPTANOL",339.0,1,CC(C)CC(O)CC(C)C,didier14
11891,MONOCHLOROBENZENE,305.0,1,Clc1ccccc1,didier14
11892,PHENYL MERCAPTAN,346.1,1,Sc1ccccc1,didier14
11893,5-HEXEN-2-ONE,296.1,1,C=CCCC(C)=O,didier14
11894,n-BUTYLAMINE,261.0,1,CCCCN,didier14
11895,VINYLACETONITRILE,296.1,1,C=CCC#N,didier14
11896,DIVINYL ETHER,226.2,1,C=COC=C,didier14
11897,ETHYL FORMATE,253.2,1,CCOC=O,didier14
11898,DI-tert-BUTYL DISULFIDE,337.1,1,CC(C)(C)SSC(C)(C)C,didier14
11899,TETRAMETHYLETHYLENEDIAMINE,283.1,1,CN(C)CCN(C)C,didier14
11900,ISOPROPYL MYRISTATE,423.0,1,CCCCCCCCCCCCCC(=O)OC(C)C,didier14
11901,VALERONITRILE,305.0,1,CCCCC#N,didier14
11902,n-PROPYL FORMATE,270.0,1,CCCOC=O,didier14
11903,ETHYLTHIOETHANOL,350.1,1,CCSC(C)O,didier14
11904,DIETHYL DISULFIDE,313.1,1,CCSSCC,didier14
11905,DIISOBUTYLAMINE,294.1,1,CC(C)CNCC(C)C,didier14
11906,DI-n-PROPYL ETHER,294.1,1,CCCOCCC,didier14
11907,DI-n-PROPYL SULFIDE,301.0,1,CCCSCCC,didier14
11908,"3-METHYL-1,4-PENTADIENE",235.0,1,C=CC(C)C=C,didier14
11909,TRI-n-OCTYLAMINE,457.0,1,CCCCCCCCN(CCCCCCCC)CCCCCCCC,didier14
11910,n-HEPTYLAMINE,308.1,1,CCCCCCCN,didier14
11911,1-HEPTANOL,345.0,1,CCCCCCCO,didier14
11912,METHYL DODECANOATE,391.0,1,CCCCCCCCCCCC(=O)OC,didier14
11913,n-OCTYLAMINE,333.0,1,CCCCCCCCN,didier14
11914,n-OCTYL MERCAPTAN,341.1,1,CCCCCCCCS,didier14
11915,1-TETRADECENE,370.0,1,C=CCCCCCCCCCCCC,didier14
11916,DI-n-OCTYLAMINE,383.1,1,CCCCCCCCNCCCCCCCC,didier14
11917,n-NONANOIC ACID,401.0,1,CCCCCCCCC(=O)O,didier14
11918,n-HEPTYL ACETATE,340.0,1,CCCCCCCOC(C)=O,didier14
11919,n-NONYLAMINE,335.1,1,CCCCCCCCCN,didier14
11920,n-HEPTYL FORMATE,327.0,1,CCCCCCCOC=O,didier14
11921,n-UNDECANOIC ACID,421.1,1,CCCCCCCCCCC(=O)O,didier14
11922,2-PHENYL-1-PROPANOL,366.1,1,CC(CO)c1ccccc1,didier14
11923,n-DODECANE,347.0,1,CCCCCCCCCCCC,didier14
11924,DI-n-HEXYL ETHER,350.1,1,CCCCCCOCCCCCC,didier14
11925,METHYL OLEATE,450.0,1,CCCCCCCC/C=C\CCCCCCCC(=O)OC,didier14
11926,1-TRIDECANOL,394.0,1,CCCCCCCCCCCCCO,didier14
11927,OLEIC ACID,462.0,1,CCCCCCCC/C=C\CCCCCCCC(=O)O,didier14
11928,1-OCTADECANOL,450.0,1,CCCCCCCCCCCCCCCCCCO,didier14
11929,n-EICOSANE,440.0,1,CCCCCCCCCCCCCCCCCCCC,didier14
11930,ISOBUTENE,197.0,1,C=C(C)C,didier14
11931,2-METHYLBUTYRIC ACID,348.0,1,CCC(C)C(=O)O,didier14
11932,NEOHEPTANOIC ACID,366.0,1,CC(C)(C)CCC(=O)O,didier14
11933,o-TOLUIC ACID,407.0,1,Cc1ccccc1C(=O)O,didier14
11934,BENZOPHENONE,419.0,1,O=C(c1ccccc1)c1ccccc1,didier14
11935,BENZYL BENZOATE,418.1,1,O=C(OCc1ccccc1)c1ccccc1,didier14
11936,DIPHENYLAMINE,426.0,1,c1ccc(Nc2ccccc2)cc1,didier14
11937,3-PHENYL-1-PROPANOL,373.1,1,OCCCc1ccccc1,didier14
11938,n-DODECYLBENZENE,414.0,1,CCCCCCCCCCCCc1ccccc1,didier14
11939,n-TRIDECYLBENZENE,438.0,1,CCCCCCCCCCCCCc1ccccc1,didier14
11940,2-ETHYLHEXANAL,317.1,1,CCCCC(C=O)CC,didier14
11941,"2,6,8-TRIMETHYL-4-NONANONE",356.0,1,CC(C)CC(=O)CC(C)CC(C)C,didier14
11942,PROPIONIC ANHYDRIDE,336.0,1,CCC(=O)OC(=O)CC,didier14
11943,trans-CROTONALDEHYDE,281.1,1,C/C=C/C=O,didier14
11944,ISOPENTYL ACETATE,298.1,1,CC(=O)OCCC(C)C,didier14
11945,DIALLYLAMINE,284.1,1,C=CCNCC=C,didier14
11946,n-DODECYLAMINE,382.0,1,CCCCCCCCCCCCN,didier14
11947,METHACRYLONITRILE,286.0,1,C=C(C)C#N,didier14
11948,"2,6-DI-tert-BUTYL-p-CRESOL",390.1,1,Cc1cc(C(C)(C)C)c(O)c(C(C)(C)C)c1,didier14
11949,4-METHYL-1-HEPTENE,275.0,1,C=CCC(C)CCC,didier14
11950,7-METHYL-1-OCTENE,291.0,1,C=CCCCCC(C)C,didier14
11951,DINONYLPHENOL,535.0,1,CCCCCCCCCc1cccc(O)c1CCCCCCCCC,didier14
11952,METHYL t-PENTYL SULFIDE,302.0,1,CCC(C)(C)SC,didier14
11953,"2,2,3,3-TETRAMETHYLHEXANE",302.0,1,CCCC(C)(C)C(C)(C)C,didier14
11954,n-BUTYL BENZOATE,379.1,1,CCCCOC(=O)c1ccccc1,didier14
11955,CINNAMIC ACID,445.0,1,O=C(O)C=Cc1ccccc1,didier14
11956,BENZYL ACETATE,363.1,1,CC(=O)OCc1ccccc1,didier14
11957,PHENYLACETONITRILE,374.1,1,N#CCc1ccccc1,didier14
11958,p-tert-OCTYLPHENOL,406.0,1,CC(C)(C)CC(C)(C)c1ccc(O)cc1,didier14
11959,ETHYL ACRYLATE,282.1,1,C=CC(=O)OCC,didier14
11960,n-BUTYL ACRYLATE,312.0,1,C=CC(=O)OCCCC,didier14
11961,tert-OCTYL MERCAPTAN,304.0,1,CC(C)(C)CC(C)(C)S,didier14
11962,MESITYL OXIDE,301.0,1,CC(=O)C=C(C)C,didier14
11963,ETHYL t-BUTYL SULFIDE,282.0,1,CCSC(C)(C)C,didier14
11964,n-HEXYL ACETATE,310.1,1,CCCCCCOC(C)=O,didier14
11965,DI-n-BUTYL ETHER,298.1,1,CCCCOCCCC,didier14
11966,n-DECYL MERCAPTAN,371.1,1,CCCCCCCCCCS,didier14
11967,1-NONADECANOL,458.0,1,CCCCCCCCCCCCCCCCCCCO,didier14
11968,1-HEPTADECANOL,441.0,1,CCCCCCCCCCCCCCCCCO,didier14
11969,n-NONYL MERCAPTAN,351.1,1,CCCCCCCCCS,didier14
11970,n-HEXADECYLBENZENE,466.0,1,CCCCCCCCCCCCCCCCc1ccccc1,didier14
11971,n-TETRADECYLBENZENE,447.0,1,CCCCCCCCCCCCCCc1ccccc1,didier14
11972,n-HEPTADECYLBENZENE,472.0,1,CCCCCCCCCCCCCCCCCc1ccccc1,didier14
11973,"1,1,2-TRIPHENYLETHANE",441.0,1,c1ccc(CC(c2ccccc2)c2ccccc2)cc1,didier14
11974,METHYL ISOPROPYL SULFIDE,262.0,1,CSC(C)C,didier14
11975,p-PHENETIDINE,389.0,1,CCOc1ccc(N)cc1,didier14
11976,IBUPROFEN,436.0,1,CC(C)Cc1ccc(C(C)C(=O)O)cc1,didier14
11977,"cis-1,3-PENTADIENE",232.0,1,C=C/C=C\C,didier14
11978,cis-CROTONALDEHYDE,281.1,1,C/C=C\C=O,didier14
11979,"2,2-DIMETHYLOCTANE",304.0,1,CCCCCCC(C)(C)C,didier14
11980,"2,5-DIMETHYLOCTANE",306.0,1,CCCC(C)CCC(C)C,didier14
11981,2-METHYL-1-HEPTENE,283.1,1,C=C(C)CCCCC,didier14
11982,p-ISOPROPENYLSTYRENE,360.0,1,C=Cc1ccc(C(=C)C)cc1,didier14
11983,2-ETHYL-1-HEXENE,279.0,1,C=C(CC)CCCC,didier14
11984,"1,9-DECADIENE",316.0,1,C=CCCCCCCC=C,didier14
11985,"2,3-DIMETHYL-1-HEXENE",281.0,1,C=C(C)C(C)CCC,didier14
11986,"2,2-DIMETHYL-3-ETHYLPENTANE",286.0,1,CCC(CC)C(C)(C)C,didier14
11987,"1,2-DIMETHYL-3-PROPYLBENZENE",345.0,1,CCCc1cccc(C)c1C,didier14
11988,p-tert-BUTYLSTYRENE,352.0,1,C=Cc1ccc(C(C)(C)C)cc1,didier14
11989,2-ETHYL-p-XYLENE,329.0,1,CCc1cc(C)ccc1C,didier14
11990,"1,2,4-TRIMETHYL-5-ETHYLBENZENE",347.0,1,CCc1cc(C)c(C)cc1C,didier14
11991,N-ETHYL-2-METHYLALLYLAMINE,280.1,1,C=C(C)CNCC,didier14
11992,1-NONADECENE,430.0,1,C=CCCCCCCCCCCCCCCCCC,didier14
11993,ISOPROPYL BUTYL ETHER,277.0,1,CCCCOC(C)C,didier14
11994,"2,3-DIMETHYL-2,3-DIPHENYLBUTANE",412.0,1,CC(C)(c1ccccc1)C(C)(C)c1ccccc1,didier14
11995,1-ETHYL-2-ISOPROPYLBENZENE,331.0,1,CCc1ccccc1C(C)C,didier14
11996,1-METHYL-3-(METHYLETHOXY)BENZENE,339.0,1,Cc1cccc(OC(C)C)c1,didier14
11997,3-METHYLHEXANAL,303.0,1,CCCC(C)CC=O,didier14
11998,"trans-1,3-PENTADIENE",230.0,1,C=C/C=C/C,didier14
11999,trans-2-DECENE,319.0,1,C/C=C/CCCCCCC,didier14
12000,n-TETRADECYLAMINE,406.0,1,CCCCCCCCCCCCCCN,didier14
12001,n-DECYLAMINE,358.1,1,CCCCCCCCCCN,didier14
12002,"trans-1,3-HEXADIENE",254.2,1,C=C/C=C/CC,didier14
12003,ETHYL METHYL DISULFIDE,299.0,1,CCSSC,didier14
12004,cis-2-DECENE,320.0,1,C/C=C\CCCCCCC,didier14
12005,DIAMYLAMINE,325.1,1,CCCCCNCCCCC,didier14
12006,"2,6-DIMETHYLOCTANE",307.0,1,CCC(C)CCCC(C)C,didier14
12007,2-PENTANETHIOL,282.5,1,CCCC(C)S,didier14
12008,2-BUTYL-1-DECANOL,422.0,1,CCCCCCCCC(CO)CCCC,didier14
12009,n-PENTADECYLBENZENE,456.0,1,CCCCCCCCCCCCCCCc1ccccc1,didier14
12010,n-OCTYLBENZENE,380.1,1,CCCCCCCCc1ccccc1,didier14
12011,n-PROPYL METHACRYLATE,304.0,1,C=C(C)C(=O)OCCC,didier14
12012,2-METHYL-DODECAN-1-OL,404.0,1,CCCCCCCCCCC(C)CO,didier14
12013,n-PROPYL BENZOATE,371.1,1,CCCOC(=O)c1ccccc1,didier14
12014,1-TRIDECENE,352.1,1,C=CCCCCCCCCCCC,didier14
12015,DINONYL ETHER,430.0,1,CCCCCCCCCOCCCCCCCCC,didier14
12016,CETYL METHACRYLATE,452.0,1,C=C(C)C(=O)OCCCCCCCCCCCCCCCC,didier14
12017,NONYLPHENOL,411.0,1,CCCCCCCCCc1ccccc1O,didier14
12018,3-ETHYL HEPTANAL,328.0,1,CCCCC(CC)CC=O,didier14
12019,4-HYDROXYSTYRENE,377.0,1,C=Cc1ccc(O)cc1,didier14
12020,8-METHYL-1-NONENE,316.0,1,C=CCCCCCC(C)C,didier14
12021,DI-n-OCTYL SULFIDE,428.0,1,CCCCCCCCSCCCCCCCC,didier14
12022,2-ETHYL-m-XYLENE,331.0,1,CCc1c(C)cccc1C,didier14
12023,PYRIMIDINE,304.1,1,c1cncnc1,didier14
12024,2-METHYL-1-NONENE,315.0,1,C=C(C)CCCCCCC,didier14
12025,sec-BUTYL ACRYLATE,299.6,1,C=CC(=O)OC(C)CC,didier14
12026,2-METHYLOCTANOIC ACID,391.0,1,CCCCCCC(C)C(=O)O,didier14
12027,ETHYL PROPYL DISULFIDE,324.0,1,CCCSSCC,didier14
12028,1-METHYL-3-HYDROXY-6-ISOPROPYL BENZENE,378.0,1,Cc1cc(O)ccc1C(C)C,didier14
12029,1-METHYL-3-HYDROXY-5-ISOPROPYL BENZENE,383.1,1,Cc1cc(O)cc(C(C)C)c1,didier14
12030,2-METHYL-1-TRIDECANOL,422.0,1,CCCCCCCCCCCC(C)CO,didier14
12031,3-(METHYLMERCAPTO)PROPANAL,334.1,1,CSCCC=O,didier14
12032,sec-BUTYL-tert-BUTYL ETHER,276.0,1,CCC(C)OC(C)(C)C,didier14
12033,ISOBUTYL-tert-BUTYL ETHER,276.0,1,CC(C)COC(C)(C)C,didier14
12034,VINYL PIVALATE,282.1,1,C=COC(=O)C(C)(C)C,didier14
12035,3-ETHYL-1-HEXENE,274.0,1,C=CC(CC)CCC,didier14
12036,2-ETHYL-1-PENTENE,263.0,1,C=C(CC)CCC,didier14
12037,1-EICOSENE,440.0,1,C=CCCCCCCCCCCCCCCCCCC,didier14
12038,p-ETHYLSTYRENE,334.0,1,C=Cc1ccc(CC)cc1,didier14
12039,5-METHYL-1-HEXENE,257.0,1,C=CCCC(C)C,didier14
12040,3-ETHYL-1-HEPTANOL,363.0,1,CCCCC(CC)CCO,didier14
12041,DIETHYL SULFIDE,263.1,1,CCSCC,didier14
12042,1-HEXADECANOL,427.1,1,CCCCCCCCCCCCCCCCO,didier14
12043,ETHYL n-OCTYL SULFIDE,366.0,1,CCCCCCCCSCC,didier14
12044,"N,N-DIETHYLHYDROXYLAMINE",318.1,1,CCN(O)CC,didier14
12045,4-METHYL-1-HEXENE,258.0,1,C=CCC(C)CC,didier14
12046,4-METHYL-1-OCTANOL,358.0,1,CCCCC(C)CCCO,didier14
12047,6-METHYL-1-OCTANOL,360.0,1,CCC(C)CCCCCO,didier14
12048,METHYL n-PROPYL SULFIDE,270.0,1,CCCSC,didier14
12049,"1,2,3,5-TETRAETHYLBENZENE",376.0,1,CCc1cc(CC)c(CC)c(CC)c1,didier14
12050,2-BUTYL-OCTAN-1-OL,382.1,1,CCCCCCC(CO)CCCC,didier14
12051,"2,4-DIMETHYLOCTANE",304.0,1,CCCCC(C)CC(C)C,didier14
12052,3-ETHYL-1-PENTENE,256.0,1,C=CC(CC)CC,didier14
12053,trans-2-HEXENE,246.0,1,C/C=C/CCC,didier14
12054,"1,2,3-TRIETHYLBENZENE",352.0,1,CCc1cccc(CC)c1CC,didier14
12055,trans-2-EICOSENE,420.0,1,C/C=C/CCCCCCCCCCCCCCCCC,didier14
12056,"2,2,4,4,6,8,8-HEPTAMETHYLNONANE",368.1,1,CC(CC(C)(C)C)CC(C)(C)CC(C)(C)C,didier14
12057,n-OCTADECYLBENZENE,480.0,1,CCCCCCCCCCCCCCCCCCc1ccccc1,didier14
12058,4-NONANONE,335.0,1,CCCCCC(=O)CCC,didier14
12059,2-METHYLHEXANOIC ACID,375.0,1,CCCCC(C)C(=O)O,didier14
12060,2-METHYL-1-OCTENE,296.0,1,C=C(C)CCCCCC,didier14
12061,NEOPENTANE,201.0,1,CC(C)(C)C,didier14
12062,"2,2,3-TRIMETHYLBUTANE",249.0,1,CC(C)C(C)(C)C,didier14
12063,6-METHYL-1-HEPTENE,276.0,1,C=CCCCC(C)C,didier14
12064,cis-CROTONIC ACID,352.0,1,C/C=C\C(=O)O,didier14
12065,n-HEPTADECANOIC ACID,469.0,1,CCCCCCCCCCCCCCCCC(=O)O,didier14
12066,n-BUTYL NONANOATE,361.0,1,CCCCCCCCC(=O)OCCCC,didier14
12067,n-EICOSANIC ACID,490.0,1,CCCCCCCCCCCCCCCCCCCC(=O)O,didier14
12068,tert-BUTYL CHLORIDE,268.1,1,CC(C)(C)Cl,didier14
12069,sec-BUTYL MERCAPTAN,250.2,1,CCC(C)S,didier14
12070,"2,3-DIMETHYL-1,3-BUTADIENE",251.2,1,C=C(C)C(=C)C,didier14
12071,1-(4-ETHYLPHENYL)-2-(4-ETHYLPHENYL)ETHANE,409.0,1,CCc1ccc(CCc2ccc(CC)cc2)cc1,didier14
12072,2-BUTYL-NONAN-1-OL,404.0,1,CCCCCCCC(CO)CCCC,didier14
12073,"cis,trans-2,4-HEXADIENE",266.1,1,C/C=C\C=C\C,didier14
12074,"trans,trans-2,4-HEXADIENE",266.1,1,C/C=C/C=C/C,didier14
12075,TRIPHENYLMETHANE,449.0,1,c1ccc(C(c2ccccc2)c2ccccc2)cc1,didier14
12076,"1,2,3,5-TETRAMETHYLBENZENE",336.5,1,Cc1cc(C)c(C)c(C)c1,didier14
12077,o-CYMENE,326.1,1,Cc1ccccc1C(C)C,didier14
12078,o-TOLUALDEHYDE,340.1,1,Cc1ccccc1C=O,didier14
12079,UNDECYL MERCAPTAN,381.0,1,CCCCCCCCCCCS,didier14
12080,m-CYMENE,323.1,1,Cc1cccc(C(C)C)c1,didier14
12081,ISOBUTYLBENZENE,325.1,1,CC(C)Cc1ccccc1,didier14
12082,BENZYL ETHYL ETHER,332.0,1,CCOCc1ccccc1,didier14
12083,PROPYL CHLORIDE,255.4,1,CCCCl,didier14
12084,METHYL ETHYL ETHER,236.0,1,CCOC,didier14
12085,"2,2,4-TRIMETHYLPENTANE",261.0,1,CC(C)CC(C)(C)C,didier14
12086,tert-BUTYL ACETATE,287.2,1,CC(=O)OC(C)(C)C,didier14
12087,ETHYL CHLOROFORMATE,275.1,1,CCOC(=O)Cl,didier14
12088,DIISOPENTYLSULFIDE,352.0,1,CC(C)CCSCCC(C)C,didier14
12089,DI-n-BUTYL SULFIDE,331.0,1,CCCCSCCCC,didier14
12090,n-TETRADECANOIC ACID,446.0,1,CCCCCCCCCCCCCC(=O)O,didier14
12091,n-DECYL FORMATE,367.0,1,CCCCCCCCCCOC=O,didier14
12092,n-NONYL FORMATE,353.0,1,CCCCCCCCCOC=O,didier14
12093,8-METHYL-1-NONANOL,377.6,1,CC(C)CCCCCCCO,didier14
12094,METHYL n-PROPYL ETHER,232.0,1,CCCOC,didier14
12095,2-CHLOROPROPENE,239.2,1,C=C(C)Cl,didier14
12096,"3,3-DIMETHYLPENTANE",254.0,1,CCC(C)(C)CC,didier14
12097,"3,3-DIMETHYLHEXANE",272.0,1,CCCC(C)(C)CC,didier14
12098,2-METHYL-1-BUTENE,221.0,1,C=C(C)CC,didier14
12099,"2,3-DIMETHYL-1-BUTENE",255.2,1,C=C(C)C(C)C,didier14
12100,"2,3-DIMETHYLPENTANE",258.0,1,CCC(C)C(C)C,didier14
12101,n-HEXADECANOIC ACID,461.0,1,CCCCCCCCCCCCCCCC(=O)O,didier14
12102,ETHYL n-HEXYL ETHER,303.0,1,CCCCCCOCC,didier14
12103,o-ETHYLANILINE,364.1,1,CCc1ccccc1N,didier14
12104,"2,6-DIETHYLANILINE",396.1,1,CCc1cccc(CC)c1N,didier14
12105,"2,3-DIMETHYLHEXANE",278.5,1,CCCC(C)C(C)C,didier14
12106,tert-BUTYL METHACRYLATE,300.1,1,C=C(C)C(=O)OC(C)(C)C,didier14
12107,TRIPHENYLETHYLENE,474.0,1,C(=C(c1ccccc1)c1ccccc1)c1ccccc1,didier14
12108,3-METHYLHEXANE,269.0,1,CCCC(C)CC,didier14
12109,3-HEXANONE,287.1,1,CCCC(=O)CC,didier14
12110,sec-BUTYL FORMATE,274.0,1,CCC(C)OC=O,didier14
12111,4-OCTANONE,318.1,1,CCCCC(=O)CCC,didier14
12112,cis-2-BUTENE,203.0,1,C/C=C\C,didier14
12113,"2,2-DIMETHYLPENTANE",258.1,1,CCCC(C)(C)C,didier14
12114,"2,2-DIMETHYLHEXANE",269.0,1,CCCCC(C)(C)C,didier14
12115,3-METHYLBUTYRALDEHYDE,268.0,1,CC(C)CC=O,didier14
12116,n-BUTYL VALERATE,336.0,1,CCCCOC(=O)CCCC,didier14
12117,2-METHYLHEXANE,250.0,1,CCCCC(C)C,didier14
12118,"1,4-PENTADIENE",218.0,1,C=CCC=C,didier14
12119,"1,5-HEXADIENE",227.2,1,C=CCCC=C,didier14
12120,"1,4-HEXADIENE",248.2,1,C=CCC=CC,didier14
12121,n-BUTYL FORMATE,291.0,1,CCCCOC=O,didier14
12122,DIALLYL SULFIDE,319.1,1,C=CCSCC=C,didier14
12123,n-OCTADECANE,438.1,1,CCCCCCCCCCCCCCCCCC,didier14
12124,2-METHYL-2-AMINOBUTANE,257.0,1,CCC(C)(C)N,didier14
12125,"2,3,3-TRIMETHYL-1-BUTENE",256.1,1,C=C(C)C(C)(C)C,didier14
12126,"2,2,3,3-TETRAMETHYLBUTANE",278.0,1,CC(C)(C)C(C)(C)C,didier14
12127,METHYL ISOPROPYL ETHER,225.0,1,COC(C)C,didier14
12128,p-CUMYLPHENOL,433.0,1,CC(C)(c1ccccc1)c1ccc(O)cc1,didier14
12129,2-PHENYLETHANOL,369.0,1,OCCc1ccccc1,didier14
12130,LINOLEIC ACID,467.0,1,CCCCC/C=C\C/C=C\CCCCCCCC(=O)O,didier14
12131,PENTAETHYLBENZENE,393.0,1,CCc1cc(CC)c(CC)c(CC)c1CC,didier14
12132,2-METHYL-3-ETHYLPENTANE,275.0,1,CCC(CC)C(C)C,didier14
12133,o-METHYLSTYRENE,320.1,1,C=Cc1ccccc1C,didier14
12134,"1,1-DIPHENYLETHANE",402.0,1,CC(c1ccccc1)c1ccccc1,didier14
12135,DI-tert-BUTYL ETHER,270.0,1,CC(C)(C)OC(C)(C)C,didier14