,compound,flashpoint,pure substance,smiles,source
10108,"Phenol, 2-chloro-3-(1-methylethyl)-, methylcarbamate (9CI)",401.75,1,CNC(=O)Oc1cccc(C(C)C)c1Cl,le15
10109,"Benzene, (2-bromo-2-nitroethenyl)-",399.35,1,O=[N+]([O-])C(Br)=Cc1ccccc1,le15
10110,"8-Quinolinol, 5,7-dichloro-2-methyl-",439.05,1,Cc1ccc2c(Cl)cc(Cl)c(O)c2n1,le15
10111,2-Bromo-N-(4-methylphenyl)acetamide,441.85,1,Cc1ccc(NC(=O)CBr)cc1,le15
10112,"1-Triazene, 1-(4-bromophenyl)-3,3-dimethyl- (9CI)",385.25,1,CN(C)N=Nc1ccc(Br)cc1,le15
10113,"Benzoic acid, 2-hydroxy-3,5-dinitro-",446.95,1,O=C(O)c1cc([N+](=O)[O-])cc([N+](=O)[O-])c1O,le15
10114,"4-bromo-N,N-diethylaniline",398.25,1,CCN(CC)c1ccc(Br)cc1,le15
10115,"Benzeneacetic acid, alpha-hydroxy-alpha-phenyl-",488.45,1,O=C(O)C(O)(c1ccccc1)c1ccccc1,le15
10116,"Benzoic acid, 2-hydroxy-, phenylmethyl ester",410.15,1,O=C(OCc1ccccc1)c1ccccc1O,le15
10117,"Methanone, (2-hydroxy-4-methoxyphenyl)phenyl-",413.65,1,COc1ccc(C(=O)c2ccccc2)c(O)c1,le15
10118,"7H-Furo(3,2-g)(1)benzopyran-7-one, 2,5,9-trimethyl-",462.25,1,Cc1cc2cc3c(C)cc(=O)oc3c(C)c2o1,le15
10119,"Benzenamine, 4-methyl-N-(4-nitrophenyl)-",468.15,1,Cc1ccc(Nc2ccc([N+](=O)[O-])cc2)cc1,le15
10120,"Phosphine, diphenylpropyl-",423.65,1,PCCC(c1ccccc1)c1ccccc1,le15
10121,Triphenylene,482.25,1,c1ccc2c(c1)c1ccccc1c1ccccc21,le15
10122,Chrysene,482.25,1,c1ccc2c(c1)ccc1c3ccccc3ccc21,le15
10123,"Phenol, 4,4'-(1-methylethylidene)bis-",500.15,1,CC(C)(c1ccc(O)cc1)c1ccc(O)cc1,le15
10124,"Thiourea, N,N'-diphenyl-",437.85,1,S=C(Nc1ccccc1)Nc1ccccc1,le15
10125,"p-Toluenesulfonic acid, isobutyl ester",425.95,1,Cc1ccc(S(=O)(=O)OCC(C)C)cc1,le15
10126,"Benzenesulfonamide, 4-amino-N,N-diethyl-",454.25,1,CCN(CC)S(=O)(=O)c1ccc(N)cc1,le15
10127,"Phosphorodithioic acid, O-methyl S,S-dipropyl ester",404.45,1,CCCSP(=O)(OC)SCCC,le15
10128,"2,2-bis(ethylsulfonyl)propane",556.05,1,CCS(=O)(=O)C(C)(C)S(=O)(=O)CC,le15
10129,"Lauric acid, ethyl ester (8CI)",391.75,1,CCCCCCCCCCCC(=O)OCC,le15
10130,"Phosphonotrithioic acid, methyl-, dipropyl ester",409.45,1,CCCSP(C)(=S)SCCC,le15
10131,"Octanoic acid, hexyl ester",393.15,1,CCCCCCCC(=O)OCCCCCC,le15
10132,octyl hexanoate,393.15,1,CCCCCCCCOC(=O)CCCCC,le15
10133,pentadecan-1-ol,403.25,1,CCCCCCCCCCCCCCCO,le15
10134,pentadecan-2-ol,382.15,1,CCCCCCCCCCCCCC(C)O,le15
10135,"Butanoic acid, 4-(4-chloro-2-methylphenoxy)- (9CI)",464.65,1,Cc1cc(Cl)ccc1OCCCC(=O)O,le15
10136,"Acetic acid, bromo-, phenylmethyl ester",389.65,1,O=C(CBr)OCc1ccccc1,le15
10137,"Benzoic acid, p-bromo-, ethyl ester (8CI)",386.15,1,CCOC(=O)c1ccc(Br)cc1,le15
10138,ethyl 2-bromobenzoate,383.25,1,CCOC(=O)c1ccccc1Br,le15
10139,"2-(3-bromophenyl)-1,3-dioxolane",386.15,1,Brc1cccc(C2OCCO2)c1,le15
10140,ethyl 3-bromobenzoate,385.15,1,CCOC(=O)c1cccc(Br)c1,le15
10141,"Phenol, 2,4,6-trinitro-",407.05,1,O=[N+]([O-])c1cc([N+](=O)[O-])c(O)c([N+](=O)[O-])c1,le15
10142,"Salicylic acid, 4-amino-, phenyl ester (8CI)",472.75,1,Nc1ccc(C(=O)Oc2ccccc2)c(O)c1,le15
10143,"Furo(2,3-b)quinoline, 4,7-dimethoxy-",457.35,1,COc1ccc2c(OC)c3ccoc3nc2c1,le15
10144,"Furo(2,3-b)quinoline, 4,8-dimethoxy-",457.35,1,COc1c2ccoc2nc2c(OC)cccc12,le15
10145,"Benzamide, 2-hydroxy-N-(4-hydroxyphenyl)- (9CI)",439.05,1,O=C(Nc1ccc(O)cc1)c1ccccc1O,le15
10146,"Benzidine, 2-nitro-",486.85,1,Nc1ccc(-c2ccc(N)cc2[N+](=O)[O-])cc1,le15
10147,"Acetamide, N-(4'-fluoro(1,1'-biphenyl)-4-yl)- (9CI)",478.65,1,CC(=O)Nc1ccc(-c2ccc(F)cc2)cc1,le15
10148,"Acetanilide, 2-fluoro-4'-phenyl-",486.25,1,O=C(CF)Nc1ccc(-c2ccccc2)cc1,le15
10149,"Naphtho(1,2-h)quinoline",476.35,1,c1ccc2c(c1)ccc1c2ccc2cccnc21,le15
10150,"Naphtho(2,3-h)quinoline",476.35,1,c1ccc2cc3c(ccc4cccnc43)cc2c1,le15
10151,"Naphth(2,1-f)isoquinoline",486.35,1,c1ccc2c(c1)ccc1c3ccncc3ccc21,le15
10152,"Naphtho(2,1-f)quinoline",476.35,1,c1ccc2c(c1)ccc1c3cccnc3ccc21,le15
10153,"Benzenamine, 4-methoxy-N-(4-methoxyphenyl)-",423.65,1,COc1ccc(Nc2ccc(OC)cc2)cc1,le15
10154,"2-Naphthalenemethanol, alpha-(((1-methylethyl)amino)methyl)-",357.45,1,CC(C)NCC(O)c1ccc2ccccc2c1,le15
10155,"Melamine, N2,N4,N6-trichloro- (8CI)",478.55,1,ClNc1nc(NCl)nc(NCl)n1,le15
10156,"Pyrazinecarboxamide, 3,5-diamino-N-(aminoiminomethyl)-6-chloro-",606.85,1,NN=CNC(=O)c1nc(Cl)c(N)nc1N,le15
10157,"Benzoxazole, 2-(p-chlorophenyl)-",421.95,1,Clc1ccc(-c2nc3ccccc3o2)cc1,le15
10158,"4-Stilbenamine, 4'-chloro-",467.15,1,Nc1ccc(C=Cc2ccc(Cl)cc2)cc1,le15
10159,"1,3,5-Triazine-2,4-diamine, 6-chloro-N,N'-bis(1-methylethyl)-",452.55,1,CC(C)Nc1nc(Cl)nc(NC(C)C)n1,le15
10160,"1,3,5-Triazine-2,4-diamine, 6-chloro-N,N,N'-triethyl-",453.25,1,CCNc1nc(Cl)nc(N(CC)CC)n1,le15
10161,"Ether, 2-fluoroethyl (1,2,2,2-tetrachloro)ethyl",363.65,1,FCCOC(Cl)C(Cl)(Cl)Cl,le15
10162,2-bromo-2-methylpropanoyl bromide,376.15,1,CC(C)(Br)C(=O)Br,le15
10163,1-chloro-3-(trichloromethyl)benzene,375.05,1,Clc1cccc(C(Cl)(Cl)Cl)c1,le15
10164,1-chloro-2-(trichloromethyl)benzene,371.45,1,Clc1ccccc1C(Cl)(Cl)Cl,le15
10165,"1,2,4-trichloro-5-(chloromethyl)benzene",400.95,1,ClCc1cc(Cl)c(Cl)cc1Cl,le15
10166,"1,2-dichloro-4-(dichloromethyl)benzene",397.15,1,Clc1ccc(C(Cl)Cl)cc1Cl,le15
10167,"2,3-dibromopentane",327.55,1,CCC(Br)C(C)Br,le15
10168,"Pentane, 1,5-dibromo-",367.85,1,BrCCCCCBr,le15
10169,"Cyclopropanecarboxanilide, 3',4'-dichloro-",470.45,1,O=C(Nc1ccc(Cl)c(Cl)c1)C1CC1,le15
10170,"1H-Imidazol-2-amine, N-(2,6-dichlorophenyl)-4,5-dihydro-",420.05,1,Clc1cccc(Cl)c1NC1=NCCN1,le15
10171,"Benzophenone, 2,3,4-trihydroxy- (8CI)",507.05,1,O=C(c1ccccc1)c1ccc(O)c(O)c1O,le15
10172,"5H-Furo(3,2-g)(1)benzopyran-5-one, 4-methoxy-7-methyl-",455.65,1,COc1c2ccoc2cc2oc(C)cc(=O)c12,le15
10173,"4-Biphenylacetic acid, 2'-fluoro-",457.85,1,O=C(O)Cc1ccc(-c2ccccc2F)cc1,le15
10174,7H-Benz(de)anthracen-7-one,469.25,1,O=C1c2ccccc2-c2cccc3cccc1c23,le15
10175,"Phosphorodithioic acid, S-hydroxymethyl O,O-dimethyl ester, acetate",383.05,1,CC(=O)O.COP(=S)(OC)SCO,le15
10176,1-Pyrene carboxaldehyde,567.75,1,O=Cc1ccc2ccc3cccc4ccc1c2c34,le15
10177,11H-Benzo(a)fluoren-11-one,467.05,1,O=C1c2ccccc2-c2ccc3ccccc3c21,le15
10178,"Dibenzo(c,f)(2,7)naphthyridine",486.05,1,c1ccc2c(c1)ncc1cnc3ccccc3c12,le15
10179,"Phosphonothioic acid, ethyl-, O-ethyl S-phenyl ester",416.65,1,CCOP(=O)(CC)Sc1ccccc1,le15
10180,"2-Propanone, 1,1,1,3,3-pentachloro-",347.55,1,O=C(C(Cl)Cl)C(Cl)(Cl)Cl,le15
10181,"1H-Pyrido(3,4-b)indole-3-carboxylic acid, 2,3,4,9-tetrahydro-1-methyl-",522.05,1,CC1NC(C(=O)O)Cc2c1[nH]c1ccccc21,le15
10182,"Heptanedioic acid, 4-oxo-, diethyl ester",410.55,1,CCOC(=O)CCC(=O)CCC(=O)OCC,le15
10183,"diethyl piperazine-1,4-dicarboxylate",417.45,1,CCOC(=O)N1CCN(C(=O)OCC)CC1,le15
10184,"1,1':2',1''-Terphenyl",386.15,1,c1ccc(-c2ccccc2-c2ccccc2)cc1,le15
10185,"1,1':3',1''-Terphenyl",464.15,1,c1ccc(-c2cccc(-c3ccccc3)c2)cc1,le15
10186,"1,1':4',1''-Terphenyl",480.15,1,c1ccc(-c2ccc(-c3ccccc3)cc2)cc1,le15
10187,"Butanedioic acid, dibutyl ester",417.15,1,CCCCOC(=O)CCC(=O)OCCCC,le15
10188,"3H-Pyrazol-3-one, 1,2-dihydro-1,5-dimethyl-4-(1-methylethyl)-2-phenyl-",396.95,1,Cc1c(C(C)C)c(=O)n(-c2ccccc2)n1C,le15
10189,dibutan-2-yl butanedioate,382.95,1,CCC(C)OC(=O)CCC(=O)OC(C)CC,le15
10190,Dodecanedioic acid,493.15,1,O=C(O)CCCCCCCCCCC(=O)O,le15
10191,bis(3-methylbutyl) oxalate,387.45,1,CC(C)CCOC(=O)C(=O)OCCC(C)C,le15
10192,diethyl 2-(3-methylbutyl)propanedioate,382.95,1,CCOC(=O)C(CCC(C)C)C(=O)OCC,le15
10193,"Sebacic acid, dimethyl ester (8CI)",418.15,1,COC(=O)CCCCCCCCC(=O)OC,le15
10194,"Decanedioic acid, dihydrazide",538.55,1,NNC(=O)CCCCCCCCC(=O)NN,le15
10195,"Phosphorotrithioic acid, O,S,S-triethyl ester",400.85,1,CCOP(=S)(SCC)SCC,le15
10196,1-heptylsulfanylheptane,422.05,1,CCCCCCCSCCCCCCC,le15
10197,"2,3,4,5,6-pentafluorobenzoyl chloride",322.85,1,O=C(Cl)c1c(F)c(F)c(F)c(F)c1F,le15
10198,"Benzoyl chloride, 3,5-dinitro-",431.95,1,O=C(Cl)c1cc([N+](=O)[O-])cc([N+](=O)[O-])c1,le15
10199,"2H-1,2,4-Benzothiadiazine, 7-chloro-3-methyl-, 1,1-dioxide",477.85,1,CC1=Nc2ccc(Cl)cc2S(=O)(=O)N1,le15
10200,"Pyridine, 2-chloro-6-(trichloromethyl)-",408.05,1,Clc1cccc(C(Cl)(Cl)Cl)n1,le15
10201,"Benzenamine, 2,3,5,6-tetrachloro- (9CI)",407.85,1,Nc1c(Cl)c(Cl)cc(Cl)c1Cl,le15
10202,2-(2-carbonochloridoyloxyethoxy)ethyl carbonochloridate,391.35,1,O=C(Cl)OCCOCCOC(=O)Cl,le15
10203,"Benzaldehyde, 3-bromo-4-hydroxy-5-methoxy-",402.05,1,COc1cc(C=O)cc(Br)c1O,le15
10204,"Ethane, 1,1'-oxybis(2-(2-chloroethoxy)- (9CI)",381.85,1,ClCCOCCOCCOCCCl,le15
10205,"Bicyclo(2.2.1)heptan-2-one, 3-bromo-1,7,7-trimethyl-",308.95,1,CC12CCC(C(Br)C1=O)C2(C)C,le15
10206,"Benzimidazole, 5-nitro-2-(trifluoromethyl)-",446.65,1,O=[N+]([O-])c1ccc2nc(C(F)(F)F)[nH]c2c1,le15
10207,"3-Isoxazolecarboxylic acid, 5-methyl-, 2-(phenylmethyl)hydrazide",465.55,1,Cc1cc(C(=O)NNCc2ccccc2)no1,le15
10208,"Benzeneethanamine, N-ethyl-alpha-methyl-3-(trifluoromethyl)- (9CI)",373.95,1,CCNC(C)Cc1cccc(C(F)(F)F)c1,le15
10209,"Pyridine, 2,6-diphenyl-",439.55,1,c1ccc(-c2cccc(-c3ccccc3)n2)cc1,le15
10210,"2H-1-Benzopyran-2-one, 7-(diethylamino)-4-methyl-",425.15,1,CCN(CC)c1ccc2c(C)cc(=O)oc2c1,le15
10211,"Benzenesulfonamide, 4-amino-N-(aminothioxomethyl)- (9CI)",503.55,1,NC(=S)NS(=O)(=O)c1ccc(N)cc1,le15
10212,"3H-Pyrazol-3-one, 4-(dimethylamino)-1,2-dihydro-1,5-dimethyl-2-phenyl-",399.05,1,Cc1c(N(C)C)c(=O)n(-c2ccccc2)n1C,le15
10213,"Butanenitrile, 4-(triethoxysilyl)-",388.85,1,CCO[Si](CCCC#N)(OCC)OCC,le15
10214,2-Amino-4'-chlorobenzophenone,480.85,1,Nc1ccccc1C(=O)c1ccc(Cl)cc1,le15
10215,"Phenol, 2,3,4,6-tetrachloro-",388.85,1,Oc1c(Cl)cc(Cl)c(Cl)c1Cl,le15
10216,"Phenol, 2,3,5,6-tetrachloro-",384.85,1,Oc1c(Cl)c(Cl)cc(Cl)c1Cl,le15
10217,"Phenol, 2,3,4,5-tetrachloro-",401.95,1,Oc1cc(Cl)c(Cl)c(Cl)c1Cl,le15
10218,"Acetamide, N-(4-bromophenyl)-2-fluoro- (9CI)",447.45,1,O=C(CF)Nc1ccc(Br)cc1,le15
10219,"2-iodo-1,3-dimethylbenzene",375.15,1,Cc1cccc(C)c1I,le15
10220,"2,2,3,3,4,4,5,5-octafluoropentan-1-ol",348.75,1,OCC(F)(F)C(F)(F)C(F)(F)C(F)F,le15
10221,"Benzenamine, N,N-bis(2-chloroethyl)-4-methyl- (9CI)",430.65,1,Cc1ccc(N(CCCl)CCCl)cc1,le15
10222,"Succinimide, 2-methylene-N-(m-nitrophenyl)-",479.35,1,C=C1CC(=O)N(c2cccc([N+](=O)[O-])c2)C1=O,le15
10223,"Urea, 1,1-dimethyl-3-(alpha,alpha,alpha-trifluoro-m-tolyl)-",423.15,1,CN(C)C(=O)Nc1cccc(C(F)(F)F)c1,le15
10224,"1,6-Pyrenequinone",450.95,1,O=c1ccc2ccc3c(=O)ccc4ccc1c2c43,le15
10225,"1,8-Pyrenequinone",450.95,1,O=c1ccc2ccc3ccc(=O)c4ccc1c2c34,le15
10226,"2,4,6(1H,3H,5H)-Pyrimidinetrione, 5-ethyl-5-phenyl-",284.15,1,CCC1(c2ccccc2)C(=O)NC(=O)NC1=O,le15
10227,"2,6-Piperidinedione, 3-(4-aminophenyl)-3-ethyl-",503.55,1,CCC1(c2ccc(N)cc2)CCC(=O)NC1=O,le15
10228,"Acetamide, N-(2-(5-methoxy-1H-indol-3-yl)ethyl)- (9CI)",537.15,1,COc1ccc2[nH]cc(CCNC(C)=O)c2c1,le15
10229,"Phosphonodithioic acid, ethyl-, O-methyl S-phenyl ester",413.05,1,CCP(=S)(OC)Sc1ccccc1,le15
10230,"Urea, N-(2-methylcyclohexyl)-N'-phenyl- (9CI)",394.65,1,CC1CCCCC1NC(=O)Nc1ccccc1,le15
10231,"Phosphorodithioic acid, O,O-dimethyl S-2-(methylthio)ethyl ester",397.05,1,COP(=S)(OC)SCCSC,le15
10232,"1,3,5-Triazine-2,4,6(1H,3H,5H)-trione, 1,3,5-trichloro-",498.15,1,O=c1n(Cl)c(=O)n(Cl)c(=O)n1Cl,le15
10233,ethenyl-tri(propan-2-yloxy)silane,359.75,1,C=C[Si](OC(C)C)(OC(C)C)OC(C)C,le15
10234,Undecylbenzene,417.0,1,CCCCCCCCCCCc1ccccc1,le15
10235,"1H,3H-Naphtho(1,8-cd)pyran-1,3-dione, 6-chloro-",481.45,1,O=C1OC(=O)c2ccc(Cl)c3cccc1c23,le15
10236,2biphenylyl2chloroethylether,433.15,1,ClC(COCC(Cl)c1ccccc1-c1ccccc1)c1ccccc1-c1ccccc1,le15
10237,1-chlorotetradecane,403.15,1,CCCCCCCCCCCCCCCl,le15
10238,"(E)-2,3-dichloro-1,1,1,4,4,4-hexafluorobut-2-ene",276.35,1,FC(F)(F)/C(Cl)=C(\Cl)C(F)(F)F,le15
10239,"Phosphonic acid, ethenyl-, bis(2-chloroethyl) ester",438.65,1,C=CP(=O)(OCCCl)OCCCl,le15
10240,"2,3,5,6-Tetrafluoro-4-aminobenzotrifluoride",341.05,1,Nc1c(F)c(F)c(C(F)(F)F)c(F)c1F,le15
10241,"5-bromo-1,2-dihydroacenaphthylene",435.45,1,Brc1ccc2c3c(cccc13)CC2,le15
10242,1-bromo-2-phenylbenzene,406.85,1,Brc1ccccc1-c1ccccc1,le15
10243,"1,1'-Biphenyl, 3-bromo-",408.75,1,Brc1cccc(-c2ccccc2)c1,le15
10244,"Urea, N'-(3,4-dichlorophenyl)-N,N-dimethyl-",459.85,1,CN(C)C(=O)Nc1ccc(Cl)c(Cl)c1,le15
10245,"1,2,4-Triazin-3-amine, 6-(2-(5-nitro-2-furanyl)ethenyl)- (9CI)",525.95,1,Nc1ncc(C=Cc2ccc([N+](=O)[O-])o2)nn1,le15
10246,"2,2':6',2''-Terpyridine",455.65,1,c1ccc(-c2cccc(-c3ccccn3)n2)nc1,le15
10247,"2-Piperidineacetic acid, alpha-phenyl-, methyl ester",425.15,1,COC(=O)C(c1ccccc1)C1CCCCN1,le15
10248,"Sulfanilyl chloride, N-acetyl- (6CI,7CI,8CI)",485.05,1,CC(=O)Nc1ccc(S(=O)(=O)Cl)cc1,le15
10249,1-iodo-2-methoxybenzene,371.65,1,COc1ccccc1I,le15
10250,"Benzenemethanol, 2-iodo-",401.35,1,OCc1ccccc1I,le15
10251,1-iodo-4-methoxybenzene,368.25,1,COc1ccc(I)cc1,le15
10252,"2,3,5,6-Tetrafluoro-4-(trifluoromethyl)phenol",326.15,1,Oc1c(F)c(F)c(C(F)(F)F)c(F)c1F,le15
10253,"Carbamic acid, N-methyl-, 3,4-dichlorobenzyl ester",439.35,1,CNC(=O)OCc1ccc(Cl)c(Cl)c1,le15
10254,"1,2,3,4-Butanetetracarboxylic acid",415.85,1,O=C(O)CC(C(=O)O)C(CC(=O)O)C(=O)O,le15
10255,"2-Benzothiazolamine, 6-(trifluoromethoxy)-",406.15,1,Nc1nc2ccc(OC(F)(F)F)cc2s1,le15
10256,"trimethyl 2-hydroxypropane-1,2,3-tricarboxylate",352.35,1,COC(=O)CC(O)(CC(=O)OC)C(=O)OC,le15
10257,"Ethanol, 2,2'-(1,2-ethanediylbis(oxy))bis-, diacetate",447.15,1,CC(=O)O.CC(=O)O.OCCOCCOCCO,le15
10258,"Tartaric acid, diisopropyl ester",382.55,1,CC(C)OC(=O)C(O)C(O)C(=O)OC(C)C,le15
10259,"Benzeneacetic acid, alpha-cyclohexyl-alpha-hydroxy- (9CI)",488.25,1,O=C(O)C(O)(c1ccccc1)C1CCCCC1,le15
10260,"Benzo(b)naphtho(1,2-d)thiophene",436.15,1,c1ccc2c(c1)ccc1sc3ccccc3c12,le15
10261,"Benzo(b)naphtho(2,1-d)thiophene (8CI)(9CI)",436.15,1,c1ccc2c(c1)ccc1c3ccccc3sc21,le15
10262,"1H-Cyclopentapyrimidine-2,4(3H,5H)-dione, 6,7-dihydro-3-cyclohexyl-",475.55,1,O=c1[nH]c2c(c(=O)n1C1CCCCC1)CCC2,le15
10263,"Phenanthrene, 7-isopropyl-1-methyl- (8CI)",450.962,1,Cc1cccc2c1ccc1cc(C(C)C)ccc12,le15
10264,"2-Propenoic acid, 3-(trimethoxysilyl)propyl ester",355.45,1,C=CC(=O)OCCC[Si](OC)(OC)OC,le15
10265,"Acetamide, 2-(diethylamino)-N-(2,6-dimethylphenyl)-",439.15,1,CCN(CC)CC(=O)Nc1c(C)cccc1C,le15
10266,"Phenol, 2,4-bis(1,1-dimethylpropyl)-",416.15,1,CCC(C)(C)c1ccc(O)c(C(C)(C)CC)c1,le15
10267,"Phenol, 2,6-di-tert-butyl-4-ethyl- (8CI)",378.15,1,CCc1cc(C(C)(C)C)c(O)c(C(C)(C)C)c1,le15
10268,"Phosphine sulfide, tributyl-",409.65,1,CCCCP(=S)(CCCC)CCCC,le15
10269,"7,14-Methano-2H,6H-dipyrido(1,2-a:1',2'-e)(1,5)diazocine, dodecahydro-",421.45,1,C1CCN2CC3CC(CN4CCCCC34)C2C1,le15
10270,"Silane, pentyltriethoxy-",351.05,1,CCCCC[Si](OCC)(OCC)OCC,le15
10271,"Propanoic acid, 2-(2,4-dichlorophenoxy)-",437.65,1,CC(Oc1ccc(Cl)cc1Cl)C(=O)O,le15
10272,"Acetic acid, (2,4-dichlorophenoxy)-, methyl ester",397.25,1,COC(=O)COc1ccc(Cl)cc1Cl,le15
10273,"Adenosine, 2',3'-dideoxy-",553.05,1,Nc1ncnc2c1ncn2[C@H]1CC[C@@H](CO)O1,le15
10274,"1,4-Oxathiin-3-carboxamide, 5,6-dihydro-2-methyl-N-phenyl-",481.35,1,CC1=C(C(=O)Nc2ccccc2)SCCO1,le15
10275,"Carbamic acid, methyl-, 3,5-diisopropylphenyl ester",406.95,1,CNC(=O)Oc1cc(C(C)C)cc(C(C)C)c1,le15
10276,"Benzamide, 4-amino-N-(2-(diethylamino)ethyl)- (9CI)",482.05,1,CCN(CC)CCNC(=O)c1ccc(N)cc1,le15
10277,"1,3,5-trichloro-2,4,6-trifluorobenzene",375.35,1,Fc1c(Cl)c(F)c(Cl)c(F)c1Cl,le15
10278,"Butylamine, 4-(triethoxysilyl)-",378.25,1,CCO[Si](CCCCN)(OCC)OCC,le15
10279,"Benzenesulfonyl chloride, 2-methyl-5-nitro- (9CI)",450.25,1,Cc1ccc([N+](=O)[O-])cc1S(=O)(=O)Cl,le15
10280,"Benzene, 1,4-dibromo-",362.45,1,Brc1ccc(Br)cc1,le15
10281,"Benzene, o-dibromo- (8CI)",368.65,1,Brc1ccccc1Br,le15
10282,2-Fluoro-4-bromo-6-nitrophenol,372.95,1,O=[N+]([O-])c1cc(Br)cc(F)c1O,le15
10283,"Benzoic acid, 2,5-dichloro-3-nitro-",448.65,1,O=C(O)c1cc(Cl)cc([N+](=O)[O-])c1Cl,le15
10284,"1,1,1,3,3,3-hexafluoro-2-(trifluoromethyl)propan-2-ol",278.25,1,OC(C(F)(F)F)(C(F)(F)F)C(F)(F)F,le15
10285,"1,2,3,4,5-pentafluoro-6-(trifluoromethyl)benzene",293.15,1,Fc1c(F)c(F)c(C(F)(F)F)c(F)c1F,le15
10286,"9,10-Anthracenedione, 2-ethyl-",428.55,1,CCc1ccc2c(c1)C(=O)c1ccccc1C2=O,le15
10287,"5H-Dibenz(b,f)azepine-5-carboxamide",475.55,1,NC(=O)N1c2ccccc2C=Cc2ccccc21,le15
10288,"Propane, 1,2-dibromo-3-chloro-",350.15,1,ClCC(Br)CBr,le15
10289,"Benzoic acid, 4-amino-, 2-(diethylamino)ethyl ester",452.95,1,CCN(CC)CCOC(=O)c1ccc(N)cc1,le15
10290,"Silane, trimethoxy(3-(oxiranylmethoxy)propyl)-",355.05,1,CO[Si](CCCOCC1CO1)(OC)OC,le15
10291,"1,1,3-trimethyl-3-phenyl-2H-indene",429.65,1,CC1(C)CC(C)(c2ccccc2)c2ccccc21,le15
10292,"Benzenemethanol, 3,5-bis(1,1-dimethylethyl)-4-hydroxy-",404.35,1,CC(C)(C)c1cc(CO)cc(C(C)(C)C)c1O,le15
10293,Di(morpholin-4-yl) disulphide,427.15,1,C1CN(SSN2CCOCC2)CCO1,le15
10294,5-cyclohexylpentylcyclohexane,412.35,1,C1CCC(CCCCCC2CCCCC2)CC1,le15
10295,"Trisiloxane, 1,1,1,3,3,5,5,5-octamethyl-",302.15,1,C[Si](C)(C)O[Si](C)(C)O[Si](C)(C)C,le15
10296,"Ethane, hexachloro-",334.45,1,ClC(Cl)(Cl)C(Cl)(Cl)Cl,le15
10297,"Urea, 3-(p-chlorophenyl)-1-methyl-1-(1-methyl-2-propynyl)-",465.75,1,C#CC(C)N(C)C(=O)Nc1ccc(Cl)cc1,le15
10298,"3,5-dibromopyridine",357.45,1,Brc1cncc(Br)c1,le15
10299,"Benzene, 1,5-dichloro-2,4-dinitro-",431.15,1,O=[N+]([O-])c1cc([N+](=O)[O-])c(Cl)cc1Cl,le15
10300,"Benzene, 1,2-dichloro-4,5-dinitro-",440.05,1,O=[N+]([O-])c1cc(Cl)c(Cl)cc1[N+](=O)[O-],le15
10301,"Dibenzofuran, 2,8-dichloro- (8CI)(9CI)",442.45,1,Clc1ccc2oc3ccc(Cl)cc3c2c1,le15
10302,"Benzene, 1,1'-methylenebis(4-chloro-",412.95,1,Clc1ccc(Cc2ccc(Cl)cc2)cc1,le15
10303,"9,10-Anthracenedione, 1-amino-2-methyl-",517.95,1,Cc1ccc2c(c1N)C(=O)c1ccccc1C2=O,le15
10304,"Acetamide, N-(9-oxo-9H-fluoren-2-yl)- (9CI)",490.15,1,CC(=O)Nc1ccc2c(c1)C(=O)c1ccccc1-2,le15
10305,"Benzoic acid, 4-(acetylamino)-2-ethoxy-, methyl ester",484.65,1,CCOc1cc(NC(C)=O)ccc1C(=O)OC,le15
10306,"Carbamic acid, methyl-, o-(4-methyl-1,3-dioxolan-2-yl)phenyl ester",424.75,1,CNC(=O)Oc1ccccc1C1OCC(C)O1,le15
10307,"5H-Dibenzo(a,d)cycloheptene-5-carboxamide, 10,11-dihydro-",492.35,1,NC(=O)C1c2ccccc2CCc2ccccc21,le15
10308,"Propane, 1,2,2-trichloropentafluoro-",277.55,1,FC(F)(F)C(Cl)(Cl)C(F)(F)Cl,le15
10309,"1,1,1-trichloro-2,2,3,3,3-pentafluoropropane",276.15,1,FC(F)(F)C(F)(F)C(Cl)(Cl)Cl,le15
10310,"4,5-Isoxazoledione, 3-methyl-, 4-((o-chlorophenyl)hydrazone)",421.55,1,CC1=NOC(=O)C1=NNc1ccccc1Cl,le15
10311,"1,1,1,2,2,3,3,4,4,4-decafluorobutane",277.35,1,FC(F)(F)C(F)(F)C(F)(F)C(F)(F)F,le15
10312,"9,10-Anthracenedione, 1,5-diamino-",560.75,1,Nc1cccc2c1C(=O)c1cccc(N)c1C2=O,le15
10313,"9,10-Anthracenedione, 2,6-diamino-",560.75,1,Nc1ccc2c(c1)C(=O)c1ccc(N)cc1C2=O,le15
10314,"9,10-Anthracenedione, 1,4-diamino-",556.05,1,Nc1ccc(N)c2c1C(=O)c1ccccc1C2=O,le15
10315,"9,10-Anthracenedione, 1,2-diamino-",558.85,1,Nc1ccc2c(c1N)C(=O)c1ccccc1C2=O,le15
10316,"2-Propenoic acid, 3-phenyl-, phenylmethyl ester",498.85,1,O=C(C=Cc1ccccc1)OCc1ccccc1,le15
10317,"2-Propen-1-one, 1-(4-methoxyphenyl)-3-phenyl-",453.65,1,COc1ccc(C(=O)C=Cc2ccccc2)cc1,le15
10318,"2-Propen-1-ol, 3-phenyl-, benzoate",449.25,1,O=C(OCC=Cc1ccccc1)c1ccccc1,le15
10319,2butoxyethylsalicylate,430.35,1,CCCCOCCOc1ccccc1C(=O)[O-],le15
10320,"7H-Pyrrolo(2,3-d)pyrimidin-4-amine, 2-methyl-N-(phenylmethyl)-",458.45,1,Cc1nc(NCc2ccccc2)c2cc[nH]c2n1,le15
10321,"1,5-diphenylpentan-3-one",426.85,1,O=C(CCc1ccccc1)CCc1ccccc1,le15
10322,"Ergoline, 8,9-didehydro-6,8-dimethyl-",482.45,1,CC1=C[C@@H]2c3cccc4[nH]cc(c34)C[C@H]2N(C)C1,le15
10323,"(2,3-dimethyl-3-phenylbutan-2-yl)benzene",415.85,1,CC(C)(c1ccccc1)C(C)(C)c1ccccc1,le15
10324,1-chloro-3-iodobenzene,374.85,1,Clc1cccc(I)c1,le15
10325,"Benzene, 1-chloro-4-iodo-",381.15,1,Clc1ccc(I)cc1,le15
10326,1-chloro-2-iodobenzene,384.85,1,Clc1ccccc1I,le15
10327,3-Methylcyclopentadecan-1-one,418.45,1,CC1CCCCCCCCCCCCC(=O)C1,le15
10328,"11-Hexadecenal, (11Z)-",334.25,1,CCCC/C=C\CCCCCCCCCC=O,le15
10329,dodecylcyclopentane,408.95,1,CCCCCCCCCCCCC1CCCC1,le15
10330,"Octane, 1-((3-chloropropyl)sulfinyl)- (9CI)",450.25,1,CCCCCCCCS(=O)CCCCl,le15
10331,"Benzoyl chloride, m-(chlorosulfonyl)- (7CI,8CI)",434.95,1,O=C(Cl)c1cccc(S(=O)(=O)Cl)c1,le15
10332,Sebacoyl chloride (8CI),424.55,1,O=C(Cl)CCCCCCCCC(=O)Cl,le15
10333,"1,4-Benzenedicarboxylic acid, 2-nitro-, dimethyl ester",433.35,1,COC(=O)c1ccc(C(=O)OC)c([N+](=O)[O-])c1,le15
10334,"9,10-Anthracenedione, 1-amino-4-hydroxy-",535.85,1,Nc1ccc(O)c2c1C(=O)c1ccccc1C2=O,le15