smiles,compound,flashpoint,source,pure substance
CC=O,Acetaldehyde,235.15,hazardous materials,1
CC(C)=O,Acetone,255.15,hazardous materials,1
C=CC=O,Acrolein,247.15,hazardous materials,1
C=CCN,Allyl amine,244.15,hazardous materials,1
C=CCCl,Allyl chloride,241.15,hazardous materials,1
CCCC,n-Butane,213.15,hazardous materials,1
C=CCC,1-Butene,193.15,hazardous materials,1
S=C=S,Carbon disulphide,243.15,hazardous materials,1
FC(F)=C(F)Cl,Chlorotrifluoroethylene,246.15,hazardous materials,1
C1CCCCC1,Cyclohexane,253.15,hazardous materials,1
C1=COCCC1,"3,4-Dihydro-2H-pyran ",255.15,hazardous materials,1
CC(C)OC(C)C,Diisopropyl ether,245.15,hazardous materials,1
COCOC,Dimethoxymethane,255.15,hazardous materials,1
CCC(C)(C)C,"2,2-Dimethyl butane ",225.15,hazardous materials,1
CC(C)C(C)C,"2,3-Dimethyl butane ",244.15,hazardous materials,1
CC1CO1,"1,2-Epoxy-propane ",236.15,hazardous materials,1
CCCl,Ethyl chloride,223.15,hazardous materials,1
CCOCC,Ethyl ether,228.15,hazardous materials,1
CCOC=O,Ethyl formate,253.15,hazardous materials,1
CCOC,Ethyl methyl ether,236.15,hazardous materials,1
CCON=O,Ethyl nitrite,238.15,hazardous materials,1
C=CCC=CC,"1,4-Hexadiene ",252.15,hazardous materials,1
CCCCCC,Hexane,251.15,hazardous materials,1
C#N,Hydrocyanic acid,255.15,hazardous materials,1
C=CC(=C)C,Isoprene,219.15,hazardous materials,1
COC,Methyl ether,232.15,hazardous materials,1
CCOC,Methyl ethyl ether,236.15,hazardous materials,1
COC=O,Methyl formate,254.15,hazardous materials,1
Cc1ccco1,2-Methyl furan,243.15,hazardous materials,1
C=COC,Methyl vinyl ether,222.15,hazardous materials,1
CCCCC,n-Pentane,224.15,hazardous materials,1
CCC(C)C,iso-Pentane,222.15,hazardous materials,1
C=CC=CC,Piperylene,230.15,hazardous materials,1
CCCN,Propylamine,236.15,hazardous materials,1
CC(C)N,iso-Propylamine,236.15,hazardous materials,1
C=CC,Propylene,165.14999999999995,hazardous materials,1
CC(C)OC(C)C,iso-Propyl ether,245.15,hazardous materials,1
C=CCl,Vinyl chloride,195.15,hazardous materials,1
C=C,Ethylene,137.14999999999998,le15,1
CC,Ethane,137.99999999999997,le15,1
CN,Methylamine,211.0,le15,1
CO,Methanol,284.261,le15,1
C#CC,1propyne,185.15,le15,1
CC#N,Acetonitrile,275.15,le15,1
N#CN,Cyanamide,274.35,le15,1
C=CC,Propene,165.14999999999995,le15,1
C1CC1,Cyclopropane,177.99999999999997,le15,1
C=CC,Propene,164.99999999999997,le15,1
CCC,propane,169.14999999999995,le15,1
NC=O,Formamide,448.15,le15,1
CCN,Monoethylamine,256.15,le15,1
CNC,Dimethylamine,255.0,le15,1
CCN,Ethylamine,256.0,le15,1
O=CO,Formicacid,342.0,le15,1
CNN,"Hydrazine, methyl-",294.15,le15,1
COO,Methyl hydroperoxide,274.25,le15,1
CS,Methanethiol,255.0,le15,1
CCC#N,Propiononitrile,279.15,le15,1
C#CCO,2propyn1ol,306.0,le15,1
N#CCN,2-aminoacetonitrile,326.25,le15,1
C/C=C\C,(Z)-but-2-ene,200.35,le15,1
C=CCC,1butene,193.0,le15,1
C1CCC1,Cyclobutane,208.0,le15,1
C=C(C)C,Isobutene,197.0,le15,1
N#CCO,"Acetonitrile, hydroxy-",329.25,le15,1
NC1CC1,Cyclopropanamine,274.15,le15,1
C=CCN,2-Propen-1-amine,245.15,le15,1
NC1CC1,Cyclopropylamine,248.0,le15,1
C1COC1,Trimethylene oxide (8CI),253.15,le15,1
C=CCO,2propene1ol,294.0,le15,1
CC1CO1,PropyleneOxide,236.0,le15,1
CC=NO,"Acetaldehyde, oxime",313.15,le15,1
CCCN,propylamine,247.0,le15,1
CN(C)C,Trimethylamine,267.0,le15,1
NNC=O,Hydrazinecarboxaldehyde,385.15,le15,1
CC(C)O,Isopropyl alcohol,284.81699999999995,le15,1
CN(C)N,"Hydrazine, 1,1-dimethyl-",274.25,le15,1
C1CS1,Ethylene sulfide,283.15,le15,1
C[N+](=O)[O-],"Methane, nitro-",308.15,le15,1
NCCO,"Ethanol, 2-amino-",366.45,le15,1
O=C(O)O,carbonic acid,442.95,le15,1
CCOO,"Hydroperoxide, ethyl",284.45,le15,1
OCCO,Ethylene glycol,381.35,le15,1
C=CCl,"Ethylene, chloro-",255.35,le15,1
OCCF,"Ethanol, 2-fluoro-",304.25,le15,1
C=C(C)C#N,"2-Propenenitrile, 2-methyl-",285.15,le15,1
C/C=C\C#N,"Isocrotononitrile (6CI,7CI)",293.15,le15,1
CC=CC#N,2-Butenenitrile,289.15,le15,1
C=C(C)C#N,Methacrylonitrile,274.0,le15,1
c1cc[nH]c1,Pyrrole,306.0,le15,1
C#CC(C)=O,but-3-yn-2-one,272.15,le15,1
c1ccoc1,Furan,238.0,le15,1
c1c[nH]cn1,1H-Imidazole,418.15,le15,1
C#CCCC,1pentyne,239.0,le15,1
CC#CCC,2pentyne,243.0,le15,1
C1=CCCC1,Cyclopentene,273.0,le15,1
c1cnoc1,"1,2-oxazole",282.0499999999999,le15,1
c1cocn1,"1,3-oxazole",292.039,le15,1
c1cn[nH]n1,2H-triazole,380.15,le15,1
c1nc[nH]n1,"1H-1,2,4-Triazole",412.25,le15,1
CC(C)C#N,"Propanenitrile, 2-methyl-",281.15,le15,1
CCCC#N,Butanenitrile,289.15,le15,1
C1=CCNC1,"2,5-dihydro-1H-pyrrole",278.95,le15,1
C#CCNC,"2-Propyn-1-amine, N-methyl-",273.75,le15,1
C#CC(=O)O,2-Propynoic acid,332.0499999999999,le15,1
C=C(C)C=O,"2-Propenal, 2-methyl-",258.15,le15,1
CC#CCO,But-2-yn-1-ol,324.15,le15,1
C#CCCO,But-3-yn-1-ol,309.15,le15,1
C#COCC,ethynoxyethane,282.15,le15,1
O=C1CCC1,cyclobutanone,283.15,le15,1
C1=COCC1,"2,3-dihydrofuran",249.15,le15,1
C1=CCOC1,"2,5-dihydrofuran",256.45,le15,1
C/C=C/C=O,Crotonaldehyde,282.0499999999999,le15,1
C#CC(C)O,1-Butyn-3-ol,298.75,le15,1
CC=CC=O,2butenal,286.0,le15,1
O=C1CCC1,Cyclobutanone,283.0,le15,1
CN(C)C#N,"Cyanamide, dimethyl-",331.45,le15,1
N#CCCN,"Propanenitrile, 3-amino-",339.65,le15,1
C=CCCC,1-Pentene,245.15,le15,1
C=C(C)CC,2methyl1butene,239.0,le15,1
CC=C(C)C,2methyl2butene,228.0,le15,1
C=CC(C)C,3methyl1butene,217.0,le15,1
C=CC(N)=O,2-Propenamide,352.15,le15,1
COCC#N,2-methoxyacetonitrile,304.85,le15,1
C=CC=NO,"2-Propenal, oxime",303.714,le15,1
N#CCCO,3hydroxypropanenitrile,402.0,le15,1
C1CCNC1,Pyrrolidine,275.928,le15,1
C=CCNC,N-methylprop-2-en-1-amine,244.85,le15,1
NC1CCC1,Cyclobutylamine,269.0,le15,1
O=C1CCO1,Propiolactone,343.15,le15,1
C=COC=O,"Formic acid, ethenyl ester",289.15,le15,1
C=CC(=O)O,2-Propenoic acid,341.15,le15,1
CCC1CO1,"Butane, 1,2-epoxy-",251.15,le15,1
C1CCOC1,"Furan, tetrahydro-",252.15,le15,1
C=C(C)OC,Isopropenyl methyl ether,244.15,le15,1
C=C(C)CO,"2-Propen-1-ol, 2-methyl-",306.15,le15,1
CC1(C)CO1,"Propane, 1,2-epoxy-2-methyl-",273.75,le15,1
C=CCOC,3-methoxyprop-1-ene,250.15,le15,1
C[C@@H]1O[C@@H]1C,"(2R,3S)-2,3-dimethyloxirane",251.45,le15,1
OC1CCC1,cyclobutanol,294.15,le15,1
CC=CCO,2-Buten-1-ol,310.15,le15,1
CC(C)C=O,"Propanal, 2-methyl-",249.15,le15,1
CCC(C)=O,Methyl ethyl ketone,282.15,le15,1
C=CC(C)O,3-Buten-2-ol,289.85,le15,1
C=CCCO,3-Buten-1-ol,305.35,le15,1
CC(C)C=O,2methyl1propanal,248.0,le15,1
C=CC(C)O,3butene2ol,293.0,le15,1
CCC(C)C,"Butane, 2-methyl-",222.15,le15,1
CCC(C)C,Isopentane,216.0,le15,1
C=C[N+](=O)[O-],1-nitroethene,296.35,le15,1
CCC(N)=O,Propionamide,358.0499999999999,le15,1
CC(C)=NO,"2-Propanone, oxime",318.35,le15,1
CNC(=N)N,"Guanidine, methyl-",331.25,le15,1
CSC#N,"Thiocyanic acid, methyl ester",311.15,le15,1
C=C(C)C=O,2methyl2propenal,258.0,le15,1
CC(C)(C)N,"2-Propanamine, 2-methyl-",264.15,le15,1
CC[C@H](C)N,"2-Butanamine, (S)- (9CI)",254.15,le15,1
CCN(C)C,"Ethanamine, N,N-dimethyl-",237.15,le15,1
CCC(C)N,sec-Butylamine,254.15,le15,1
CCC(C)N,secButylamine,254.0,le15,1
CC(C)(C)N,tertButylamine,264.0,le15,1
O=CC(=O)O,"Acetic acid, 2-oxo-",377.05,le15,1
CC(=O)CO,"2-Propanone, 1-hydroxy-",329.15,le15,1
OCC1CO1,"1-Propanol, 2,3-epoxy-",344.15,le15,1
CN(C)N=O,"Methanamine, N-methyl-N-nitroso-",334.15,le15,1
CNC(N)=O,methylurea,296.25,le15,1
CC(=O)NN,"Acetic acid, hydrazide",375.75,le15,1
CN=[N+](C)[O-],"Diazene, dimethyl-, 1-oxide (9CI)",282.5499999999999,le15,1
CCOCC,"Ethane, 1,1'-oxybis-",228.15,le15,1
CCCCO,Butyl alcohol,308.15,le15,1
CC(C)CO,"1-Propanol, 2-methyl-",300.928,le15,1
[2H]OCCCC,1-deuteriooxybutane,308.15,le15,1
CC(C)CO,2methyl1propanol,301.0,le15,1
CCC(C)O,secbutanol,299.0,le15,1
CC(C)(C)O,tertbutylalcohol,284.15,le15,1
NCCCN,Trimethylenediamine,322.0499999999999,le15,1
CNCCN,"N'-methylethane-1,2-diamine",314.25,le15,1
C=CCS,prop-2-ene-1-thiol,291.15,le15,1
CC1CS1,"Propane, 1,2-epithio-",283.15,le15,1
C#CCCl,3-chloroprop-1-yne,292.0499999999999,le15,1
CCON=O,ethyl nitrite,288.15,le15,1
CC(=O)NO,"Acetamide, N-hydroxy- (9CI)",400.75,le15,1
COC(N)=O,"Carbamic acid, methyl ester",378.35,le15,1
CC(O)CN,"2-Propanol, 1-amino-",347.0499999999999,le15,1
COCCN,"Ethanamine, 2-methoxy-",282.5499999999999,le15,1
N#CCCl,"Acetonitrile, chloro-",320.95,le15,1
O=C(O)CO,"Acetic acid, hydroxy-",401.85,le15,1
CC(=O)OO,Ethaneperoxoic acid,314.15,le15,1
CN[N+](=O)[O-],"Methanamine, N-nitro- (9CI)",320.75,le15,1
CCC(=O)F,propanoyl fluoride,276.35,le15,1
FCC1CO1,2-(fluoromethyl)oxirane,277.15,le15,1
COCCO,"Ethanol, 2-methoxy-",319.25,le15,1
OCCCO,"propane-1,3-diol",352.5499999999999,le15,1
NNCCO,N-(2-Hydroxyethyl)hydrazine,347.0499999999999,le15,1
CC(=O)S,ethanethioic S-acid,284.25,le15,1
NC(N)=S,"Urea, thio- (8CI)",339.95,le15,1
CCSC,methylsulfanylethane,258.15,le15,1
CC(C)S,2-Propanethiol,239.15,le15,1
C=CCCl,3chloropropene,244.0,le15,1
NC(=O)CF,"Acetamide, 2-fluoro-",383.55,le15,1
N#C/C=C/C#N,"2-Butenedinitrile, (E)- (9CI)",355.75,le15,1
OCCCF,3-fluoropropan-1-ol,311.65,le15,1
CC#CC#CC,"hexa-2,4-diyne",285.45,le15,1
CS(C)=O,Sulfinylbis-methane (9CI),358.15,le15,1
CS(C)=O,DimethylSulfoxide,361.0,le15,1
CCCCl,1chloropropane,255.0,le15,1
CC(C)Cl,2chloropropane,241.0,le15,1
C=C/C=C\C#N,"(2Z)-penta-2,4-dienenitrile",312.25,le15,1
NC(=O)Cl,carbamoyl chloride,308.75,le15,1
CP(O)O,methylphosphonous acid,343.35,le15,1
c1ccnnc1,pyridazine,358.15,le15,1
c1cnccn1,Pyrazine,328.15,le15,1
N#CCCC#N,Butanedinitrile,414.25,le15,1
c1cncnc1,Pyrimidine,304.0,le15,1
C1=CCC=CC1,"cyclohexa-1,4-diene",267.15,le15,1
CC1=CC=CC1,Methylcyclopentadiene,299.0,le15,1
COCCl,"Ether, chloromethyl methyl",288.15,le15,1
c1ncncn1,"1,3,5-triazine",304.25,le15,1
Cn1cccc1,"1H-Pyrrole, 1-methyl-",289.15,le15,1
C=CCCC#N,pent-4-enenitrile,319.35,le15,1
Cc1ccc[nH]1,2-methyl-1H-pyrrole,320.35,le15,1
N#CC1CCC1,cyclobutanecarbonitrile,317.45,le15,1
Cc1cc[nH]c1,3-methyl-1H-pyrrole,320.35,le15,1
CC=CCC#N,3-Pentenenitrile,313.15,le15,1
Cn1cccc1,1methylpyrrole,288.0,le15,1
CC(O)(F)F,Difluoroethanol,273.54999999999995,le15,1
Cc1ccoc1,3-methylfuran,251.15,le15,1
O=C1C=CCC1,cyclopent-2-en-1-one,315.15,le15,1
C#CC=CCO,Pent-2-en-4-yn-1-ol,337.35,le15,1
Cc1ccco1,2methylfuran,251.15,le15,1
Cn1ccnc1,1-methylimidazole,365.15,le15,1
Cc1c[nH]cn1,"1H-Imidazole, 4-methyl-",414.75,le15,1
Cc1cc[nH]n1,"Pyrazole, 3-methyl-",366.15,le15,1
Cc1ncc[nH]1,"1H-Imidazole, 2-methyl-",418.05,le15,1
Cn1cccn1,1-methylpyrazole,308.15,le15,1
Cc1cn[nH]c1,"1H-Pyrazole, 4-methyl-",369.25,le15,1
C#CCCCC,1-Hexyne,252.15,le15,1
C#CC(C)(C)C,"3,3-dimethylbut-1-yne",239.15,le15,1
C=C1CCCC1,methylidenecyclopentane,255.15,le15,1
C/C=C\C=C\C,"(2Z,4E)-hexa-2,4-diene",259.25,le15,1
CC1=CCCC1,1-methylcyclopentene,349.15,le15,1
C#CCCCC,1hexyne,253.0,le15,1
CC1=CCCC1,1methylcyclopentene,256.0,le15,1
CC#CCCC,2hexyne,262.0,le15,1
C1=CCCCC1,Cyclohexene,253.0,le15,1
C=C1CCCC1,Methylenecyclopentane,254.0,le15,1
Cc1cocn1,4-Methyloxazole,293.65,le15,1
C=CCN=C=O,"Isocyanic acid, allyl ester",316.15,le15,1
Cc1ccno1,"5-methyl-1,2-oxazole",303.15,le15,1
C=CC(O)C#N,"3-Butenenitrile, 2-hydroxy-",345.0499999999999,le15,1
CCCCC#N,Pentanenitrile,313.75,le15,1
CC(C)CC#N,"Butanenitrile, 3-methyl-",301.45,le15,1
C#CC(C)(C)N,"2-Propynylamine, 1,1-dimethyl- (6CI,7CI,8CI)",275.15,le15,1
CCC(C)C#N,2-methylbutanenitrile,297.5499999999999,le15,1
C1=CCNCC1,"1,2,3,6-tetrahydropyridine",289.25,le15,1
[C-]#[N+]CCCC,1-isocyanobutane,293.75,le15,1
CCCCC#N,Butylcyanide,313.0,le15,1
CC#CC(=O)O,but-2-ynoic acid,364.05,le15,1
C=C1CC(=O)O1,"2-Oxetanone, 4-methylene-",371.05,le15,1
C#CC(=O)OC,methyl prop-2-ynoate,283.15,le15,1
O=C/C=C\C=O,"2-Butenedial, (Z)-",339.35,le15,1
N#CNC(=N)N,"Guanidine, N-cyano-",365.95,le15,1
Nn1cnnc1,"4H-1,2,4-Triazole, 4-amino-",388.85,le15,1
CC(C)=CC=O,"Crotonaldehyde, 3-methyl- (8CI)",307.0499999999999,le15,1
C#CC(C)(C)O,"3-Butyn-2-ol, 2-methyl-",298.15,le15,1
C1CC2OC2C1,6-oxabicyclo[3.1.0]hexane,283.15,le15,1
C/C=C(\C)C=O,(E)-2-methylbut-2-enal,291.45,le15,1
CC=CC(C)=O,3-Penten-2-one,343.15,le15,1
CC(=O)C1CC1,1-cyclopropylethanone,294.25,le15,1
C=C(C)C(C)=O,"3-Buten-2-one, 3-methyl-",284.15,le15,1
C=C(C=O)CC,"Butanal, 2-methylene- (9CI)",274.15,le15,1
C=CC(O)C=C,"penta-1,4-dien-3-ol",303.15,le15,1
CC/C=C/C=O,(E)-Pent-2-en-1-al,292.15,le15,1
C=CC(=O)CC,Ethyl vinyl ketone,263.15,le15,1
C#CCC(C)O,Pent-4-yn-2-ol,310.35,le15,1
C/C=C/C(C)=O,(E)-pent-3-en-2-one,292.95,le15,1
OC1C=CCC1,Cyclopent-2-en-1-ol,328.25,le15,1
C#CC(O)CC,1-Pentyn-3-ol,302.15,le15,1
C#CCCCO,Pent-4-yn-1-ol,329.15,le15,1
CCC#CCO,2-Pentyn-1-ol,331.15,le15,1
CC#CCCO,3-Pentyn-1-ol,327.5499999999999,le15,1
O=C1CCCC1,cyclopentanone,303.706,le15,1
CC(=O)C1CC1,1cyclopropylethanone,286.0,le15,1
CNCCC#N,"Propionitrile, 3-(methylamino)- (6CI,7CI,8CI)",336.25,le15,1
CC1=NCCN1,"2-methyl-4,5-dihydro-1H-imidazole",347.35,le15,1
CN(C)CC#N,"Acetonitrile, (dimethylamino)-",306.15,le15,1
C=CC(C)(C)C,"3,3-dimethylbut-1-ene",245.15,le15,1
C=C(C)C(C)C,"2,3-dimethylbut-1-ene",255.15,le15,1
CCC=C(C)C,2-methylpent-2-ene,246.15,le15,1
CC(C)=C(C)C,"2,3-dimethylbut-2-ene",257.15,le15,1
C=CCCCC,1hexene,247.0,le15,1
C=C(CC)CC,2ethyl1butene,247.0,le15,1
CC=CCCC,2hexene,252.0,le15,1
C=C(C)CCC,2methyl1pentene,247.0,le15,1
CCC=C(C)C,2methyl2pentene,250.0,le15,1
C=CC(C)CC,3methyl1pentene,245.0,le15,1
CC=C(C)CC,3methyl2pentene,267.0,le15,1
C=CCC(C)C,4methyl1pentene,242.0,le15,1
CC1CCCC1,methylcyclopentane,263.0,le15,1
ClCCl,"Methane, dichloro-",312.65,le15,1
N#CCC(=O)O,"Acetic acid, cyano-",380.95,le15,1
C=C(C)C(N)=O,"2-Propenamide, 2-methyl-",354.85,le15,1
COCCC#N,"Propionitrile, 3-methoxy- (8CI)",334.25,le15,1
CCCN=C=O,1-isocyanatopropane,272.15,le15,1
CC1=NCCO1,"2-methyl-4,5-dihydro-1,3-oxazole",293.15,le15,1
C=CC(=O)NC,"2-Propenamide, N-methyl-",376.75,le15,1
NC(=O)C1CC1,cyclopropanecarboxamide,377.25,le15,1
CC(C)(O)C#N,"Propanenitrile, 2-hydroxy-2-methyl-",346.15,le15,1
c1cscn1,Thiazole,299.15,le15,1
CN1CCCC1,"Pyrrolidine, 1-methyl-",251.45,le15,1
CN1CCCC1,1methylpyrrolidine,255.0,le15,1
NC1CCCC1,Cyclopentylamine,285.0,le15,1
C=C(C)C(=O)O,"2-Propenoic acid, 2-methyl-",347.32199999999995,le15,1
O=C1CCCO1,"2(3H)-Furanone, dihydro-",354.0499999999999,le15,1
CC(=O)C(C)=O,"2,3-Butanedione",278.65,le15,1
C/C=C\C(=O)O,(Z)-but-2-enoic acid,354.75,le15,1
C1=COCCO1,"2,3-dihydro-1,4-dioxine",298.75,le15,1
C1OC1C1CO1,2-(oxiran-2-yl)oxirane,318.75,le15,1
C=CCC(=O)O,But-3-enoic acid,341.35,le15,1
C1OC1C1CO1,"Butane, 1,2:3,4-diepoxy-",313.15,le15,1
O=C(O)C1CC1,cyclopropanecarboxylic acid,344.85,le15,1
C=CCOC=O,"Formic acid, allyl ester (8CI)",279.65,le15,1
CC=CC(=O)O,2-Butenoic acid,361.15,le15,1
C1O[C@@H]1[C@@H]1CO1,(2S)-2-[(2S)-oxiran-2-yl]oxirane,318.75,le15,1
C=CC(=O)OC,"2-Propenoic acid, methyl ester",279.81699999999995,le15,1
C/C=C/C(=O)O,"2-Butenoic acid, (E)- (9CI)",354.75,le15,1
OCC#CCO,"2-Butyne-1,4-diol",408.708,le15,1
C1O[C@H]1[C@H]1CO1,(2R)-2-[(2R)-oxiran-2-yl]oxirane,318.75,le15,1
C/C=C/C(=O)O,Crotonicacid,361.0,le15,1
C=CCC(=O)[O-],Ethenylacetate,265.0,le15,1
O=C1CCCO1,gammaButyrolactone,371.0,le15,1
O=C1NCCN1,2-Imidazolidinone,475.66900000000004,le15,1
C=CN(C)N=O,"Ethenamine, N-methyl-N-nitroso- (9CI)",318.65,le15,1
CCC(C)C=O,"Butyraldehyde, 2-methyl-",277.15,le15,1
OC1CCCC1,cyclopentanol,324.15,le15,1
CC1CCCO1,"Furan, 2-methyl-tetrahydro-",262.15,le15,1
CCCC(C)=O,2-Pentanone,280.35,le15,1
CCCCC=O,Valeraldehyde,285.35,le15,1
C1CCOCC1,oxane,258.15,le15,1
CC(C)=CCO,"2-Buten-1-ol, 3-methyl-",316.15,le15,1
CC(C)CC=O,"Butyraldehyde, 3-methyl-",268.15,le15,1
C=CC(O)CC,1-Penten-3-ol,298.15,le15,1
C=CCC(C)O,4-Penten-2-ol,298.75,le15,1
CC(C)(C)C=O,"2,2-dimethylpropanal",258.15,le15,1
C=C(C)CCO,"3-Buten-1-ol, 3-methyl-",313.25,le15,1
C=COCCC,1-ethenoxypropane,247.05,le15,1
CC(O)C1CC1,1-cyclopropylethanol,303.75,le15,1
C=CCCCO,Pent-4-en-1-ol,316.15,le15,1
CC=CC(C)O,3-Penten-2-ol,300.95,le15,1
CC/C=C\CO,"2-Penten-1-ol, (2Z)-",323.75,le15,1
CC/C=C/CO,(E)-pent-2-en-1-ol,323.75,le15,1
C=C(C)C(C)O,3-methylbut-3-en-2-ol,302.75,le15,1
CCC(=O)CC,3-Pentanone,285.95,le15,1
C#CC(C)(C)O,"3-Butyn-2-ol, 2-methyl- (8CI,9CI)",285.95,le15,1
CC=COCC,"1-Propene, 1-ethoxy- (9CI)",254.25,le15,1
CC(=O)C(C)C,3methyl2butanone,279.0,le15,1
CCC(=O)CC,3pentanone,286.0,le15,1
CCCCC=O,Pentanal,281.0,le15,1
C1CNCCN1,Piperazine,322.85,le15,1
C1=CCSC1,"2,5-dihydrothiophene",296.65,le15,1
CCC(C)(C)C,"Butane, 2,2-dimethyl-",225.15,le15,1
CCC(C)CC,"Pentane, 3-methyl-",267.15,le15,1
CCCC(C)C,"Pentane, 2-methyl-",241.15,le15,1
CCCC(C)C,2methylpentane,250.0,le15,1
CCC(C)CC,3methylpentane,267.0,le15,1
NC(=O)C1CO1,Oxirane-2-carboxamide,513.95,le15,1
CCC(C)=NO,"2-Butanone, oxime",333.15,le15,1
CCCC=NO,Butyraldehyde oxime,331.15,le15,1
C1COCCN1,Morpholine,308.75,le15,1
CCCC(N)=O,butanamide,361.05,le15,1
CC(C)C(N)=O,2-methylpropanamide,360.85,le15,1
CCNC(C)=O,N-ethylacetamide,378.55,le15,1
CCC(=O)NC,N-methylpropanamide,378.55,le15,1
C1COCCN1,Morpholine,308.0,le15,1
CCN=C=S,"Isothiocyanic acid, ethyl ester",305.35,le15,1
CCSC#N,ethyl thiocyanate,295.15,le15,1
CCC(C)CN,"1-Butanamine, 2-methyl-",276.45,le15,1
CCCCNC,"1-Butanamine, N-methyl-",274.85,le15,1
CC(C)C(C)N,"Propylamine, 1,2-dimethyl-",245.35,le15,1
CCC(N)CC,"Propylamine, 1-ethyl- (8CI)",275.35,le15,1
CCN(C)CC,"Ethanamine, N-ethyl-N-methyl-",275.35,le15,1
CC(C)N(C)C,"N,N-dimethylpropan-2-amine",264.15,le15,1
CC(C)CCN,"1-Butanamine, 3-methyl-",291.45,le15,1
CCCCCN,1-Pentanamine,277.54999999999995,le15,1
CCNC(C)C,N-ethylpropan-2-amine,289.25,le15,1
C=C(Cl)C#N,"2-Propenenitrile, 2-chloro-",279.85,le15,1
CC(=O)C(=O)O,2-oxopropanoic acid,327.45,le15,1
NC(=O)C(N)=O,Ethanediamide,385.85,le15,1
ON=CC=NO,"Ethanedial, dioxime",329.35,le15,1
O=CNNC=O,"Hydrazine, 1,2-diformyl- (8CI)",354.75,le15,1
CC(C)C(=O)O,"Propanoic acid, 2-methyl-",331.35,le15,1
CC(O)CC=O,"Butyraldehyde, 3-hydroxy-",331.85,le15,1
CCCC(=O)O,Butanoic acid,342.15,le15,1
CCOC(C)=O,Acetic acid ethyl ester,269.15,le15,1
OC1CCOC1,oxolan-3-ol,354.25,le15,1
C=CC(O)CO,"but-3-ene-1,2-diol",362.45,le15,1
CC1OCCO1,"1,3-Dioxolane, 2-methyl-",271.15,le15,1
CC(=O)C(C)O,"2-Butanone, 3-hydroxy-",322.85,le15,1
C=COCCO,"Ethanol, 2-(ethenyloxy)- (9CI)",323.15,le15,1
COCC1CO1,"Propane, 1,2-epoxy-3-methoxy-",281.25,le15,1
CCC(=O)CO,1-hydroxybutan-2-one,333.15,le15,1
OC/C=C\CO,"(Z)-2-Butene-1,4-diol",401.15,le15,1
C1COCCO1,"1,4-Dioxane",285.35,le15,1
CCC(=O)OC,"Propanoic acid, methyl ester",271.15,le15,1
CC(C)C(=O)O,2methylpropanoicacid,329.0,le15,1
CNC(=O)NC,"Urea, N,N'-dimethyl-",397.45,le15,1
CCN(C)N=O,"Ethylamine, N-methyl-N-nitroso-",320.35,le15,1
CCCCCO,Pentyl alcohol,322.0499999999999,le15,1
CC(C)(C)CO,"1-Propanol, 2,2-dimethyl-",310.15,le15,1
CC(C)CCO,Isopentyl alcohol (8CI),318.75,le15,1
CCC(O)CC,3-Pentanol,313.15,le15,1
COC(C)(C)C,"Propane, 2-methoxy-2-methyl-",245.15,le15,1
CCCC(C)O,2-Pentanol,307.15,le15,1
CCC(C)OC,2-methoxybutane,243.15,le15,1
CCC(C)(C)O,"2-Butanol, 2-methyl-",294.25,le15,1
CCCCOC,1methoxybutane,263.0,le15,1
CCC(C)OC,2methoxybutane,243.0,le15,1
CCC(C)CO,2methyl1butanol,316.0,le15,1
CCC(C)(C)O,2methyl2butanol,294.0,le15,1
CCCC(C)O,2pentanol,313.0,le15,1
CC(C)CCO,3methyl1butanol,316.0,le15,1
CC(C)C(C)O,3methyl2butanol,312.0,le15,1
CCC(O)CC,3pentanol,313.0,le15,1
CCCOCC,EthylPropylEther,253.0,le15,1
CN(C)CCN,"Ethylenediamine, N,N-dimethyl- (8CI)",297.0499999999999,le15,1
CCNCCN,"1,2-Ethanediamine, N1-ethyl-",283.15,le15,1
CC(N)CCN,1-Methyltrimethylenediamine,309.65,le15,1
CCN(N)CC,"Hydrazine, 1,1-diethyl-",295.95,le15,1
NCCCCN,Tetramethylenediamine,324.85,le15,1
CNCCCN,"1,3-Propanediamine, N-methyl-",313.15,le15,1
C=CCSC,3-methylsulfanylprop-1-ene,291.45,le15,1
C1CCSC1,"Thiophene, tetrahydro-",285.95,le15,1
C1CCSC1,Thiacyclopentane,285.0,le15,1
CC[Si]CC,diethylsilicon,244.25,le15,1
C=C=CCCl,"4-chlorobuta-1,2-diene",273.65,le15,1
CCOC(N)=O,"Carbamic acid, ethyl ester",370.35,le15,1
CCC(N)CO,2-aminobutan-1-ol,355.35,le15,1
CN(C)CCO,"Ethanol, 2-(dimethylamino)-",313.75,le15,1
CC(C)(N)CO,"1-Propanol, 2-amino-2-methyl-",340.35,le15,1
CCN(O)CC,"N,N-diethylhydroxylamine",318.15,le15,1
COCCCN,"1-Propanamine, 3-methoxy-",295.95,le15,1
NCCCCO,"1-Butanol, 4-amino-",380.95,le15,1
CCC(O)CN,1-aminobutan-2-ol,334.15,le15,1
CCNCCO,"Ethanol, 2-(ethylamino)-",351.15,le15,1
CCOCCN,2-ethoxyethanamine,290.85,le15,1
CN(C)CCO,2dimethylaminoethanol,313.0,le15,1
C1CSCN1,Thiazolidine,329.25,le15,1