smiles,compound,flashpoint,source,pure substance
O=C1c2ccccc2Cc2ccccc21,"9,10-Dihydro-9-oxoanthracene",423.45,le15,1
CCCCO[PH](=O)OCCCC,"Phosphonic acid, dibutyl ester",394.15,le15,1
CC(C)COC(=O)c1ccccc1O,"Benzoic acid, 2-hydroxy-, 2-methylpropyl ester",383.15,le15,1
CCCCOC(=O)c1ccc(O)cc1,"Benzoic acid, 4-hydroxy-, butyl ester",402.35,le15,1
Nc1cccc2cc3ccccc3nc12,acridin-4-amine,510.35,le15,1
Nc1ccc2nc3ccccc3cc2c1,2-Acridinamine (9CI),514.3499999999998,le15,1
CC(C)(C)OOC(=O)c1ccccc1,"Benzenecarboperoxoic acid, 1,1-dimethylethyl ester",382.85,le15,1
C(=Nc1ccccc1)=Nc1ccccc1,"N,N'-diphenylmethanediimine",419.25,le15,1
CCCCOC(=O)c1ccccc1O,"Benzoic acid, 2-hydroxy-, butyl ester",380.15,le15,1
COC1=CC(=O)C(=O)C(C(C)(C)C)=C1,"3,5-Cyclohexadiene-1,2-dione, 3-(1,1-dimethylethyl)-5-methoxy-",401.65,le15,1
CC(C)COC(=O)c1ccc(O)cc1,"Benzoic acid, 4-hydroxy-, 2-methylpropyl ester (9CI)",398.55,le15,1
Nc1ccc2cc3ccccc3nc2c1,3-Acridinamine (9CI),514.3499999999998,le15,1
CCOc1ccc(C=O)cc1OCC,"3,4-diethoxybenzaldehyde",402.15,le15,1
OCC1COC(Cc2ccccc2)O1,"1,3-Dioxolane-4-methanol, 2-(phenylmethyl)-",429.65,le15,1
CCOC(=O)c1ccc(OCC)cc1,ethyl 4-ethoxybenzoate,387.15,le15,1
OCCOCCOCCOCCO,"Ethanol, 2,2'-(oxybis(2,1-ethanediyloxy))bis-",449.85,le15,1
CCN(CC)c1ccc([N+](=O)[O-])cc1,"Benzenamine, N,N-diethyl-4-nitro-",418.05,le15,1
CCOc1ccc2nc(N)sc2c1,"Benzothiazole, 2-amino-6-ethoxy- (8CI)",442.25,le15,1
O=C(c1cccs1)c1cccs1,dithiophen-2-ylmethanone,422.25,le15,1
C/C(=C\c1ccccc1)c1ccccc1,[(E)-1-phenylprop-1-en-2-yl]benzene,397.65,le15,1
CCCCCCc1ccc(O)cc1O,"1,3-Benzenediol, 4-hexyl-",428.35,le15,1
CCOC(C)OCCc1ccccc1,"Benzene, (2-(1-ethoxyethoxy)ethyl)-",350.85,le15,1
CC(C)c1ccc(C(C)(C)OO)cc1,1-(2-hydroperoxypropan-2-yl)-4-propan-2-ylbenzene,410.15,le15,1
C1CCC(CCCC2CCCC2)CC1,1-Cyclohexyl-3-cyclopentylpropane,379.05,le15,1
C1CCC(CCC2CCCCC2)CC1,2-cyclohexylethylcyclohexane,379.85,le15,1
FC(F)(F)c1ccc(CCl)cc1,p-Trifluoromethylbenzyl chloride,347.0499999999999,le15,1
CCOC(=O)C(Cl)C(=O)OCC,"Propanedioic acid, chloro-, diethyl ester",376.45,le15,1
O=P(Cl)(Cl)c1ccccc1,dichlorophosphorylbenzene,382.95,le15,1
CCOC(=O)C(Br)CC,"Butyric acid, 2-bromo-, ethyl ester (8CI)",342.65,le15,1
CCOC(=O)CCCBr,"Butanoic acid, 4-bromo-, ethyl ester (9CI)",363.75,le15,1
CC(=O)OCCCCBr,"1-Butanol, 4-bromo-, acetate",382.15,le15,1
COC(=O)CCCCBr,"Valeric acid, 5-bromo-, methyl ester (8CI)",372.55,le15,1
CCOC(=O)C(C)(C)Br,"Propanoic acid, 2-bromo-2-methyl-, ethyl ester",333.15,le15,1
O=C(O)CCCCCBr,"Hexanoic acid, 6-bromo-",340.15,le15,1
CCOC(=O)c1ccc([N+](=O)[O-])cc1,"Benzoic acid, 4-nitro-, ethyl ester",421.35,le15,1
CCOC(=O)c1ccccc1[N+](=O)[O-],ethyl 2-nitrobenzoate,399.25,le15,1
O=[N+]([O-])c1ccc(OCC2CO2)cc1,"Propane, 1,2-epoxy-3-(p-nitrophenoxy)-",450.35,le15,1
CCOC(=O)c1cccc([N+](=O)[O-])c1,ethyl 3-nitrobenzoate,410.15,le15,1
C1=Nc2ccccc2Oc2ccccc21,"Dibenz(b,f)(1,4)oxazepine",398.15,le15,1
O=C1C=CC23C=CC=CC2Nc2ccc4ccccc4c2C3=C1,"7H-Dibenz(a,j)acrid-14-one",428.199,le15,1
c1ccc(-c2nc3ccccc3o2)cc1,"Benzoxazole, 2-phenyl-",391.85,le15,1
O=Nc1ccc2c(c1)Cc1ccccc1-2,"9H-Fluorene, 2-nitroso-",428.25,le15,1
Nc1cccc2nc3ccccc3nc12,1-Phenazinamine (9CI),518.55,le15,1
Nc1ccc2nc3ccccc3nc2c1,2-Phenazinamine (9CI),522.8499999999998,le15,1
Cc1ccc(N=Cc2ccccc2)cc1,N-(4-methylphenyl)-1-phenylmethanimine,418.151,le15,1
Nc1ccc(/C=C/c2ccccc2)cc1,"Benzenamine, 4-(2-phenylethenyl)-, (E)- (9CI)",460.05,le15,1
Cc1ccccc1N=Cc1ccccc1,N-(2-methylphenyl)-1-phenylmethanimine,613.3499999999998,le15,1
Cc1cccc(N=Cc2ccccc2)c1,N-(3-methylphenyl)-1-phenylmethanimine,421.55,le15,1
Cc1cccc(N(CCO)CCO)c1,"Ethanol, 2,2'-((3-methylphenyl)imino)bis-",474.95,le15,1
CN(C1CCCCC1)C1CCCCC1,"Cyclohexanamine, N-cyclohexyl-N-methyl-",383.15,le15,1
ClC(Cl)(Cl)c1ccccc1,"Toluene, alpha,alpha,alpha-trichloro-",370.15,le15,1
ClCc1ccc(Cl)c(Cl)c1,"1,2-dichloro-4-(chloromethyl)benzene",433.35,le15,1
ClCc1ccc(Cl)cc1Cl,"2,4-dichloro-1-(chloromethyl)benzene",463.15,le15,1
Nc1cc(C(F)(F)F)ccc1Cl,"m-Toluidine, 6-chloro-alpha,alpha,alpha-trifluoro-",352.75,le15,1
O=C(CCl)C(Cl)(Cl)Cl,"1,1,1,3-tetrachloropropan-2-one",336.95,le15,1
ClCC(Cl)(CCl)CCl,"2-(Chloromethyl)-1,2,3-trichloropropane",355.0499999999999,le15,1
IC1CCCC1,iodocyclopentane,339.85,le15,1
O=C(OCC(F)(F)F)C(F)(F)F,"2,2,2-trifluoroethyl 2,2,2-trifluoroacetate",273.15,le15,1
O=Cc1c(F)c(F)c(F)c(F)c1F,"Benzaldehyde, pentafluoro- (8CI)(9CI)",350.95,le15,1
COCC(F)(F)C(F)C(F)(F)F,"1,1,1,2,3,3-hexafluoro-4-methoxybutane",275.15,le15,1
O=Cc1ccc([N+](=O)[O-])cc1[N+](=O)[O-],"Benzaldehyde, 2,4-dinitro-",475.65,le15,1
O=Cc1c([N+](=O)[O-])cccc1[N+](=O)[O-],"Benzaldehyde, 2,6-dinitro-",465.25,le15,1
Nc1nnc(-c2ccc([N+](=O)[O-])o2)o1,"1,3,4-Oxadiazole, 2-amino-5-(5-nitro-2-furyl)-",478.05,le15,1
Cc1ccc([N+](=O)[O-])c(C)c1[N+](=O)[O-],"m-Xylene, 2,4-dinitro-",414.35,le15,1
Cc1cc([N+](=O)[O-])cc([N+](=O)[O-])c1C,"Benzene, 1,2-dimethyl-3,5-dinitro-",438.75,le15,1
Cn1c(=O)c2[nH]c(=O)[nH]c2n(C)c1=O,"1H-Purine-2,6,8(3H)-trione, 7,9-dihydro-1,3-dimethyl-",541.55,le15,1
CCOC(=O)c1ccc(O)c(OC)c1,ethyl 4-hydroxy-3-methoxybenzoate,395.55,le15,1
COC(=O)c1ccc(OC)c(OC)c1,"methyl 3,4-dimethoxybenzoate",395.35,le15,1
COc1cc(OC)c(OC)cc1C=O,"Benzaldehyde, 2,4,5-trimethoxy-",422.15,le15,1
[O-][n+]1c2ccccc2nc2ccccc21,"Phenazine, 5-oxide",471.45,le15,1
CCCC(=O)c1cc(O)c(O)cc1O,"1-Butanone, 1-(2,4,5-trihydroxyphenyl)-",488.55,le15,1
COc1cc(C(C)=O)cc(OC)c1O,"Ethanone, 1-(4-hydroxy-3,5-dimethoxyphenyl)- (9CI)",404.85,le15,1
CC(=O)c1ccc(-c2ccccc2)cc1,1-(4-phenylphenyl)ethanone,413.05,le15,1
Cc1ccccc1C(=O)c1ccccc1,(2-methylphenyl)-phenylmethanone,392.15,le15,1
O=C(Cc1ccccc1)c1ccccc1,"1,2-diphenylethanone",410.15,le15,1
c1ccc([C@@H]2O[C@@H]2c2ccccc2)cc1,"Oxirane, 2,3-diphenyl-, cis- (9CI)",382.15,le15,1
Nc1ccc2c(c1)Cc1cc(N)ccc1-2,"9H-Fluorene-2,7-diamine (9CI)",556.75,le15,1
C(=Nc1ccccc1)Nc1ccccc1,"Formamidine, N,N'-diphenyl- (6CI,7CI,8CI)",421.25,le15,1
Cc1ccc(N=Nc2ccccc2)cc1,(4-methylphenyl)-phenyldiazene,431.45,le15,1
CC(C)(c1ccccc1)c1ccccc1,2-phenylpropan-2-ylbenzene,395.05,le15,1
CCC(c1ccccc1)c1ccccc1,1-phenylpropylbenzene,396.55,le15,1
Cc1ccc(Cc2ccc(C)cc2)cc1,"Methane, di-p-tolyl-",408.35,le15,1
CC(Cc1ccccc1)c1ccccc1,1-phenylpropan-2-ylbenzene,385.05,le15,1
CC(C)c1ccc(-c2ccccc2)cc1,"Biphenyl, 4-isopropyl-",406.45,le15,1
c1ccc(CCCc2ccccc2)cc1,3-phenylpropylbenzene,402.35,le15,1
CC(=O)OC(C)(C)C1CC=C(C)CC1,"3-Cyclohexene-1-methanol, alpha,alpha,4-trimethyl-, acetate",356.15,le15,1
CC(=O)OC/C=C(\C)CCC=C(C)C,"2,6-Octadien-1-ol, 3,7-dimethyl-, acetate, (2E)-",372.05,le15,1
CC(=O)O[C@@H]1C[C@H]2CC[C@]1(C)C2(C)C,"Bicyclo(2.2.1)heptan-2-ol, 1,7,7-trimethyl-, acetate, (1R,2R,4R)-rel-",360.95,le15,1
CC(=O)OC/C=C(/C)CCC=C(C)C,"2,6-Octadien-1-ol, 3,7-dimethyl-, acetate, (2Z)-",372.05,le15,1
C=CCOC(=O)CCC1CCCCC1,"Cyclohexanepropanoic acid, 2-propenyl ester",381.85,le15,1
CC(=O)OCC=C(C)CCC=C(C)C,"3,7-dimethylocta-2,6-dienyl acetate",372.05,le15,1
C=CC(C)(CCC=C(C)C)OC(C)=O,"3,7-dimethylocta-1,6-dien-3-yl acetate",473.45,le15,1
CC(=O)OC1CC2CCC1(C)C2(C)C,"(4,7,7-trimethyl-3-bicyclo[2.2.1]heptanyl) acetate",362.05,le15,1
CCCSP(C)SCCC,"Phosphonodithious acid, methyl-, dipropyl ester",382.15,le15,1
CC(=O)CCCC(C)CCC=C(C)C,"9-Undecen-2-one, 6,10-dimethyl-",377.35,le15,1
CO[Si](CCCS)(OC)OC,"1-Propanethiol, 3-(trimethoxysilyl)-",322.0499999999999,le15,1
C1CCN(CCN2CCCCC2)CC1,1-(2-piperidin-1-ylethyl)piperidine,380.85,le15,1
CCCCCCCCC1CCCCC1,octylcyclohexane,378.55,le15,1
CCCCCCCCCC1CCCC1,nonylcyclopentane,377.35,le15,1
C=CCCCCCCCCCCCC,1-Tetradecene,388.75,le15,1
Nc1c(Cl)cc(Cl)cc1Cl,"Benzenamine, 2,4,6-trichloro-",383.25,le15,1
Nc1cc(Cl)c(Cl)cc1Cl,"Aniline, 2,4,5-trichloro- (8CI)",398.05,le15,1
Nc1cc(Cl)c(Cl)c(Cl)c1,"3,4,5-Trichloroaniline",417.35,le15,1
CC1(C)C(=O)N(Cl)C(=O)N1Cl,"2,4-Imidazolidinedione, 1,3-dichloro-5,5-dimethyl-",356.85,le15,1
CC(O)COC(=O)CBr,2-Hydroxypropyl bromoacetate,388.65,le15,1
Clc1ccc(Cl)c2ccccc12,"Naphthalene, 1,4-dichloro-",410.75,le15,1
Clc1ccc2ccccc2c1Cl,"1,2-dichloronaphthalene",414.75,le15,1
Clc1ccc2cc(Cl)ccc2c1,"2,6-dichloronaphthalene",404.85,le15,1
Clc1ccc2cccc(Cl)c2c1,"1,7-dichloronaphthalene",405.25,le15,1
Clc1cc(Cl)c2ccccc2c1,"1,3-dichloronaphthalene",412.65,le15,1
ClCCCCCCCCCCl,"1,9-dichlorononane",371.15,le15,1
Cc1cc(N)c([N+](=O)[O-])cc1[N+](=O)[O-],"Benzenamine, 4,6-dinitro-3-methyl- (9CI)",475.65,le15,1
N[C@@H](Cc1ccc(O)c(O)c1)C(=O)O,"Alanine, 3-(3,4-dihydroxyphenyl)-, L-",498.15,le15,1
COC(OC)c1ccccc1[N+](=O)[O-],"Benzene, 1-(dimethoxymethyl)-2-nitro-",372.05,le15,1
Nc1ccc(NCCO)c([N+](=O)[O-])c1,"Ethanol, 2-((4-amino-2-nitrophenyl)amino)-",505.05,le15,1
Cc1ccc(S(=O)(=O)N=C=O)cc1,"Benzenesulfonyl isocyanate, 4-methyl-",401.65,le15,1
ONc1ccc2c(c1)Cc1ccccc1-2,"9H-Fluoren-2-amine, N-hydroxy- (9CI)",458.95,le15,1
Oc1ccc(N=Cc2ccccc2)cc1,"Phenol, 4-((phenylmethylene)amino)- (9CI)",512.15,le15,1
Nc1ccc(C(=O)c2ccccc2)cc1,"Methanone, (4-aminophenyl)phenyl-",416.15,le15,1
c1ccc(N=NNc2ccccc2)cc1,"1-Triazene, 1,3-diphenyl-",411.35,le15,1
CCNc1nc(O)nc(NC(C)C)n1,"s-Triazin-2-ol, 4-(ethylamino)-6-(isopropylamino)- (7CI,8CI)",392.85,le15,1
c1ccc(CNCc2ccccc2)cc1,N-benzyl-1-phenylmethanamine,416.45,le15,1
Cc1ccc(Nc2ccc(C)cc2)cc1,4-methyl-N-(4-methylphenyl)aniline,440.75,le15,1
c1ccc(CCCc2ccncc2)cc1,4-(3-phenylpropyl)pyridine,386.15,le15,1
Cc1ccccc1NCc1ccccc1,N-benzyl-2-methylaniline,429.45,le15,1
Cc1ccc(NCc2ccccc2)cc1,N-benzyl-4-methylaniline,425.95,le15,1
NC(Cc1ccccc1)c1ccccc1,"1,2-diphenylethanamine",409.95,le15,1
O=C1CCCCCCCCCCCN1,Azacyclotridecan-2-one,461.35,le15,1
CCCCCCCCN1CCCC1=O,"2-Pyrrolidinone, 1-octyl-",402.15,le15,1
Oc1c(Cl)cc(Cl)cc1Cl,"Phenol, 2,4,6-trichloro-",369.05,le15,1
Oc1c(Cl)ccc(Cl)c1Cl,"Phenol, 2,3,6-trichloro-",366.45,le15,1
Oc1cc(Cl)cc(Cl)c1Cl,"Phenol, 2,3,5-trichloro-",378.25,le15,1
Oc1cc(Cl)c(Cl)cc1Cl,"Phenol, 2,4,5-trichloro-",381.05,le15,1
CCn1c(=O)oc2ccc(Cl)cc21,"2-Benzoxazolinone, 5-chloro-3-ethyl-",412.45,le15,1
O=C(CCCl)NCc1ccccc1,"Propanamide, 3-chloro-N-(phenylmethyl)- (9CI)",460.95,le15,1
O=C=Nc1ccc(Br)cc1,"Isocyanic acid, p-bromophenyl ester (6CI,7CI,8CI)",382.15,le15,1
Clc1cc(Cl)c2ccccc2n1,"2,4-Dichlorochinoline",427.35,le15,1
CC(C)CCI,"Butane, 1-iodo-3-methyl-",319.15,le15,1
CCCC(C)I,2-iodopentane,317.75,le15,1
CCCCCI,1iodopentane,316.0,le15,1
COc1c(F)c(F)c(F)c(F)c1F,"1,2,3,4,5-pentafluoro-6-methoxybenzene",305.35,le15,1
OCc1c(F)c(F)c(F)c(F)c1F,"Benzenemethanol, 2,3,4,5,6-pentafluoro- (9CI)",360.15,le15,1
Cc1c(O)cc([N+](=O)[O-])cc1[N+](=O)[O-],"Phenol, 2-methyl-3,5-dinitro- (9CI)",431.35,le15,1
Cc1cc([N+](=O)[O-])c(O)c([N+](=O)[O-])c1,"Phenol, 4-methyl-2,6-dinitro-",390.85,le15,1
O=[N+]([O-])c1ccc(CO)c([N+](=O)[O-])c1,"Benzyl alcohol, 2,4-dinitro-",444.35,le15,1
COc1ccc([N+](=O)[O-])cc1[N+](=O)[O-],"Anisole, 2,4-dinitro- (8CI)",453.65,le15,1
Cc1cc([N+](=O)[O-])cc([N+](=O)[O-])c1O,"Phenol, 2-methyl-4,6-dinitro-",422.35,le15,1
NNc1ccc([N+](=O)[O-])cc1[N+](=O)[O-],"Hydrazine, (2,4-dinitrophenyl)-",455.95,le15,1
NC(=O)NN=Cc1ccc([N+](=O)[O-])o1,"Hydrazinecarboxamide, 2-((5-nitro-2-furanyl)methylene)-",275.15,le15,1
O=C1OC(=O)c2cccc3cccc1c23,"Naphthalene-1,8-dicarboxylic anhydride",479.95,le15,1
O=Cc1ccc(Oc2ccccc2)cc1,"Benzaldehyde, 4-phenoxy- (9CI)",385.15,le15,1
O=C(c1ccccc1)c1ccc(O)cc1,"Benzophenone, 4-hydroxy- (6CI,7CI,8CI)",429.85,le15,1
OC1c2ccccc2Oc2ccccc21,9H-Xanthen-9-ol,429.75,le15,1
O=C(O)c1ccccc1-c1ccccc1,2-phenylbenzoic acid,616.65,le15,1
O=NN(c1ccccc1)c1ccccc1,"Benzenamine, N-nitroso-N-phenyl-",436.55,le15,1
COc1ccccc1OCC(O)CO,"1,2-Propanediol, 3-(2-methoxyphenoxy)-",442.75,le15,1
[O-][N+](=Nc1ccccc1)c1ccccc1,"Diazene, diphenyl-, 1-oxide",430.15,le15,1
C=COC(=O)CCCCC(=O)OC=C,"Hexanedioic acid, diethenyl ester (9CI)",395.35,le15,1
CCC1(CC)C(=O)NC(=O)N(C)C1=O,"2,4,6(1H,3H,5H)-Pyrimidinetrione, 5,5-diethyl-1-methyl-",409.55,le15,1
ClC(Cl)(Cl)Br,"Methane, bromotrichloro-",291.75,le15,1
c1ccc(COCc2ccccc2)cc1,"Benzene, 1,1'-(oxybis(methylene))bis-",408.15,le15,1
Cc1ccccc1Oc1ccccc1C,1-methyl-2-(2-methylphenoxy)benzene,387.45,le15,1
CCOc1cccc(-c2ccccc2)c1,"1,1-Biphenyl, 3-ethoxy-",393.85,le15,1
Nc1c2c(nc3ccccc13)CCCC2,"9-Acridinamine, 1,2,3,4-tetrahydro- (9CI)",503.65,le15,1
CCCCCCC#COC(=O)OCC,"Carbonic acid, ethyl octynyl ester",372.55,le15,1
c1ccc2c(c1)Cc1ccccc1S2,9H-thioxanthene,419.45,le15,1
Cc1ccc2c(C)ccc(C(C)C)c2c1,"1,6-dimethyl-4-propan-2-ylnaphthalene",413.45,le15,1
Cc1ccc(C(C)C)cc2c(C)ccc1-2,"Azulene, 1,4-dimethyl-7-(1-methylethyl)-",386.15,le15,1
CC(=O)OC1CCCCC1C(C)(C)C,"Cyclohexanol, 2-(1,1-dimethylethyl)-, acetate",363.95,le15,1
CC(=O)O[C@H]1C[C@@H](C)CC[C@@H]1C(C)C,"[(1S,2R,5S)-5-methyl-2-propan-2-ylcyclohexyl] acetate",360.15,le15,1
C=CCCCCCCCCC(=O)OC,methyl undec-10-enoate,372.45,le15,1
C=C(C)CCCC(C)CCOC(C)=O,"7-Octen-1-ol, 3,7-dimethyl-, acetate",359.95,le15,1
CC(=O)OCCC(C)CCC=C(C)C,"6-Octen-1-ol, 3,7-dimethyl-, acetate",361.35,le15,1
CC(=O)OC1CC(C)CCC1C(C)C,"Cyclohexanol, 5-methyl-2-(1-methylethyl)-, acetate (8CI)",365.35,le15,1
CC(C)=CCCC(C)CCOCC=O,"Acetaldehyde, ((3,7-dimethyl-6-octenyl)oxy)-",365.85,le15,1
CN(C)C(=O)NC1CCCCCCC1,"Urea, 3-cyclooctyl-1,1-dimethyl-",444.35,le15,1
N=C(N)NCCN1CCCCCCC1,"Guanidine, (2-(hexahydro-1(2H)-azocinyl)ethyl)-",435.95,le15,1
CCCCCCC(=O)CCCCCC,Tridecan-7-one,352.85,le15,1
CCCCCCCCCCCC(C)=O,2-Tridecanone,356.45,le15,1
C1CCC(SC2CCCCC2)CC1,cyclohexylsulfanylcyclohexane,396.25,le15,1
Oc1c(Cl)cnc(Cl)c1Cl,"4-Pyridinol, 2,3,5-trichloro-",372.95,le15,1
O=c1[nH]c(Cl)c(Cl)cc1Cl,"3,5,6-Trichloro-2(1H)-pyridinone",381.05,le15,1
CN(C)C(=O)Nc1ccc(Cl)cc1,"Urea, N'-(4-chlorophenyl)-N,N-dimethyl-",443.95,le15,1
CCO[Si](Cl)(OCC)OCC,chloro(triethoxy)silane,313.25,le15,1
N#CC(Br)Br,"Acetonitrile, dibromo-",305.0499999999999,le15,1
O=C(C(F)(F)Cl)C(F)(F)Cl,"2-Propanone, 1,3-dichloro-1,1,3,3-tetrafluoro-",275.15,le15,1
Clc1nc2ccccc2nc1Cl,"Quinoxaline, 2,3-dichloro-",416.05,le15,1
O=C(CBr)c1ccccc1,"Acetophenone, 2-bromo- (8CI)",351.5499999999999,le15,1
Cc1cc(C)c(Br)c(C)c1,"2-bromo-1,3,5-trimethylbenzene",369.25,le15,1
CC(C)c1ccc(Br)cc1,1-bromo-4-propan-2-ylbenzene,360.45,le15,1
CC(CBr)c1ccccc1,1-bromopropan-2-ylbenzene,359.0499999999999,le15,1
Cc1cc(C)c(Br)cc1C,"1-bromo-2,4,5-trimethylbenzene",386.15,le15,1
BrCCCc1ccccc1,3-bromopropylbenzene,374.85,le15,1
Nc1cc([N+](=O)[O-])cc([N+](=O)[O-])c1O,"Phenol, 2-amino-4,6-dinitro-",460.65,le15,1
O=[N+]([O-])c1ccccc1-c1ccccc1,"1,1'-Biphenyl, 2-nitro- (9CI)",452.15,le15,1
O=[N+]([O-])c1ccc(-c2ccccc2)cc1,"1,1'-Biphenyl, 4-nitro-",316.15,le15,1
O=[N+]([O-])c1ccc2c3c(cccc13)CC2,"Acenaphthylene, 1,2-dihydro-5-nitro-",464.95,le15,1
O=[N+]([O-])c1cccc(-c2ccccc2)c1,"1,1'-Biphenyl, 3-nitro- (9CI)",434.55,le15,1
COc1c2ccccc2nc2occc12,"Furo(2,3-b)quinoline, 4-methoxy-",434.537,le15,1
O=[N+]([O-])c1ccc2cccc3c2c1CC3,"Acenaphthylene, 1,2-dihydro-3-nitro- (9CI)",473.45,le15,1
Nc1cccc(OCc2ccccc2)c1,"Benzenamine, 3-(phenylmethoxy)-",457.55,le15,1
c1ccc2c(c1)Nc1ccccc1S2,10H-Phenothiazine,451.35,le15,1
CCN(CC)c1cccc2ccccc12,"N,N-diethylnaphthalen-1-amine",394.25,le15,1
CCCCCCCCCCCCCN,1-Tridecanamine,383.75,le15,1
O=c1oc2cc(Cl)ccc2n1CO,"2(3H)-Benzoxazolone, 6-chloro-3-(hydroxymethyl)-",436.65,le15,1
CC(=O)c1ccc(Cl)c([N+](=O)[O-])c1,4'-Chloro-3'-nitroacetophenone,401.15,le15,1
CC=C(Br)Br,"1,1-dibromoprop-1-ene",283.0499999999999,le15,1
C=C(Br)CBr,"Propene, 2,3-dibromo- (8CI)",354.15,le15,1
O=[N+]([O-])C(Br)(CO)CO,"1,3-Propanediol, 2-bromo-2-nitro-",443.45,le15,1
O=CNc1ccc(Br)cc1,"Formamide, N-(4-bromophenyl)- (9CI)",429.15,le15,1
OCC(F)(F)C(F)(F)C(F)(F)F,"1-Butanol, 2,2,3,3,4,4,4-heptafluoro-",298.15,le15,1
FCOC(C(F)(F)F)C(F)(F)F,"Ether, fluoromethyl 2,2,2-trifluoro-1-(trifluoromethyl)ethyl-",331.15,le15,1
CN(C)c1ccc(Br)cc1,"4-bromo-N,N-dimethylaniline",377.85,le15,1
N#Cc1c(F)c(F)c(C#N)c(F)c1F,"Terephthalonitrile, tetrafluoro- (8CI)",374.05,le15,1
Fc1c(F)c(F)c(S)c(F)c1F,"2,3,4,5,6-pentafluorobenzenethiol",324.85,le15,1
C=C(C)C(=O)OCC(F)(F)C(F)F,"2,2,3,3-tetrafluoropropyl 2-methylprop-2-enoate",323.75,le15,1
Cc1ccc2nc(C(F)(F)F)[nH]c2c1,"Benzimidazole, 5-methyl-2-(trifluoromethyl)-",397.55,le15,1
Oc1ccc(OCc2ccccc2)cc1,"Phenol, 4-(phenylmethoxy)-",486.55,le15,1
Oc1ccc(Cc2ccc(O)cc2)cc1,"Phenol, 4,4'-methylenedi- (8CI)",466.05,le15,1
COc1ccccc1Oc1ccccc1,o-Methoxyphenyl phenylether,385.15,le15,1
c1ccc2c(OCC3CO3)cccc2c1,"Naphthalene, 1-(2,3-epoxypropoxy)-",425.15,le15,1
Oc1ccc(Cc2ccccc2O)cc1,"Phenol, 2,4'-methylenedi- (8CI)",458.05,le15,1
CCOC(=O)c1ccc2ccccc2c1,ethyl naphthalene-2-carboxylate,421.85,le15,1
c1ccc2cc(OCC3CO3)ccc2c1,"Oxirane, ((2-naphthalenyloxy)methyl)- (9CI)",425.15,le15,1
CCOC(=O)c1cccc2ccccc12,ethyl naphthalene-1-carboxylate,421.85,le15,1
COC(=O)C1CCC(C(=O)OC)CC1,"dimethyl cyclohexane-1,4-dicarboxylate",367.15,le15,1
CC=CC(C(=O)OCC)C(=O)OCC,"Propanedioic acid, 2-propenyl-, diethyl ester",365.15,le15,1
CCCOC(=O)/C=C/C(=O)OCCC,dipropyl (E)-but-2-enedioate,392.75,le15,1
CCOC(=O)C1(C(=O)OCC)CCC1,"diethyl cyclobutane-1,1-dicarboxylate",362.15,le15,1
CCOC(=O)C(C(=O)OCC)=C(C)C,"Propanedioic acid, (1-methylethylidene)-, diethyl ester",382.55,le15,1
c1ccc2c(c1)OSc1ccccc1-2,Dibenzooxathiane,415.85,le15,1
O=S1c2ccccc2-c2ccccc21,"Dibenzothiophene, 5-oxide (8CI)(9CI)",469.35,le15,1
CCOS(=O)(=O)c1ccc(C)cc1,"Benzenesulfonic acid, 4-methyl-, ethyl ester",430.15,le15,1
CCN1C(=O)CC(=O)N(CC)C1=S,"Barbituric acid, 1,3-diethyl-2-thio- (8CI)",392.35,le15,1
CN1CCC(c2c[nH]c3ccccc23)C1,"1H-Indole, 3-(1-methyl-3-pyrrolidinyl)- (9CI)",445.65,le15,1
C1CN(CCN2CCOCC2)CCO1,4-(2-morpholin-4-ylethyl)morpholine,352.75,le15,1
CCCCCCCCCC(=O)OCC,"Decanoic acid, ethyl ester",375.15,le15,1
CCCCCCCCOC(=O)CCC,octyl butanoate,376.45,le15,1
CCCCCCCCCCOC(C)=O,"Acetic acid, decyl ester",374.45,le15,1
CCCCCCCCCCC(=O)OC,"Undecanoic acid, methyl ester",382.55,le15,1
CCCCCCCOC(=O)CCCC,heptyl pentanoate,372.15,le15,1
CCCCCCOC(=O)CCCCC,hexyl hexanoate,372.55,le15,1
CCCCCCC(=O)OCCCCC,pentyl heptanoate,372.15,le15,1
CCCCCCCCOC(=O)C(C)C,"Isobutyric acid, octyl ester (6CI,7CI,8CI)",367.15,le15,1
CCCCCCCC(=O)OCCCC,butyl octanoate,372.15,le15,1
NCCCN1CCN(CCCN)CC1,"N,N'-Bis(3-aminopropyl)piperazine",436.15,le15,1
O=[N+]([O-])OCC(CCl)O[N+](=O)[O-],(1-chloro-3-nitrooxypropan-2-yl) nitrate,378.75,le15,1
CC(Oc1cccc(Cl)c1)C(=O)O,"Propanoic acid, 2-(3-chlorophenoxy)-",419.55,le15,1
Cc1cc(Cl)ccc1OCC(=O)O,"Acetic acid, (4-chloro-2-methylphenoxy)-",424.75,le15,1
Cc1cc(OCCO)cc(C)c1Cl,"Ethanol, 2-(4-chloro-3,5-dimethylphenoxy)- (9CI)",421.95,le15,1
O=Cc1ccc(O)c(Br)c1,"Benzaldehyde, 3-bromo-4-hydroxy-",384.95,le15,1
O=C(O)c1cccc(Br)c1,3-bromobenzoic acid,413.35,le15,1
O=Cc1cc(Br)ccc1O,"Benzaldehyde, 5-bromo-2-hydroxy-",376.55,le15,1
CCOc1ccc(Br)cc1,1-bromo-4-ethoxybenzene,375.95,le15,1
Cc1cc(Br)cc(C)c1O,"Phenol, 4-bromo-2,6-dimethyl-",379.95,le15,1
Nc1cc(F)c([N+](=O)[O-])cc1[N+](=O)[O-],"Benzenamine, 5-fluoro-2,4-dinitro-",483.95,le15,1
Nc1n[nH]c2ccc(C(F)(F)F)cc12,"1H-Indazol-3-amine, 5-(trifluoromethyl)- (9CI)",443.75,le15,1
Nc1ccc2nc(C(F)(F)F)[nH]c2c1,"Benzimidazole, 5-amino-2-(trifluoromethyl)-",440.45,le15,1
CNC(=O)Oc1cccc2ccccc12,"Carbamic acid, methyl-, 1-naphthyl ester",426.15,le15,1
CC(=O)N(O)c1ccc2ccccc2c1,"Acetamide, N-hydroxy-N-2-naphthalenyl- (9CI)",456.95,le15,1
Cc1c(O)nc(N)nc1-c1ccccc1,"4-Pyrimidinol, 2-amino-5-methyl-6-phenyl-",455.35,le15,1
c1ccc2[nH]c(-c3cscn3)nc2c1,"1H-Benzimidazole, 2-(4-thiazolyl)-",499.35,le15,1
C=C(C)c1cccc(C(C)(C)N=C=O)c1,"Benzene, 1-(1-isocyanato-1-methylethyl)-3-(1-methylethenyl)-",406.45,le15,1
C=C(C)c1ccc(C(C)(C)N=C=O)cc1,"Isocyanic acid, p-isopropenyl-alpha,alpha-dimethylbenzyl ester",357.15,le15,1
NCCCCCCCCCCC(=O)O,"Undecanoic acid, 11-amino-",429.45,le15,1
CCO[Si](C)(CCCC#N)OCC,"Silane, (3-cyanopropyl)diethoxy(methyl)-",377.25,le15,1
O=C(O)c1ccc(Cl)c([N+](=O)[O-])c1,"Benzoic acid, 4-chloro-3-nitro-",451.65,le15,1
CCNc1nc(Cl)nc(NCC)n1,"1,3,5-Triazine-2,4-diamine, 6-chloro-N,N'-diethyl-",448.15,le15,1
CNc1nc(Cl)nc(NC(C)C)n1,"1,3,5-Triazine-2,4-diamine, 6-chloro-N-methyl-N'-(1-methylethyl)-",443.25,le15,1
S=c1[nH]c2cc(Cl)ccc2s1,"2(3H)-Benzothiazolethione, 5-chloro- (9CI)",428.45,le15,1
O=C(Br)CBr,2-bromoacetyl bromide,345.15,le15,1
CC(C)(Br)Br,"2,2-dibromopropane",274.85,le15,1
CC(Br)CBr,"Propane, 1,2-dibromo-",308.15,le15,1