smiles,compound,flashpoint,source,pure substance
C=CN1CCCC1=O,1-ethenylpyrrolidin-2-one,366.15,pubchem,1
CC(C)(C)C1=CC=CC=C1O,2-tert-butylphenol,383.15,pubchem,1
CC(C)C1=CC=CC=C1O,2-propan-2-ylphenol,377.15,pubchem,1
CC1=CC=CC=C1[N+](=O)[O-],1-methyl-2-nitrobenzene,379.15,pubchem,1
C1=CC=C(C(=C1)[N+](=O)[O-])Cl,1-chloro-2-nitrobenzene,400.15,pubchem,1
C1=CC=C(C(=C1)N)[N+](=O)[O-],2-nitroaniline,441.15,pubchem,1
C1=CC=C(C(=C1)[N+](=O)[O-])O,2-nitrophenol,381.15,pubchem,1
C1=C(C=C(C(=C1[N+](=O)[O-])O)[N+](=O)[O-])[N+](=O)[O-],"2,4,6-trinitrophenol",423.15,pubchem,1
C1=CC(=C(C=C1Cl)[N+](=O)[O-])Cl,"1,4-dichloro-2-nitrobenzene",408.15,pubchem,1
CC1=CC(=C(C=C1)N)[N+](=O)[O-],4-methyl-2-nitroaniline,430.15,pubchem,1
CCC(C)C1=CC=CC=C1O,2-butan-2-ylphenol,385.15,pubchem,1
CC1=CC(=C(C=C1)C(C)C)O,5-methyl-2-propan-2-ylphenol,383.15,pubchem,1
CC1=CC(=C(C=C1)[N+](=O)[O-])C,"2,4-dimethyl-1-nitrobenzene",380.15,pubchem,1
CC1=CC=CC=C1CBr,1-(bromomethyl)-2-methylbenzene,355.15,pubchem,1
C1=CC=C(C(=C1)C=O)Cl,2-chlorobenzaldehyde,361.15,pubchem,1
CCC1=CC=CC=C1O,2-ethylphenol,351.15,pubchem,1
C1=CC=C(C(=C1)C=O)O,2-hydroxybenzaldehyde,351.15,pubchem,1
COC1=CC=CC=C1N,2-methoxyaniline,372.15,pubchem,1
C1=CC=C2C(=C1)C=CC=C2Cl,1-chloronaphthalene,394.15,pubchem,1
C1=CC=C2C(=C1)C=CC=C2O,naphthalen-1-ol,426.15,pubchem,1
C1=CC=C(C=C1)C2=CC=CC=C2O,2-phenylphenol,397.15,pubchem,1
CN(C)CC1=CC(=C(C(=C1)CN(C)C)O)CN(C)C,"2,4,6-tris[(dimethylamino)methyl]phenol",397.15,pubchem,1
CC1=C(C=CC=C1N=C=O)N=C=O,"1,3-diisocyanato-2-methylbenzene",405.15,pubchem,1
C1=CC=C(C(=C1)C#N)C#N,"benzene-1,2-dicarbonitrile",435.15,pubchem,1
C1CCC2CCCCC2C1,"1,2,3,4,4a,5,6,7,8,8a-decahydronaphthalene",330.15,pubchem,1
C1=CC=C2C(=C1)C=CC=N2,quinoline,332.15,pubchem,1
COC1=CC=CC=C1[N+](=O)[O-],1-methoxy-2-nitrobenzene,415.15,pubchem,1
CCCCN(C1=CC=CC=C1)C(=O)C,N-butyl-N-phenylacetamide,414.15,pubchem,1
CC1=CC2=CC=CC=C2C=C1,2-methylnaphthalene,371.15,pubchem,1
C1=CC=C2C=C(C=CC2=C1)Cl,2-chloronaphthalene,398.15,pubchem,1
C1=CC=C2C=C(C=CC2=C1)N,naphthalen-2-amine,430.15,pubchem,1
CC1=NC2=CC=CC=C2C=C1,2-methylquinoline,352.15,pubchem,1
CCN(CC)C1=CC=CC=C1,"N,N-diethylaniline",358.15,pubchem,1
C1=CC=C(C=C1)C2=CC(=CC=C2)C3=CC=CC=C3,"1,3-diphenylbenzene",464.15,pubchem,1
CC1=CC2=C(C=C1)OC(=O)C=C2,6-methylchromen-2-one,403.15,pubchem,1
C1=CC=C(C=C1)C2=CC=CC=C2,"1,1'-biphenyl",386.15,pubchem,1
C1=CC=C(C=C1)C2=CC=C(C=C2)Br,1-bromo-4-phenylbenzene,416.15,pubchem,1
C1=CC=C(C=C1)C2=CC=C(C=C2)O,4-phenylphenol,439.15,pubchem,1
C1=CC=C2C(=C1)NC3=CC=CC=C3S2,10H-phenothiazine,475.15,pubchem,1
C1=CC=C(C=C1)C2=CC=C(C=C2)[N+](=O)[O-],1-nitro-4-phenylbenzene,416.15,pubchem,1
C1=CC=C(C=C1)C2=CC=C(C=C2)C3=CC=CC=C3,"1,4-diphenylbenzene",480.15,pubchem,1
COC1=C(C=C(C=C1)CC=C)OC,"1,2-dimethoxy-4-prop-2-enylbenzene",372.15,pubchem,1
COC(=O)C1=CC=CC=C1,methyl benzoate,356.15,pubchem,1
C=CCN(CC=C)C(=O)CCl,"2-chloro-N,N-bis(prop-2-enyl)acetamide",459.15,pubchem,1
CCCCOC(=O)C1=CC=C(C=C1)O,butyl 4-hydroxybenzoate,454.15,pubchem,1
C1=CC=C(C=C1)C(=O)OOC(=O)C2=CC=CC=C2,benzoyl benzenecarboperoxoate,353.15,pubchem,1
CCCC(C(CC)CO)O,"2-ethylhexane-1,3-diol",400.15,pubchem,1
CCC(CC)C(=O)OCCOCCOCCOC(=O)C(CC)CC,2-[2-[2-(2-ethylbutanoyloxy)ethoxy]ethoxy]ethyl 2-ethylbutanoate,469.15,pubchem,1
C1C=CC2=CC=CC=C21,1H-indene,351.15,pubchem,1
C1=CC2=NNN=C2C=C1,2H-benzotriazole,443.15,pubchem,1
CC1=CC=CC=C1Br,1-bromo-2-methylbenzene,352.15,pubchem,1
CC1=CC=CC=C1C,"1,2-xylene",290.15,pubchem,1
CC1=CC=CC=C1Cl,1-chloro-2-methylbenzene,325.15,pubchem,1
C1=CC=C(C(=C1)Cl)Cl,"1,2-dichlorobenzene",339.15,pubchem,1
C1=CC=C(C(=C1)N)Cl,2-chloroaniline,371.15,pubchem,1
CC1=CC=CC=C1F,1-fluoro-2-methylbenzene,286.15,pubchem,1
CC1=CC=CC=C1N,2-methylaniline,358.15,pubchem,1
C1=CC=C(C(=C1)N)N,"benzene-1,2-diamine",429.15,pubchem,1
C1=CC=C(C(=C1)O)Br,2-bromophenol,315.15,pubchem,1
C1=CC=C(C(=C1)O)Cl,2-chlorophenol,337.15,pubchem,1
CC1=CC(=C(C=C1)C)C,"1,2,4-trimethylbenzene",317.15,pubchem,1
CC1=C(C=C(C=C1)N)C,"3,4-dimethylaniline",371.15,pubchem,1
CC1=CC(=C(C=C1)N)C,"2,4-dimethylaniline",369.15,pubchem,1
CC1=C(C=CC(=C1)Cl)N,4-chloro-2-methylaniline,433.15,pubchem,1
CC1=C(C=C(C=C1)Cl)Cl,"2,4-dichloro-1-methylbenzene",472.15,pubchem,1
CC1=C(C=C(C=C1)N)Cl,3-chloro-4-methylaniline,373.15,pubchem,1
C1=CC(=C(C=C1N)Cl)Cl,"3,4-dichloroaniline",439.15,pubchem,1
CC1=CC(=C(C=C1)C)N,"2,5-dimethylaniline",367.15,pubchem,1
CC1=C(C=C(C=C1)N)N,"4-methylbenzene-1,3-diamine",422.15,pubchem,1
C1=CC(=C(C=C1Cl)N)Cl,"2,5-dichloroaniline",386.15,pubchem,1
C1=CC(=C(C=C1Cl)N)O,2-amino-4-chlorophenol,443.15,pubchem,1
CCOC(=O)C(=O)OCC,diethyl oxalate,349.15,pubchem,1
CC1=CC(=C(C=C1C)C)C,"1,2,4,5-tetramethylbenzene",327.15,pubchem,1
C1=C(C(=CC(=C1Cl)Cl)Cl)Cl,"1,2,4,5-tetrachlorobenzene",428.15,pubchem,1
C1=C(C(=CC(=C1Cl)Cl)Cl)O,"2,4,5-trichlorophenol",406.15,pubchem,1
C1C(O1)C2=CC=CC=C2,2-phenyloxirane,352.15,pubchem,1
CC[Al](CC)Cl,chloro(diethyl)alumane,250.15,pubchem,1
C(C(CBr)Br)Cl,"1,2-dibromo-3-chloropropane",350.15,pubchem,1
C(C(CCl)Cl)Cl,"1,2,3-trichloropropane",355.15,pubchem,1
C(C(=CCl)Cl)Cl,"1,2,3-trichloroprop-1-ene",358.15,pubchem,1
CCC(=O)CC,pentan-3-one,286.15,pubchem,1
C(C(CCl)O)Cl,"1,3-dichloropropan-2-ol",347.15,pubchem,1
C(C(CCl)O)O,"3-chloropropane-1,2-diol",332.15,pubchem,1
CCC(=NO)C,N-butan-2-ylidenehydroxylamine,332.15,pubchem,1
CNC(=O)NC,"1,3-dimethylurea",427.15,pubchem,1
COC(=O)C=C,methyl prop-2-enoate,280.15,pubchem,1
COC(=O)CCl,methyl 2-chloroacetate,325.15,pubchem,1
CC1CCCC1,methylcyclopentane,249.15,pubchem,1
C1CCC(C1)O,cyclopentanol,324.15,pubchem,1
C1CC(=O)OC1,oxolan-2-one,371.15,pubchem,1
C1COC(=O)O1,"1,3-dioxolan-2-one",416.15,pubchem,1
CC1=CC(=C(C=C1SC2=CC(=C(C=C2C)O)C(C)(C)C)C(C)(C)C)O,2-tert-butyl-4-(5-tert-butyl-4-hydroxy-2-methylphenyl)sulfanyl-5-methylphenol,489.15,pubchem,1
CC(C)N(CCO)C(C)C,2-[di(propan-2-yl)amino]ethanol,352.15,pubchem,1
C1=CC(=C(C=C1[N+](=O)[O-])[N+](=O)[O-])N,"2,4-dinitroaniline",497.15,pubchem,1
CC1=CCC(CC1OC(=O)C)C(=C)C,(2-methyl-5-prop-1-en-2-ylcyclohex-2-en-1-yl) acetate,370.15,pubchem,1
CCOC(=O)C(=C)C,ethyl 2-methylprop-2-enoate,289.15,pubchem,1
CCOC(=O)C(C)O,ethyl 2-hydroxypropanoate,319.15,pubchem,1
CC(C)C(=O)OC(=O)C(C)C,2-methylpropanoyl 2-methylpropanoate,332.15,pubchem,1
CC(CCN(C)C)N(C)C,"1-N,1-N,3-N,3-N-tetramethylbutane-1,3-diamine",319.15,pubchem,1
CC(C)COC(=O)C(C)C,2-methylpropyl 2-methylpropanoate,310.15,pubchem,1
CC(C)COC(=O)C(=C)C,2-methylpropyl 2-methylprop-2-enoate,322.15,pubchem,1
CCCCOC(=O)C(=C)C,butyl 2-methylprop-2-enoate,325.15,pubchem,1
CC(=C)C(=O)OCCOC(=O)C(=C)C,2-(2-methylprop-2-enoyloxy)ethyl 2-methylprop-2-enoate,374.15,pubchem,1
B(CC)(CC)CC,triethylborane,237.15,pubchem,1
CCC(CC)CO,2-ethylbutan-1-ol,326.15,pubchem,1
CCC(CC)C=O,2-ethylbutanal,294.15,pubchem,1
C1CC(OC1)CO,oxolan-2-ylmethanol,348.15,pubchem,1
C1=COC(=C1)CO,furan-2-ylmethanol,348.15,pubchem,1
C1=COC(=C1)C=O,furan-2-carbaldehyde,333.15,pubchem,1
CC(C)(C)C1=CC=CC=C1,tert-butylbenzene,333.15,pubchem,1
C1=CC=C(C=C1)C(Cl)(Cl)Cl,trichloromethylbenzene,400.15,pubchem,1
C1=CC=C(C=C1)C(F)(F)F,trifluoromethylbenzene,285.15,pubchem,1
C1=CC=C(C=C1)S(=O)(=O)O,benzenesulfonic acid,386.15,pubchem,1
C1=CC=C(C=C1)[Si](Cl)(Cl)Cl,trichloro(phenyl)silane,364.15,pubchem,1
C1=CC(=CC(=C1)Cl)C(F)(F)F,1-chloro-3-(trifluoromethyl)benzene,320.15,pubchem,1
C1=CC(=CC(=C1)N)C(F)(F)F,3-(trifluoromethyl)aniline,358.15,pubchem,1
C1=CC(=CC(=C1)[N+](=O)[O-])C(F)(F)F,1-nitro-3-(trifluoromethyl)benzene,374.15,pubchem,1
CC1=CC=C(C=C1)C(C)(C)C,1-tert-butyl-4-methylbenzene,331.15,pubchem,1
CC(C)(C)C1=CC=C(C=C1)O,4-tert-butylphenol,386.15,pubchem,1
C1=CC(=CC=C1C(F)(F)F)Cl,1-chloro-4-(trifluoromethyl)benzene,320.15,pubchem,1
CC1=CC=C(C=C1)S(=O)(=O)Cl,4-methylbenzenesulfonyl chloride,401.15,pubchem,1
CC(C)C1=CC=CC=C1,cumene,309.15,pubchem,1
CC(=C)C1=CC=CC=C1,prop-1-en-2-ylbenzene,327.15,pubchem,1
CC(C1=CC=CC=C1)N,1-phenylethanamine,352.15,pubchem,1
CC(C1=CC=CC=C1)O,1-phenylethanol,358.15,pubchem,1
CC(=O)C1=CC=CC=C1,1-phenylethanone,355.15,pubchem,1
C1=CC=C(C=C1)C(Cl)Cl,dichloromethylbenzene,365.15,pubchem,1
C1=CC=C(C=C1)C(=O)Cl,benzoyl chloride,345.15,pubchem,1
CN(C)C1CCCCC1,"N,N-dimethylcyclohexanamine",315.15,pubchem,1
C1=CC=C(C=C1)[N+](=O)[O-],nitrobenzene,361.15,pubchem,1
CC1=CC(=CC=C1)[N+](=O)[O-],1-methyl-3-nitrobenzene,379.15,pubchem,1
CC1=C(C=C(C=C1)[N+](=O)[O-])C,"1,2-dimethyl-4-nitrobenzene",380.15,pubchem,1
C1=CC(=C(C=C1[N+](=O)[O-])Cl)Cl,"1,2-dichloro-4-nitrobenzene",397.15,pubchem,1
C1=CC(=CC(=C1)C(=O)Cl)C(=O)Cl,"benzene-1,3-dicarbonyl chloride",453.15,pubchem,1
C1=CC(=CC(=C1)[N+](=O)[O-])[N+](=O)[O-],"1,3-dinitrobenzene",423.15,pubchem,1
CC1=CC=C(C=C1)C(=O)OC,methyl 4-methylbenzoate,369.15,pubchem,1
CC1=CC=C(C=C1)C(C)C,1-methyl-4-propan-2-ylbenzene,320.15,pubchem,1
CC1=CC=C(C=C1)N(C)C,"N,N,4-trimethylaniline",349.15,pubchem,1
CN(C)C1=CC=C(C=C1)N,"4-N,4-N-dimethylbenzene-1,4-diamine",364.15,pubchem,1
CC1=CC=C(C=C1)[N+](=O)[O-],1-methyl-4-nitrobenzene,379.15,pubchem,1
C1=CC(=CC=C1[N+](=O)[O-])Cl,1-chloro-4-nitrobenzene,383.15,pubchem,1
C1=CC(=CC=C1N)[N+](=O)[O-],4-nitroaniline,472.15,pubchem,1
CC(=O)C1=CC=C(C=C1)OC,1-(4-methoxyphenyl)ethanone,411.15,pubchem,1
C1=CC(=CC=C1C(=O)Cl)C(=O)Cl,"benzene-1,4-dicarbonyl chloride",453.15,pubchem,1
C1=CC(=CC=C1C(=O)O)C(=O)O,terephthalic acid,533.15,pubchem,1
C1=CC(=CC=C1[N+](=O)[O-])[N+](=O)[O-],"1,4-dinitrobenzene",423.15,pubchem,1
CCN(CC)CCO,2-(diethylamino)ethanol,333.15,pubchem,1
C1=CC=C(C=C1)CBr,bromomethylbenzene,360.15,pubchem,1
C=CC1CCC=CC1,4-ethenylcyclohexene,289.15,pubchem,1
CCC1=CC=CC=C1,ethylbenzene,288.15,pubchem,1
C=CC1=CC=CC=C1,styrene,304.15,pubchem,1
C1=CC=C(C=C1)CCl,chloromethylbenzene,340.15,pubchem,1
C1=CC=C(C=C1)CN,phenylmethanamine,349.15,pubchem,1
C1=CC=C(C=C1)C#N,benzonitrile,345.15,pubchem,1
C1CC(CC=C1)C=O,cyclohex-3-ene-1-carbaldehyde,330.15,pubchem,1
C1=CC=C(C=C1)CS,phenylmethanethiol,343.15,pubchem,1
CNC1=CC=CC=C1,N-methylaniline,352.15,pubchem,1
C1=CC=C(C=C1)NN,phenylhydrazine,361.15,pubchem,1
COC1=CC=CC=C1,anisole,325.15,pubchem,1
C=CC1=CC=CC=N1,2-ethenylpyridine,315.15,pubchem,1
CCN1CCOCC1,4-ethylmorpholine,301.15,pubchem,1
CC1(OCC(O1)CO)C,"(2,2-dimethyl-1,3-dioxolan-4-yl)methanol",353.15,pubchem,1
CC1=CC=CC(=C1)C=C,1-ethenyl-3-methylbenzene,333.15,pubchem,1
C1=CC=C(C=C1)OP(OC2=CC=CC=C2)OC3=CC=CC=C3,triphenyl phosphite,491.15,pubchem,1
C1=CC(=C(C=C1CC2=CC(=C(C=C2)N)Cl)Cl)N,4-[(4-amino-3-chlorophenyl)methyl]-2-chloroaniline,386.15,pubchem,1
C1=CC(=CC(=C1)Cl)NC(=O)OCC#CCCl,4-chlorobut-2-ynyl N-(3-chlorophenyl)carbamate,323.15,pubchem,1
CC(=CC1=CC=CC=C1)C=O,2-methyl-3-phenylprop-2-enal,352.15,pubchem,1
C1=CC=C(C=C1)NC2=CC=C(C=C2)N,"4-N-phenylbenzene-1,4-diamine",466.15,pubchem,1
CN(C)C1=CC=C(C=C1)CC2=CC=C(C=C2)N(C)C,"4-[[4-(dimethylamino)phenyl]methyl]-N,N-dimethylaniline",484.15,pubchem,1
CCCCCCCCC1=CC=C(C=C1)NC2=CC=C(C=C2)CCCCCCCC,4-octyl-N-(4-octylphenyl)aniline,486.15,pubchem,1
C1=CC(=CC=C1CC2=CC=C(C=C2)N=C=O)N=C=O,1-isocyanato-4-[(4-isocyanatophenyl)methyl]benzene,491.15,pubchem,1
CC(C)NC1=CC=C(C=C1)NC2=CC=CC=C2,"1-N-phenyl-4-N-propan-2-ylbenzene-1,4-diamine",424.15,pubchem,1
C1=CC(=CC=C1CC2=CC=C(C=C2)N)N,4-[(4-aminophenyl)methyl]aniline,494.15,pubchem,1
C1=CC(=CC=C1N)OC2=CC=C(C=C2)N,4-(4-aminophenoxy)aniline,492.15,pubchem,1
C1=CC=C(C=C1)CC2=CC=CC=C2,benzylbenzene,403.15,pubchem,1
C1=CC=C(C=C1)OC2=CC=CC=C2,phenoxybenzene,388.15,pubchem,1
C1C(O1)COC2=CC(=CC=C2)OCC3CO3,2-[[3-(oxiran-2-ylmethoxy)phenoxy]methyl]oxirane,450.15,pubchem,1
CCC(C)NC1=CC=C(C=C1)NC(C)CC,"1-N,4-N-di(butan-2-yl)benzene-1,4-diamine",414.15,pubchem,1
CCOC(=O)CC1=CC=CC=C1,ethyl 2-phenylacetate,372.15,pubchem,1
CC(=O)CC(=O)NC1=CC=CC=C1,3-oxo-N-phenylbutanamide,436.15,pubchem,1
C1=CC=C(C=C1)NC(=NC2=CC=CC=C2)N,"1,2-diphenylguanidine",471.15,pubchem,1
C1C=CC=C1,"InChI=1S/C5H6/c1-2-4-5-3-1/h1-4H,5H2",298.15,pubchem,1
CCCN(CCC)CCC,"N,N-dipropylpropan-1-amine",310.15,pubchem,1
C=CCN(CC=C)CC=C,"N,N-bis(prop-2-enyl)prop-2-en-1-amine",312.15,pubchem,1
C(CO)N(CCO)CCO,2-[bis(2-hydroxyethyl)amino]ethanol,458.15,pubchem,1
CCCCN(CCCC)CCO,2-(dibutylamino)ethanol,372.15,pubchem,1
CCCCN(CCCC)CCCC,"N,N-dibutylbutan-1-amine",358.15,pubchem,1
CCCCC(CC)COC(=O)C,2-ethylhexyl acetate,361.15,pubchem,1
CCCCC(CC)COC(=O)C=C,2-ethylhexyl prop-2-enoate,355.15,pubchem,1
CCCCC(CC)COC(=O)CCCCC(=O)OCC(CC)CCCC,bis(2-ethylhexyl) hexanedioate,469.15,pubchem,1
C1COCCN1SSN2CCOCC2,4-(morpholin-4-yldisulfanyl)morpholine,394.15,pubchem,1
C1=CC=C(C=C1)COCC2=CC=CC=C2,phenylmethoxymethylbenzene,408.15,pubchem,1
CCCC1=CC=CC=C1,propylbenzene,321.15,pubchem,1
CCNC1=CC=CC=C1,N-ethylaniline,358.15,pubchem,1
C1=CC=C(C=C1)N=C=O,isocyanatobenzene,329.15,pubchem,1
CCOC1=CC=CC=C1,ethoxybenzene,336.15,pubchem,1
CCOC1CCC=CO1,"2-ethoxy-3,4-dihydro-2H-pyran",310.15,pubchem,1
CN(C)CC1=CC=CC=C1,"N,N-dimethyl-1-phenylmethanamine",330.15,pubchem,1
CC1=CC=C(C=C1)NC(=O)C,N-(4-methylphenyl)acetamide,441.15,pubchem,1
C1=CC(=CC=C1N=C=O)Cl,1-chloro-4-isocyanatobenzene,383.15,pubchem,1
CCCCC1=CC=CC=C1,butylbenzene,344.15,pubchem,1
CCCCCCCCCCC1=CC=CC=C1,decylbenzene,380.15,pubchem,1
CCCCC(CC)CN,2-ethylhexan-1-amine,333.15,pubchem,1
CCCCC(CC)CO,2-ethylhexan-1-ol,354.15,pubchem,1
CC1=CC=C(C=C1)CBr,1-(bromomethyl)-4-methylbenzene,371.15,pubchem,1
CC1=CC=C(C=C1)C#N,4-methylbenzonitrile,358.15,pubchem,1
C1=CC(=CC=C1C=O)Cl,4-chlorobenzaldehyde,361.15,pubchem,1
CCC1=CN=C(C=C1)C,5-ethyl-2-methylpyridine,341.15,pubchem,1
COC1=CC=C(C=C1)N,4-methoxyaniline,278.15,pubchem,1
CCC1=CC=C(C=C1)CC,"1,4-diethylbenzene",329.15,pubchem,1
C1CC(CCC1CO)CO,[4-(hydroxymethyl)cyclohexyl]methanol,439.15,pubchem,1
CCCC(C)CO,2-methylpentan-1-ol,327.15,pubchem,1
CCOC(=O)CBr,ethyl 2-bromoacetate,321.15,pubchem,1
CCC(=O)OCC,ethyl propanoate,285.15,pubchem,1
CCOC(=O)CCl,ethyl 2-chloroacetate,311.15,pubchem,1
CCOC(=O)NC,ethyl N-methylcarbamate,346.15,pubchem,1
CC(=O)CC(=O)OC,methyl 3-oxobutanoate,343.15,pubchem,1
CCC(C)OC(=O)C,butan-2-yl acetate,290.15,pubchem,1
CCOC(=O)CC(=O)OCC,diethyl propanedioate,366.15,pubchem,1
CCCC(=O)OCC,ethyl butanoate,297.15,pubchem,1
CCOC(=O)CC#N,ethyl 2-cyanoacetate,383.15,pubchem,1
CCOC(C)OCC,"1,1-diethoxyethane",252.15,pubchem,1
CCOC(=O)OCC,diethyl carbonate,298.15,pubchem,1
CN(CCO)CCO,2-[2-hydroxyethyl(methyl)amino]ethanol,400.15,pubchem,1
C1CCC(=O)NCC1,azepan-2-one,398.15,pubchem,1
CCCCOC(=O)CCCCC(=O)OCCCC,dibutyl hexanedioate,386.15,pubchem,1
CCCCC(CC)CNCC(CC)CCCC,2-ethyl-N-(2-ethylhexyl)hexan-1-amine,405.15,pubchem,1
CC(CCC=C(C)C)CC=O,"3,7-dimethyloct-6-enal",347.15,pubchem,1
CCCC(=O)OC(=O)CCC,butanoyl butanoate,355.15,pubchem,1
CCCCC(=O)CC,heptan-3-one,319.15,pubchem,1
CC1=CC=C(C=C1)Br,1-bromo-4-methylbenzene,358.15,pubchem,1
CC1=CC=C(C=C1)C,"1,4-xylene",300.15,pubchem,1
CC1=CC=C(C=C1)Cl,1-chloro-4-methylbenzene,413.15,pubchem,1
C1=CC(=CC=C1N)Cl,4-chloroaniline,386.15,pubchem,1
CC1=CC=C(C=C1)N,4-methylaniline,360.15,pubchem,1
C1=CC(=CC=C1N)N,"benzene-1,4-diamine",428.15,pubchem,1
CC(C)COC(=O)C=C,2-methylpropyl prop-2-enoate,303.15,pubchem,1
COC(=O)CCC(=O)OC,dimethyl butanedioate,358.15,pubchem,1
CCC(C)CC(=O)CC,5-methylheptan-3-one,316.15,pubchem,1
CCCCCC(=O)OC,methyl hexanoate,346.15,pubchem,1
C=CC(=O)OCCC#N,2-cyanoethyl prop-2-enoate,397.15,pubchem,1
C(COC(=O)Cl)OCCOC(=O)Cl,2-(2-carbonochloridoyloxyethoxy)ethyl carbonochloridate,568.15,pubchem,1
CCCCCCCCC1C(O1)CCCCCCCC(=O)OCCCCCCCC,octyl 8-(3-octyloxiran-2-yl)octanoate,490.15,pubchem,1
C1CC2C(O2)CC1C3CO3,3-(oxiran-2-yl)-7-oxabicyclo[4.1.0]heptane,383.15,pubchem,1
CCC1CO1,2-ethyloxirane,261.15,pubchem,1
C1C(O1)CCl,2-(chloromethyl)oxirane,307.15,pubchem,1
C=CC(=O)OCC1CO1,oxiran-2-ylmethyl prop-2-enoate,334.15,pubchem,1
CC(=C)C(=O)OCC1CO1,oxiran-2-ylmethyl 2-methylprop-2-enoate,356.15,pubchem,1
C=CCOCC1CO1,2-(prop-2-enoxymethyl)oxirane,330.15,pubchem,1
CCCBr,1-bromopropane,299.15,pubchem,1
C=CCBr,3-bromoprop-1-ene,271.15,pubchem,1
C#CCBr,3-bromoprop-1-yne,283.15,pubchem,1
CCCC,butane,213.15,pubchem,1
CCC=C,but-1-ene,194.15,pubchem,1
C=CC=C,"buta-1,3-diene",197.15,pubchem,1
C=CC=O,prop-2-enal,247.15,pubchem,1
CCCS,propane-1-thiol,258.15,pubchem,1
C=CCCl,3-chloroprop-1-ene,241.15,pubchem,1
CCCN,propan-1-amine,236.15,pubchem,1
C=CCN,prop-2-en-1-amine,244.15,pubchem,1
CCC#N,propanenitrile,275.15,pubchem,1
C=CC#N,prop-2-enenitrile,273.15,pubchem,1
C(C#N)Cl,2-chloroacetonitrile,321.15,pubchem,1
C=CCO,prop-2-en-1-ol,295.15,pubchem,1
C#CCO,prop-2-yn-1-ol,306.15,pubchem,1
C(=O)C=O,oxaldehyde,493.15,pubchem,1
COC=C,methoxyethene,217.15,pubchem,1
COCCl,chloro(methoxy)methane,273.15,pubchem,1
COC=O,methyl formate,241.15,pubchem,1
C=CC[Si](Cl)(Cl)Cl,trichloro(prop-2-enyl)silane,308.15,pubchem,1
CC(=C)CC(C)(C)C,"2,4,4-trimethylpent-1-ene",275.15,pubchem,1
CC(=CC(C)(C)C)C,"2,4,4-trimethylpent-2-ene",275.15,pubchem,1
CC(CC(C)(C)O)O,"2-methylpentane-2,4-diol",366.15,pubchem,1
CCCCOP(=O)(O)OCCCC,dibutyl hydrogen phosphate,461.15,pubchem,1
CC(=O)CC(C)(C)OC,4-methoxy-4-methylpentan-2-one,334.15,pubchem,1
CCCCC[Si](Cl)(Cl)Cl,trichloro(pentyl)silane,336.15,pubchem,1
CCCC(C)Br,2-bromopentane,294.15,pubchem,1
CCCC(C)C,2-methylpentane,244.15,pubchem,1
CCCC(=O)C,pentan-2-one,280.15,pubchem,1
CC(CCO)O,"butane-1,3-diol",394.15,pubchem,1
CC(CC=O)O,3-hydroxybutanal,339.15,pubchem,1
CC(COC)O,1-methoxypropan-2-ol,309.15,pubchem,1
CN(C)CCO,2-(dimethylamino)ethanol,314.15,pubchem,1
CCC[N+](=O)[O-],1-nitropropane,307.15,pubchem,1
CC(=O)OC=C,ethenyl acetate,265.15,pubchem,1
CC(C)CC(C)N,4-methylpentan-2-amine,286.15,pubchem,1
CC(C)CC(=O)C,4-methylpentan-2-one,296.15,pubchem,1
CC(C)CC(C)O,4-methylpentan-2-ol,314.15,pubchem,1
CC(C)NC(C)C,N-propan-2-ylpropan-2-amine,272.15,pubchem,1
CC(C)OC(C)C,2-propan-2-yloxypropane,245.15,pubchem,1
CC(C)OC(=O)C,propan-2-yl acetate,275.15,pubchem,1
CC(=C)OC(=O)C,prop-1-en-2-yl acetate,289.15,pubchem,1
CC(C)OC(=O)Cl,propan-2-yl carbonochloridate,289.15,pubchem,1
CC(=O)OC(=O)C,acetyl acetate,322.15,pubchem,1
CC1CCC(=O)O1,5-methyloxolan-2-one,354.15,pubchem,1
C1CC(=O)OC1=O,"oxolane-2,5-dione",430.15,pubchem,1
C1=CC(=O)OC1=O,"furan-2,5-dione",376.15,pubchem,1
CC1COC(=O)O1,"4-methyl-1,3-dioxolan-2-one",389.15,pubchem,1
CC1=CC(=CC=C1)C,"1,3-xylene",302.15,pubchem,1
CC1=CC(=CC=C1)Cl,1-chloro-3-methylbenzene,325.15,pubchem,1
C1=CC(=CC(=C1)Cl)N,3-chloroaniline,397.15,pubchem,1
CC1=CC(=CC=C1)N,3-methylaniline,359.15,pubchem,1
C1=CC(=CC(=C1)N)N,"benzene-1,3-diamine",411.15,pubchem,1
CC(CCl)OC(C)CCl,1-chloro-2-(1-chloropropan-2-yloxy)propane,358.15,pubchem,1
CC(COC)OC(=O)C,1-methoxypropan-2-yl acetate,319.15,pubchem,1
CC1=CC(=CC(=C1)C)C,"1,3,5-trimethylbenzene",323.15,pubchem,1
CC1=CC(=CC(=C1)O)C,"3,5-dimethylphenol",353.15,pubchem,1
CC1=CC(=CC(=C1)N)C,"3,5-dimethylaniline",366.15,pubchem,1
C1=C(C=C(C=C1Cl)Cl)Cl,"1,3,5-trichlorobenzene",380.15,pubchem,1
CC1=CC(=NC(=C1)C)C,"2,4,6-trimethylpyridine",331.15,pubchem,1
CC(C)CC(CC(C)C)O,"2,6-dimethylheptan-4-ol",347.15,pubchem,1
CC(C)CC(=O)CC(C)C,"2,6-dimethylheptan-4-one",333.15,pubchem,1
CC(C)CC(C)OC(=O)C,4-methylpentan-2-yl acetate,318.15,pubchem,1
C1=CC=C(C=C1)Br,bromobenzene,324.15,pubchem,1
CC1CCCCC1,methylcyclohexane,269.15,pubchem,1
CC1=CC=NC=C1,4-methylpyridine,330.15,pubchem,1
C1=CC=C(C=C1)Cl,chlorobenzene,297.15,pubchem,1
C1CCC(CC1)N,cyclohexanamine,304.15,pubchem,1
C1CCC(CC1)O,cyclohexanol,341.15,pubchem,1
C1CCC(=O)CC1,cyclohexanone,317.15,pubchem,1
C1=CC=C(C=C1)S,benzenethiol,326.15,pubchem,1
CC1=CN=CC=C1,3-methylpyridine,309.15,pubchem,1
CN1CCOCC1,4-methylmorpholine,297.15,pubchem,1
CC1=CC=CC=N1,2-methylpyridine,309.15,pubchem,1
CCCCOC(=O)CC(C)C,butyl 3-methylbutanoate,326.15,pubchem,1
CCCCOC(=O)CCC,butyl butanoate,326.15,pubchem,1
CCCCCCOC(=O)CCCCCCCC(=O)OCCCCCC,dihexyl nonanedioate,477.15,pubchem,1
CCCCOC(=O)CCCCCCCCC(=O)OCCCC,dibutyl decanedioate,451.15,pubchem,1
CCCCC(=O)O,pentanoic acid,362.15,pubchem,1
CC(C)COC=C,1-ethenoxy-2-methylpropane,264.15,pubchem,1
CN(C)CCCN,"N',N'-dimethylpropane-1,3-diamine",289.15,pubchem,1
CC(C)OCCO,2-propan-2-yloxyethanol,306.15,pubchem,1
CCCOC(=O)C,propyl acetate,287.15,pubchem,1
CCCOC(=O)Cl,propyl carbonochloridate,223.15,pubchem,1
C(CBr)CBr,"1,3-dibromopropane",239.15,pubchem,1
CCCCBr,1-bromobutane,291.15,pubchem,1