compound,flashpoint,pure substance,smiles,source
Isobutyl methyl ketone,290.15,1.0,CC(=O)CC(C)C,hazardous materials
tert-Butyl perbenzoate,361.15,1.0,CC(C)(C)OOC(=O)c1ccccc1,hazardous materials
Butyl vinyl ether,264.15,1.0,C=COCCCC,hazardous materials
n-Butyraldehyde,266.45,1.0,CCCC=O,hazardous materials
n-Butyric acid,339.15,1.0,CCCC(=O)O,hazardous materials
n-Butyric anhydride,361.15,1.0,CCCC(=O)OC(=O)CCC,hazardous materials
2-Butyrolactone,371.15,1.0,CCC1OC1=O,hazardous materials
n-Butyronitrile,299.15,1.0,CCCC#N,hazardous materials
Camphor,339.15,1.0,CC12CCC(CC1=O)C2(C)C,hazardous materials
Caproic acid,375.15,1.0,CCCCCC(=O)O,hazardous materials
Caprylaldehyde,325.15,1.0,CCCCCCCC=O,hazardous materials
Carbon disulphide,243.15,1.0,S=C=S,hazardous materials
Chloroacetaldehyde,361.15,1.0,O=CCCl,hazardous materials
Chlorobenzene,302.15,1.0,Clc1ccccc1,hazardous materials
"1-Chloro-2,4-dinitrobenzene ",467.15,1.0,O=[N+]([O-])c1ccc(Cl)c([N+](=O)[O-])c1,hazardous materials
Chloronaphthalene,405.15,1.0,Clc1cccc2ccccc12,hazardous materials
1-Chloro-1-nitropropane,335.15,1.0,CCC(Cl)[N+](=O)[O-],hazardous materials
o-Chlorophenol,337.15,1.0,Oc1ccccc1Cl,hazardous materials
p-Chlorophenol,394.15,1.0,Oc1ccc(Cl)cc1,hazardous materials
Chlorotrifluoroethylene,246.15,1.0,FC(F)=C(F)Cl,hazardous materials
Cinnamaldehyde,322.15,1.0,O=CC=Cc1ccccc1,hazardous materials
m-Cresol,367.15,1.0,Cc1cccc(O)c1,hazardous materials
o-Cresol,354.15,1.0,Cc1ccccc1O,hazardous materials
p-Cresol,367.15,1.0,Cc1ccc(O)cc1,hazardous materials
Crotonaldehyde,286.15,1.0,C/C=C/C=O,hazardous materials
Cumene,317.15,1.0,CC(C)c1ccccc1,hazardous materials
Cumene hydroperoxide,352.15,1.0,CC(C)c1ccccc1.[O-]O,hazardous materials
Cyclohexane,253.15,1.0,C1CCCCC1,hazardous materials
Cyclohexanol,341.15,1.0,OC1CCCCC1,hazardous materials
Cyclohexanone,317.15,1.0,O=C1CCCCC1,hazardous materials
Cyclohexylamine,305.15,1.0,NC1CCCCC1,hazardous materials
Cyclohexylbenzene,372.15,1.0,c1ccc(C2CCCCC2)cc1,hazardous materials
Cyclopentane,266.15,1.0,C1CCCC1,hazardous materials
Cyclopentanone,299.15,1.0,O=C1CCCC1,hazardous materials
p-Cymene,320.15,1.0,Cc1ccc(C(C)C)cc1,hazardous materials
Decahydronaphthalene,330.15,1.0,C1CCC2CCCCC2C1,hazardous materials
iso-Decaldehyde,358.15,1.0,CC(C)CCCCCCC=O,hazardous materials
n-Decane,319.15,1.0,CCCCCCCCCC,hazardous materials
n-Decyl alcohol,355.15,1.0,CCCCCCCCCCO,hazardous materials
Diacetone alcohol,337.15,1.0,CC(=O)CC(C)(C)O,hazardous materials
Dibutylamine,325.15,1.0,CCCCNCCCC,hazardous materials
Dibutyldichlorotin,628.15,1.0,CCCC[Sn](Cl)(Cl)CCCC,hazardous materials
Di-n-butyl ether,298.15,1.0,CCCCOCCCC,hazardous materials
Dibutyl oxalate,377.15,1.0,CCCCOC(=O)C(=O)OCCCC,hazardous materials
Dibutyl peroxide,291.15,1.0,CCCCOOCCCC,hazardous materials
Dibutyl phosphite,322.15,1.0,CCCCOP([O-])OCCCC,hazardous materials
Dibutyl phthalate,430.15,1.0,CCCCOC(=O)c1ccccc1C(=O)OCCCC,hazardous materials
Dibutyl tartrate,364.15,1.0,CCCCOC(=O)C(O)C(O)C(=O)OCCCC,hazardous materials
Dichloroacetyl chloride,339.15,1.0,O=C(Cl)C(Cl)Cl,hazardous materials
"2,5-Dichloroaniline ",439.15,1.0,Nc1cc(Cl)ccc1Cl,hazardous materials
o-Dichlorobenzene,339.15,1.0,Clc1ccccc1Cl,hazardous materials
"1,4-Dichlorobutane ",325.15,1.0,ClCCCCCl,hazardous materials
"1,3-Dichloro-2-butene ",300.15,1.0,CC(Cl)=CCCl,hazardous materials
"1,1-Dichloroethane ",267.15,1.0,CC(Cl)Cl,hazardous materials
"1,1-Dichloro-1-nitroethane ",349.15,1.0,CC(Cl)(Cl)[N+](=O)[O-],hazardous materials
"2,4-Dichlorophenol ",387.15,1.0,Oc1ccc(Cl)cc1Cl,hazardous materials
"1,2-Dichloropropane ",289.15,1.0,CC(Cl)CCl,hazardous materials
"1,3-Dichloropropane ",308.15,1.0,ClCCCCl,hazardous materials
Dicyclohexylamine,372.15,1.0,C1CCC(NC2CCCCC2)CC1,hazardous materials
Diethanolamine,425.15,1.0,OCCNCCO,hazardous materials
"N,N-Diethylaniline ",358.15,1.0,CCN(CC)c1ccccc1,hazardous materials
Diethylcarbonate,298.15,1.0,CCOC(=O)OCC,hazardous materials
Diethylene glycol,397.15,1.0,OCCOCCO,hazardous materials
Diethylene glycol-monoethyl ether,369.15,1.0,CCOCCOCCO,hazardous materials
Diethylenetriamine,375.15,1.0,NCCNCCN,hazardous materials
Diethyl ketone,286.15,1.0,CCC(=O)CC,hazardous materials
Diethyl malonate,366.15,1.0,CCOC(=O)CC(=O)OCC,hazardous materials
Diethyl sulphate,377.15,1.0,CCOS(=O)(=O)OCC,hazardous materials
"3,4-Dihydro-2H-pyran ",255.15,1.0,C1=COCCC1,hazardous materials
Diisobutyl ketone,333.15,1.0,CC(C)CC(=O)CC(C)C,hazardous materials
Diisobutyl carbinol,347.15,1.0,CC(C)CC(O)CC(C)C,hazardous materials
Diisopropyl amine,272.15,1.0,CC(C)NC(C)C,hazardous materials
Diisopropyl ether,245.15,1.0,CC(C)OC(C)C,hazardous materials
Diisopropyl benzene,349.15,1.0,CC(C)c1ccccc1C(C)C,hazardous materials
Dimethoxyethane,313.15,1.0,COCCOC,hazardous materials
Dimethoxymethane,255.15,1.0,COCOC,hazardous materials
Dimethoxypropane,266.15,1.0,COC(C)(C)OC,hazardous materials
"N,N-Dimethyl acetamide ",350.15,1.0,CC(=O)N(C)C,hazardous materials
"N,N-Dimethylaniline ",336.15,1.0,CN(C)c1ccccc1,hazardous materials
"2,2-Dimethyl butane ",225.15,1.0,CCC(C)(C)C,hazardous materials
"2,3-Dimethyl butane ",244.15,1.0,CC(C)C(C)C,hazardous materials
Dimethyl carbonate,292.15,1.0,COC(=O)OC,hazardous materials
Dimethylformamide,331.15,1.0,CN(C)C=O,hazardous materials
Dimethyl phthalate,419.15,1.0,COC(=O)c1ccccc1C(=O)OC,hazardous materials
Dimethyl sulphate,356.15,1.0,COS(=O)(=O)OC,hazardous materials
Dimethyl sulphoxide,368.15,1.0,CS(C)=O,hazardous materials
m-Dinitrobenzene,423.15,1.0,O=[N+]([O-])c1cccc([N+](=O)[O-])c1,hazardous materials
o-Dinitrobenzene,423.15,1.0,O=[N+]([O-])c1ccccc1[N+](=O)[O-],hazardous materials
p-Dinitrobenzene,423.15,1.0,O=[N+]([O-])c1ccc([N+](=O)[O-])cc1,hazardous materials
"2,4-Dinitrotoluene ",480.15,1.0,Cc1ccc([N+](=O)[O-])cc1[N+](=O)[O-],hazardous materials
Di-n-Octyl phthalate,492.15,1.0,CCCCCCCCOC(=O)c1ccccc1C(=O)OCCCCCCCC,hazardous materials
Di-sec-Octyl phthalate,491.15,1.0,CCCCCCC(C)OC(=O)c1ccccc1C(=O)OC(C)CCCCCC,hazardous materials
"1,4-Dioxane ",285.15,1.0,C1COCCO1,hazardous materials
Diphenylamine,426.15,1.0,c1ccc(Nc2ccccc2)cc1,hazardous materials
Diphenylmethane,403.15,1.0,c1ccc(Cc2ccccc2)cc1,hazardous materials
Dipropylene glycol methyl ether,358.15,1.0,COC(C)COC(C)CO,hazardous materials
n-Dodecane,347.15,1.0,CCCCCCCCCCCC,hazardous materials
Epichlorohydrin,314.15,1.0,ClCC1CO1,hazardous materials
"1,2-Epoxy-propane ",236.15,1.0,CC1CO1,hazardous materials
Ethanol,285.15,1.0,CCO,hazardous materials
Ethanolamine,358.15,1.0,NCCO,hazardous materials
Ethyl acetanilide,325.15,1.0,CCCC(=O)Nc1ccccc1,hazardous materials
Ethyl acetate,268.75,1.0,CCOC(C)=O,hazardous materials
Ethyl acetoacetate,357.15,1.0,CCOC(=O)CC(C)=O,hazardous materials
Ethyl acrylate,289.15,1.0,C=CC(=O)OCC,hazardous materials
Ethyl amyl ketone,330.15,1.0,CCCCCC(=O)CC,hazardous materials
n-Ethyl aniline,358.15,1.0,CCNc1ccccc1,hazardous materials
Ethyl benzene,288.15,1.0,CCc1ccccc1,hazardous materials
Ethyl bromoacetate,321.15,1.0,CCOC(=O)CBr,hazardous materials
Ethyl butyl ketone,319.15,1.0,CCCCC(=O)CC,hazardous materials
2-Ethyl butyraldehyde,294.15,1.0,CCC(C=O)CC,hazardous materials
Ethyl butyrate,299.15,1.0,CCCC(=O)OCC,hazardous materials
Ethyl chloride,223.15,1.0,CCCl,hazardous materials
Ethyl chloroacetate,339.15,1.0,CCOC(=O)CCl,hazardous materials
Ethyl chloroformate,289.15,1.0,CCOC(=O)Cl,hazardous materials
Ethyl crotonate,275.15,1.0,C/C=C/C(=O)OCC,hazardous materials
Ethyl cyanoacetate,383.15,1.0,CCOC(=O)CC#N,hazardous materials
Ethylene chlorohydrin,333.15,1.0,OCCCl,hazardous materials
Ethylene dichloride,286.15,1.0,ClCCCl,hazardous materials
Ethylene glycol,384.15,1.0,OCCO,hazardous materials
Ethyl ether,228.15,1.0,CCOCC,hazardous materials
Ethyl formate,253.15,1.0,CCOC=O,hazardous materials
2-Ethyl hexanol,357.15,1.0,CCCCC(CC)CO,hazardous materials
Ethyl lactate,319.15,1.0,CCOC(=O)C(C)O,hazardous materials
Ethyl methyl ether,236.15,1.0,CCOC,hazardous materials
N-Ethylmorpholine,305.15,1.0,CCN1CCOCC1,hazardous materials
Ethyl nitrite,238.15,1.0,CCON=O,hazardous materials
Ethyl oxalate,349.15,1.0,CCOC(=O)C(=O)[O-],hazardous materials
Ethyl propionate,285.15,1.0,CCOC(=O)CC,hazardous materials
2-Ethyl-3-propyl acrolein,341.15,1.0,CCCC=C(C=O)CC,hazardous materials
Ethyl silicate,325.15,1.0,CCO[Si]([O-])([O-])[O-],hazardous materials
Formamide,428.15,1.0,NC=O,hazardous materials
Formic acid,342.15,1.0,O=CO,hazardous materials
Furfural,333.15,1.0,O=Cc1ccco1,hazardous materials
Furfuryl alcohol,348.15,1.0,OCc1ccco1,hazardous materials
Glycerol,433.15,1.0,OCC(O)CO,hazardous materials
Heptane,269.15,1.0,CCCCCCC,hazardous materials
n-Heptylamine,327.15,1.0,CCCCCCCN,hazardous materials
Hexachlorobenzene,515.15,1.0,Clc1c(Cl)c(Cl)c(Cl)c(Cl)c1Cl,hazardous materials
"2,4-Hexadienal ",341.15,1.0,CC=CC=CC=O,hazardous materials
"1,4-Hexadiene ",252.15,1.0,C=CCC=CC,hazardous materials
Hexane,251.15,1.0,CCCCCC,hazardous materials
n-Hexanol,333.15,1.0,CCCCCCO,hazardous materials
sec-Hexyl acetate,318.15,1.0,CCCCC(C)OC(C)=O,hazardous materials
Hexyl amine,302.15,1.0,CCCCCCN,hazardous materials
Hydrazine,311.15,1.0,NN,hazardous materials
Hydrocyanic acid,255.15,1.0,C#N,hazardous materials
Hydroquinone monomethyl ether,404.15,1.0,COc1ccc(O)cc1,hazardous materials
Hydroxylamine,402.15,1.0,NO,hazardous materials
Isoprene,219.15,1.0,C=CC(=C)C,hazardous materials
Lactonitrile,350.15,1.0,CC(O)C#N,hazardous materials
Maleic anhydride,375.15,1.0,O=C1C=CC(=O)O1,hazardous materials
"p-Mentha-1,8-diene ",318.15,1.0,C=C(C)C1CC=C(C)CC1,hazardous materials
2-Mercaptoethanol,347.15,1.0,OCCS,hazardous materials
Mesityl oxide,304.15,1.0,CC(=O)C=C(C)C,hazardous materials
Methyl acetate,264.15,1.0,COC(C)=O,hazardous materials
Methyl acrylate,270.15,1.0,C=CC(=O)OC,hazardous materials
Methyl alcohol,285.15,1.0,CO,hazardous materials
Methyl amyl alcohol,314.15,1.0,CCCCC(C)O,hazardous materials
N-Methylbutylamine,286.15,1.0,CCCCNC,hazardous materials
Methyl butyl ketone,308.15,1.0,CCCCC(C)=O,hazardous materials
Methyl butyrate,287.15,1.0,CCCC(=O)OC,hazardous materials
Methyl chloroformate,285.15,1.0,COC(=O)Cl,hazardous materials
Methyl cyclohexane,269.15,1.0,CC1CCCCC1,hazardous materials
2-Methyl cyclohexanone,321.15,1.0,CC1CCCCC1=O,hazardous materials
4-Methyl cyclohexene,272.15,1.0,CC1CC=CCC1,hazardous materials
Methyl ether,232.15,1.0,COC,hazardous materials
Methyl ethyl ether,236.15,1.0,CCOC,hazardous materials
Methyl ethyl ketone,266.15,1.0,CCC(C)=O,hazardous materials
Methyl formate,254.15,1.0,COC=O,hazardous materials
2-Methyl furan,243.15,1.0,Cc1ccco1,hazardous materials
Methyl isobutyl ketone,296.15,1.0,CC(=O)CC(C)C,hazardous materials
Methyl isobutyrate,286.15,1.0,COC(=O)C(C)C,hazardous materials
Methyl methacrylate,283.15,1.0,C=C(C)C(=O)OC,hazardous materials
Methyl-n-Propyl ketone,280.15,1.0,CCCC(C)=O,hazardous materials
Methyl salicylate,374.15,1.0,COC(=O)c1ccccc1O,hazardous materials
Methyl vinyl ether,222.15,1.0,C=COC,hazardous materials
Monomethylamine,263.15,1.0,CN,hazardous materials
Morpholine,311.15,1.0,C1COCCN1,hazardous materials
Naphthalene,352.15,1.0,c1ccc2ccccc2c1,hazardous materials
2-Naphthol,426.15,1.0,Oc1ccc2ccccc2c1,hazardous materials
1-Naphthylamine,430.15,1.0,Nc1cccc2ccccc12,hazardous materials
o-Nitroaniline,441.15,1.0,Nc1ccccc1[N+](=O)[O-],hazardous materials
p-Nitroaniline,472.15,1.0,Nc1ccc([N+](=O)[O-])cc1,hazardous materials
Nitrobenzene,361.15,1.0,O=[N+]([O-])c1ccccc1,hazardous materials
o-Nitrobiphenyl,416.15,1.0,O=[N+]([O-])c1ccccc1-c1ccccc1,hazardous materials
Nitroethane,311.15,1.0,CC[N+](=O)[O-],hazardous materials
Nitromethane,308.15,1.0,C[N+](=O)[O-],hazardous materials
alpha-Nitronaphthalene,437.15,1.0,O=[N+]([O-])c1cccc2ccccc12,hazardous materials
1-Nitropropane,322.15,1.0,CCC[N+](=O)[O-],hazardous materials
2-Nitropropane,312.15,1.0,CC(C)[N+](=O)[O-],hazardous materials
m-Nitrotoluene,379.15,1.0,Cc1cccc([N+](=O)[O-])c1,hazardous materials
o-Nitrotoluene,379.15,1.0,Cc1ccccc1[N+](=O)[O-],hazardous materials
p-Nitrotoluene,379.15,1.0,Cc1ccc([N+](=O)[O-])cc1,hazardous materials
Nonyl phenol,414.15,1.0,CCCCCCCCCc1ccccc1O,hazardous materials
Octane,286.15,1.0,CCCCCCCC,hazardous materials
Octanoic acid,405.15,1.0,CCCCCCCC(=O)O,hazardous materials
1-Octanol,354.15,1.0,CCCCCCCCO,hazardous materials
2-Octanol,361.15,1.0,CCCCCCC(C)O,hazardous materials
Oleic acid,462.15,1.0,CCCCCCCC/C=C\CCCCCCCC(=O)O,hazardous materials
n-Pentane,224.15,1.0,CCCCC,hazardous materials
iso-Pentane,222.15,1.0,CCC(C)C,hazardous materials
"1,5-Pentanediol ",408.15,1.0,OCCCCCO,hazardous materials
"2,4-Pentanedione ",314.15,1.0,CC(=O)CC(C)=O,hazardous materials
2-Pentanol,312.15,1.0,CCCC(C)O,hazardous materials
Phenol,352.15,1.0,Oc1ccccc1,hazardous materials
Phenyl acetate,353.15,1.0,CC(=O)Oc1ccccc1,hazardous materials
p-Phenylenediamine,429.15,1.0,Nc1ccc(N)cc1,hazardous materials
Phenylethanolamine,425.15,1.0,NCC(O)c1ccccc1,hazardous materials
Phenyl ether,369.15,1.0,c1ccc(Oc2ccccc2)cc1,hazardous materials
Phenylhydrazine,362.15,1.0,NNc1ccccc1,hazardous materials
o-Phenyl phenol,397.15,1.0,Oc1ccccc1-c1ccccc1,hazardous materials
Phorone,358.15,1.0,CC(C)=CC(=O)C=C(C)C,hazardous materials
Phthalic anhydride,424.15,1.0,O=C1OC(=O)c2ccccc21,hazardous materials
2-Picoline,312.15,1.0,Cc1ccccn1,hazardous materials
4-Picoline,330.15,1.0,Cc1ccncc1,hazardous materials
Picric acid,423.15,1.0,O=[N+]([O-])c1cc([N+](=O)[O-])c(O)c([N+](=O)[O-])c1,hazardous materials
2-Pinene,306.15,1.0,CC1=CCC2CC1C2(C)C,hazardous materials
Piperidine,289.15,1.0,C1CCNCC1,hazardous materials
Piperylene,230.15,1.0,C=CC=CC,hazardous materials
"1,3-Propanediamine ",297.15,1.0,NCCCN,hazardous materials
"1,2-Propanediol ",372.15,1.0,CC(O)CO,hazardous materials
Propargyl alcohol,309.15,1.0,C#CCO,hazardous materials
Propargyl bromide,283.15,1.0,C#CCBr,hazardous materials
iso-Propenyl acetate,289.15,1.0,C=C(C)OC(C)=O,hazardous materials
Propionaldehyde,264.15,1.0,CCC=O,hazardous materials
Propionic acid,327.15,1.0,CCC(=O)O,hazardous materials
Propionitrile,275.15,1.0,CCC#N,hazardous materials
Propionyl chloride,285.15,1.0,CCC(=O)Cl,hazardous materials
iso-Propyl acetate,277.15,1.0,CC(=O)OC(C)C,hazardous materials
n-Propyl acetate,287.15,1.0,CCCOC(C)=O,hazardous materials
n-Propyl alcohol,288.15,1.0,CCCO,hazardous materials
iso-Propyl alcohol,285.15,1.0,CC(C)O,hazardous materials
Propylamine,236.15,1.0,CCCN,hazardous materials
iso-Propylamine,236.15,1.0,CC(C)N,hazardous materials
Propyl benzene,303.15,1.0,CCCc1ccccc1,hazardous materials
iso-Propyl benzoate,372.15,1.0,CC(C)OC(=O)c1ccccc1,hazardous materials
Propylene,165.14999999999995,1.0,C=CC,hazardous materials
Propylene carbonate,408.15,1.0,CC1COC(=O)O1,hazardous materials
iso-Propyl ether,245.15,1.0,CC(C)OC(C)C,hazardous materials
n-Propyl formate,270.15,1.0,CCCOC=O,hazardous materials
iso-Propyl formate,267.15,1.0,CC(C)OC=O,hazardous materials
Propyl nitrate,293.15,1.0,CCCO[N+](=O)[O-],hazardous materials
Pyridine,293.15,1.0,c1ccncc1,hazardous materials
Pyrrolidine,276.15,1.0,C1CCNC1,hazardous materials
Pyruvic acid,276.15,1.0,CC(=O)C(=O)O,hazardous materials
Resorcinol,400.15,1.0,Oc1cccc(O)c1,hazardous materials
Salicylaldehyde,351.15,1.0,O=Cc1ccccc1O,hazardous materials
Salicylic acid,430.15,1.0,O=C(O)c1ccccc1O,hazardous materials
Stearic acid,469.15,1.0,CCCCCCCCCCCCCCCCCC(=O)O,hazardous materials
Styrene,304.15,1.0,C=Cc1ccccc1,hazardous materials
Succinonitrile,405.15,1.0,N#CCCC#N,hazardous materials
Sulphur,480.15,1.0,[S],hazardous materials
Sulphur monochloride,391.15,1.0,[S]Cl,hazardous materials
m-Terphenyl,408.15,1.0,c1ccc(-c2cccc(-c3ccccc3)c2)cc1,hazardous materials
o-Terphenyl,436.15,1.0,c1ccc(-c2ccccc2-c2ccccc2)cc1,hazardous materials
"1,2,4,5-Tetrachlorobenzene ",428.15,1.0,Clc1cc(Cl)c(Cl)cc1Cl,hazardous materials
Tetradecane,373.15,1.0,CCCCCCCCCCCCCC,hazardous materials
Tetraethylenepentamine,436.15,1.0,NCCNCCNCCNCCN,hazardous materials
Tetraethyl lead,366.15,1.0,CC[Pb](CC)(CC)CC,hazardous materials
Tetrahydrofuran,259.15,1.0,C1CCOC1,hazardous materials
Tetrahydronaphthalene,344.15,1.0,c1ccc2c(c1)CCCC2,hazardous materials
"2,2'-Thiodiethanol ",433.15,1.0,OCCSCCO,hazardous materials
Thiophene,272.15,1.0,c1ccsc1,hazardous materials
Toluene,277.54999999999995,1.0,Cc1ccccc1,hazardous materials
m-Toluidine,359.15,1.0,Cc1cccc(N)c1,hazardous materials
o-Toluidine,358.15,1.0,Cc1ccccc1N,hazardous materials
p-Toluidine,360.15,1.0,Cc1ccc(N)cc1,hazardous materials
Triamylamine,375.15,1.0,CCCCCN(CCCCC)CCCCC,hazardous materials
Tri-n-butyl amine,359.15,1.0,CCCCN(CCCC)CCCC,hazardous materials
Tributyl phosphate,419.15,1.0,CCCCOP(=O)(OCCCC)OCCCC,hazardous materials
"1,2,4-Trichlorobenzene ",372.15,1.0,Clc1ccc(Cl)c(Cl)c1,hazardous materials
"1,2,3-Trichloropropane ",355.15,1.0,ClCC(Cl)CCl,hazardous materials
Tridecanol,394.15,1.0,CCCCCCCCCCCCCO,hazardous materials
Triethanolamine,452.15,1.0,OCCN(CCO)CCO,hazardous materials
Triethylene glycol,450.15,1.0,OCCOCCOCCO,hazardous materials
Triethylene-tetramine,408.15,1.0,NCCNCCNCCN,hazardous materials
Trimethyl amine,266.15,1.0,CN(C)C,hazardous materials
"2,2,4-Trimethyl pentane ",261.15,1.0,CC(C)CC(C)(C)C,hazardous materials
"2,4,4-Trimethyl-2-pentene ",275.15,1.0,CC(C)=CC(C)(C)C,hazardous materials
"1,3,5-Trioxane ",318.15,1.0,C1OCOCO1,hazardous materials
Triphenyl phosphate,493.15,1.0,O=P(Oc1ccccc1)(Oc1ccccc1)Oc1ccccc1,hazardous materials
Triphenyl phosphine,453.15,1.0,c1ccc(P(c2ccccc2)c2ccccc2)cc1,hazardous materials
Tripropylamine,314.15,1.0,CCCN(CCC)CCC,hazardous materials
Tritolyl phosphate,498.15,1.0,Cc1ccccc1OP(=O)(Oc1ccccc1C)Oc1ccccc1C,hazardous materials
Valeraldehyde,285.15,1.0,CCCCC=O,hazardous materials
Valeric acid,369.15,1.0,CCCCC(=O)O,hazardous materials
Vinyl acetate,265.15,1.0,C=COC(C)=O,hazardous materials
Vinyl chloride,195.15,1.0,C=CCl,hazardous materials
Vinylidene chloride,258.15,1.0,C=C(Cl)Cl,hazardous materials
m-Xylene,302.15,1.0,Cc1cccc(C)c1,hazardous materials
o-Xylene,305.15,1.0,Cc1ccccc1C,hazardous materials
p-Xylene,300.15,1.0,Cc1ccc(C)cc1,hazardous materials
Xylidine,370.15,1.0,Cc1cccc(N)c1C,hazardous materials
Ethylene,137.14999999999998,1.0,C=C,le15
Ethane,137.99999999999997,1.0,CC,le15
Methylamine,211.0,1.0,CN,le15
Methanol,284.261,1.0,CO,le15
1propyne,185.15,1.0,C#CC,le15
Acetonitrile,275.15,1.0,CC#N,le15
Cyanamide,274.35,1.0,N#CN,le15
Propene,165.14999999999995,1.0,C=CC,le15
Cyclopropane,177.99999999999997,1.0,C1CC1,le15
Propene,164.99999999999997,1.0,C=CC,le15
propane,169.14999999999995,1.0,CCC,le15
Formamide,448.15,1.0,NC=O,le15
Monoethylamine,256.15,1.0,CCN,le15
Dimethylamine,255.0,1.0,CNC,le15
Ethylamine,256.0,1.0,CCN,le15
Formicacid,342.0,1.0,O=CO,le15
"Hydrazine, methyl-",294.15,1.0,CNN,le15
Methyl hydroperoxide,274.25,1.0,COO,le15
Methanethiol,255.0,1.0,CS,le15
Propiononitrile,279.15,1.0,CCC#N,le15
2propyn1ol,306.0,1.0,C#CCO,le15
2-aminoacetonitrile,326.25,1.0,N#CCN,le15
(Z)-but-2-ene,200.35,1.0,C/C=C\C,le15
1butene,193.0,1.0,C=CCC,le15
Cyclobutane,208.0,1.0,C1CCC1,le15
Isobutene,197.0,1.0,C=C(C)C,le15
"Acetonitrile, hydroxy-",329.25,1.0,N#CCO,le15
Cyclopropanamine,274.15,1.0,NC1CC1,le15
2-Propen-1-amine,245.15,1.0,C=CCN,le15
Cyclopropylamine,248.0,1.0,NC1CC1,le15
Trimethylene oxide (8CI),253.15,1.0,C1COC1,le15
2propene1ol,294.0,1.0,C=CCO,le15
PropyleneOxide,236.0,1.0,CC1CO1,le15
"Acetaldehyde, oxime",313.15,1.0,CC=NO,le15
propylamine,247.0,1.0,CCCN,le15
Trimethylamine,267.0,1.0,CN(C)C,le15
Hydrazinecarboxaldehyde,385.15,1.0,NNC=O,le15
Isopropyl alcohol,284.81699999999995,1.0,CC(C)O,le15
"Hydrazine, 1,1-dimethyl-",274.25,1.0,CN(C)N,le15
Ethylene sulfide,283.15,1.0,C1CS1,le15
"Methane, nitro-",308.15,1.0,C[N+](=O)[O-],le15
"Ethanol, 2-amino-",366.45,1.0,NCCO,le15
carbonic acid,442.95,1.0,O=C(O)O,le15
"Hydroperoxide, ethyl",284.45,1.0,CCOO,le15
Ethylene glycol,381.35,1.0,OCCO,le15
"Ethylene, chloro-",255.35,1.0,C=CCl,le15
"Ethanol, 2-fluoro-",304.25,1.0,OCCF,le15
"2-Propenenitrile, 2-methyl-",285.15,1.0,C=C(C)C#N,le15
"Isocrotononitrile (6CI,7CI)",293.15,1.0,C/C=C\C#N,le15
2-Butenenitrile,289.15,1.0,CC=CC#N,le15
Methacrylonitrile,274.0,1.0,C=C(C)C#N,le15