,compound,flashpoint,pure substance,smiles,source
2247,3-methyl-2-pentanol,314.0,1,CC(C(C)O)CC,carroll11
2248,cyclopentanol,324.0,1,C1(CCCC1)O,carroll11
2249,2-methyl-1-pentanol,324.0,1,CC(CO)CCC,carroll11
2250,2-ethyl-1-butanol,330.0,1,C(C)C(CO)CC,carroll11
2251,4-methyl-1-pentanol,324.0,1,CC(CCCO)C,carroll11
2252,3-methyl-1-pentanol,331.0,1,CC(CCO)CC,carroll11
2253,cyclohexanol,336.0,1,C1(CCCCC1)O,carroll11
2254,cyclopentylmethanol,335.0,1,C1(CCCC1)CO,carroll11
2255,cis-2-methylcyclohexanol,332.0,1,C[C@@H]1[C@@H](CCCC1)O,carroll11
2256,trans-2-methylcyclohexanol,332.0,1,C[C@H]1[C@@H](CCCC1)O,carroll11
2257,trans-4-methylcyclohexanol,343.0,1,C[C@@H]1CC[C@H](CC1)O,carroll11
2258,2-ethyl-1-hexanol,347.0,1,C(C)C(CO)CCCC,carroll11
2259,cycloheptanol,344.0,1,C1(CCCCCC1)O,carroll11
2260,"3,5,5-trimethyl-1-hexanol",353.0,1,CC(CCO)CC(C)(C)C,carroll11
2261,"2,3-butanediol",358.0,1,CC(C(C)O)O,carroll11
2262,"1,2-propanediol",372.0,1,C(C(C)O)O,carroll11
2263,"1,2-butanediol",366.0,1,C(C(CC)O)O,carroll11
2264,"1,2-ethanediol",381.0,1,C(CO)O,carroll11
2265,"1,2-pentanediol",378.0,1,C(C(CCC)O)O,carroll11
2266,"1,3-butanediol",382.0,1,C(CC(C)O)O,carroll11
2267,"1,2-hexanediol",395.0,1,C(C(CCCC)O)O,carroll11
2268,"1,4-butanediol",394.0,1,C(CCCO)O,carroll11
2269,"1,5-pentanediol",402.0,1,C(CCCCO)O,carroll11
2270,cyclooctanol,361.0,1,C1(CCCCCCC1)O,carroll11
2271,aceticacid,313.0,1,C(C)(=O)O,carroll11
2272,propionicacid,331.0,1,C(CC)(=O)O,carroll11
2273,butanoicacid,342.0,1,C(CCC)(=O)O,carroll11
2274,pentanoicacid,358.0,1,C(CCCC)(=O)O,carroll11
2275,hexanoicacid,375.0,1,C(CCCCC)(=O)O,carroll11
2276,heptanoicacid,382.0,1,C(CCCCCC)(=O)O,carroll11
2277,2-methylpropanoicacid,332.0,1,CC(C(=O)O)C,carroll11
2278,3-methylbutanoicacid,347.0,1,CC(CC(=O)O)C,carroll11
2279,2-methylbutanoicacid,350.0,1,CC(C(=O)O)CC,carroll11
2280,2-ethylbutanoicacid,360.0,1,C(C)C(C(=O)O)CC,carroll11
2281,"3,3-dimethylbutanoicacid",361.0,1,CC(CC(=O)O)(C)C,carroll11
2282,4-methylpentanoicacid,370.0,1,CC(CCC(=O)O)C,carroll11
2283,2-methylpentanoicacid,364.0,1,CC(C(=O)O)CCC,carroll11
2284,2-methylhexanoicacid,378.0,1,CC(C(=O)O)CCCC,carroll11
2285,3-methylhexanoicacid,376.0,1,CC(CC(=O)O)CCC,carroll11
2286,4-methylhexanoicacid,376.0,1,CC(CCC(=O)O)CC,carroll11
2287,aceticanhydride,322.0,1,C(C)(=O)OC(C)=O,carroll11
2288,butanoicanhydride,355.0,1,C(CCC)(=O)OC(CCC)=O,carroll11
2289,pentanoicanhydride,374.0,1,C(CCCC)(=O)OC(CCCC)=O,carroll11
2290,hexanoicanhydride,386.0,1,C(CCCCC)(=O)OC(CCCCC)=O,carroll11
2291,heptanoicanhydride,403.0,1,C(CCCCCC)(=O)OC(CCCCCC)=O,carroll11
2292,isobutanoicanhydride,340.0,1,C(C(C)C)(=O)OC(C(C)C)=O,carroll11
2293,pivalicanhydride,336.0,1,C(C(C)(C)C)(=O)OC(C(C)(C)C)=O,carroll11
2294,3-methylbutanoicanhydride,364.0,1,CC(CC(=O)OC(CC(C)C)=O)C,carroll11
2295,isopropylamine,241.0,1,C(C)(C)N,carroll11
2296,tert-butylamine,235.0,1,C(C)(C)(C)N,carroll11
2297,propylamine,243.0,1,C(CC)N,carroll11
2298,cyclopropylamine,248.0,1,C1(CC1)N,carroll11
2299,N-methylisopropylamine,253.0,1,CNC(C)C,carroll11
2300,diethylamine,250.0,1,C(C)NCC,carroll11
2301,sec-butylamine,254.0,1,C(C)(CC)N,carroll11
2302,allylmethylamine,265.0,1,C(C=C)CN,carroll11
2303,isobutylamine,263.0,1,C(C(C)C)N,carroll11
2304,butylamine,266.0,1,C(CCC)N,carroll11
2305,cyclobutylamine,269.0,1,C1(CCC1)N,carroll11
2306,diisopropylamine,266.0,1,C(C)(C)NC(C)C,carroll11
2307,3-pentanamine,275.0,1,CCC(CC)N,carroll11
2308,N-methylbutylamine,275.0,1,CNCCCC,carroll11
2309,pentylamine,277.0,1,C(CCCC)N,carroll11
2310,cyclopentylamine,285.0,1,C1(CCCC1)N,carroll11
2311,dipropylamine,280.0,1,C(CC)NCCC,carroll11
2312,hexylamine,300.0,1,C(CCCCC)N,carroll11
2313,diisobutylamine,303.0,1,C(C(C)C)NCC(C)C,carroll11
2314,heptylamine,317.0,1,C(CCCCCC)N,carroll11
2315,dibutylamine,320.0,1,C(CCC)NCCCC,carroll11
2316,2-ethyl-1-hexanamine,323.0,1,C(C)C(CN)CCCC,carroll11
2317,octylamine,333.0,1,C(CCCCCCC)N,carroll11
2318,nonylamine,347.0,1,C(CCCCCCCC)N,carroll11
2319,1-decanamine,358.0,1,C(CCCCCCCCC)N,carroll11
2320,N-ethylcyclohexanamine,318.0,1,C(C)NC1CCCCC1,carroll11
2321,di-sec-butylamine,297.0,1,C(C)(CC)NC(C)CC,carroll11
2322,(aminomethyl)cyclohexane,316.0,1,NCC1CCCCC1,carroll11
2323,N-ethyl-N-methylethanamine,250.0,1,C(C)N(CC)C,carroll11
2324,triethylamine,264.0,1,C(C)N(CC)CC,carroll11
2325,tripropylamine,308.0,1,C(CC)N(CCC)CCC,carroll11
2326,tributylamine,344.0,1,C(CCC)N(CCCC)CCCC,carroll11
2327,N-ethyldimethylamine,237.0,1,C(C)N(C)C,carroll11
2328,1-ethylpiperidine,291.0,1,C(C)N1CCCCC1,carroll11
2329,diethylenetriamine,363.0,1,NCCNCCN,carroll11
2330,"N,N-dimethylcyclohexylamine",314.0,1,CN(C)C1CCCCC1,carroll11
2331,"1,2-ethanediamine",307.0,1,C(CN)N,carroll11
2332,"1,3-propanediamine",321.0,1,C(CCN)N,carroll11
2333,"N,N-dimethyl-1,3-propanediamine",305.0,1,CN(CCCN)C,carroll11
2334,"N,N-dimethylformamide",330.0,1,CN(C=O)C,carroll11
2335,"N,N-dimethylacetamide",339.0,1,CN(C(C)=O)C,carroll11
2336,"N,N-diethylformamide",338.0,1,C(C)N(C=O)CC,carroll11
2337,"N,N-diethylacetamide",349.0,1,C(C)N(C(C)=O)CC,carroll11
2338,N-ethylformamide,359.0,1,C(C)NC=O,carroll11
2339,N-methylformamide,371.0,1,CNC=O,carroll11
2340,N-ethylacetamide,379.0,1,C(C)NC(C)=O,carroll11
2341,N-butylacetamide,388.0,1,C(CCC)NC(C)=O,carroll11
2342,"N,N-diisopropylformamide",348.0,1,C(C)(C)N(C=O)C(C)C,carroll11
2343,acetonitrile,275.0,1,C(C)#N,carroll11
2344,propionitrile,279.0,1,C(CC)#N,carroll11
2345,butyronitrile,291.0,1,C(CCC)#N,carroll11
2346,pentanenitrile,305.0,1,C(CCCC)#N,carroll11
2347,hexanenitrile,320.0,1,C(CCCCC)#N,carroll11
2348,heptanenitrile,331.0,1,C(CCCCCC)#N,carroll11
2349,octanenitrile,347.0,1,C(CCCCCCC)#N,carroll11
2350,nonanenitrile,355.0,1,C(CCCCCCCC)#N,carroll11
2351,decanenitrile,365.0,1,C(CCCCCCCCC)#N,carroll11
2352,"2,2-dimethylpropanenitrile",277.0,1,CC(C#N)(C)C,carroll11
2353,isobutyronitrile,281.0,1,C(C(C)C)#N,carroll11
2354,cyclopropanecarbonitrile,305.0,1,C1(CC1)C#N,carroll11
2355,3-methylbutanenitrile,301.0,1,CC(CC#N)C,carroll11
2356,"1,4-dicyanobutane",432.0,1,C(#N)CCCCC#N,carroll11
2357,1-propanethiol,259.0,1,C(CC)S,carroll11
2358,1-butanethiol,275.0,1,C(CCC)S,carroll11
2359,1-pentanethiol,291.0,1,C(CCCC)S,carroll11
2360,1-hexanethiol,303.0,1,C(CCCCC)S,carroll11
2361,1-heptanethiol,319.0,1,C(CCCCCC)S,carroll11
2362,1-octanethiol,341.0,1,C(CCCCCCC)S,carroll11
2363,1-nonanethiol,352.0,1,C(CCCCCCCC)S,carroll11
2364,1-decanethiol,372.0,1,C(CCCCCCCCC)S,carroll11
2365,1-undecanethiol,382.0,1,C(CCCCCCCCCC)S,carroll11
2366,2-butanethiol,250.0,1,CC(CC)S,carroll11
2367,2-pentanethiol,288.0,1,CC(CCC)S,carroll11
2368,2-methyl-2-propanethiol,249.0,1,CC(C)(C)S,carroll11
2369,2-methyl-1-butanethiol,292.0,1,CC(CS)CC,carroll11
2370,3-methyl-2-butanethiol,282.0,1,CC(C(C)S)C,carroll11
2371,cyclopentanethiol,298.0,1,C1(CCCC1)S,carroll11
2372,cyclohexanethiol,314.0,1,C1(CCCCC1)S,carroll11
2373,3-ethyl-3-pentanethiol,307.0,1,C(C)C(CC)(CC)S,carroll11
2374,2-methyl-2-pentanethiol,293.0,1,CC(C)(CCC)S,carroll11
2375,3-hexanethiol,303.0,1,CCC(CCC)S,carroll11
2376,dimethylsulfide,237.0,1,CSC,carroll11
2377,diethylsulfide,263.0,1,C(C)SCC,carroll11
2378,dipropylsulfide,301.0,1,C(CC)SCCC,carroll11
2379,dibutylsulfide,333.0,1,C(CCC)SCCCC,carroll11
2380,ethylmethylsulfide,255.0,1,C(C)SC,carroll11
2381,tert-butylmethylsulfide,270.0,1,C(C)(C)(C)SC,carroll11
2382,thiacyclopentane,286.0,1,S1CCCC1,carroll11
2383,thiacyclohexane,294.0,1,S1CCCCC1,carroll11
2384,di-tert-butylsulfide,300.0,1,C(C)(C)(C)SC(C)(C)C,carroll11
2385,di-sec-butylsulfide,312.0,1,C(C)(CC)SC(C)CC,carroll11
2386,diisopentylsulfide,350.0,1,C(CC(C)C)SCCC(C)C,carroll11
2387,diallylsulfide,296.0,1,C(C=C)SCC=C,carroll11
2388,allylethylsulfide,289.0,1,C(C=C)SCC,carroll11
2389,allylpropylsulfide,302.0,1,C(C=C)SCCC,carroll11
2390,1-chlorohexane,299.0,1,ClCCCCCC,carroll11
2391,1-chloroheptane,314.0,1,ClCCCCCCC,carroll11
2392,1-chlorooctane,331.0,1,ClCCCCCCCC,carroll11
2393,1-chlorononane,347.0,1,ClCCCCCCCCC,carroll11
2394,1-chlorodecane,356.0,1,ClCCCCCCCCCC,carroll11
2395,2-chloropropane,241.0,1,ClC(C)C,carroll11
2396,2-chlorobutane,258.0,1,ClC(C)CC,carroll11
2397,2-chloropentane,274.0,1,ClC(C)CCC,carroll11
2398,3-chloropropene,245.0,1,ClCC=C,carroll11
2399,2-chloro-2-methylpropane,250.0,1,ClC(C)(C)C,carroll11
2400,1-chloro-2-methylpropane,256.0,1,ClCC(C)C,carroll11
2401,chlorocyclopentane,288.0,1,ClC1CCCC1,carroll11
2402,chlorocyclohexane,301.0,1,ClC1CCCCC1,carroll11
2403,"1,1-dichloropropane",280.0,1,ClC(CC)Cl,carroll11
2404,"1,1-dichloroethane",263.0,1,ClC(C)Cl,carroll11
2405,"1,2-dichloroethane",286.0,1,ClCCCl,carroll11
2406,"1,2-dichloropropane",286.0,1,ClCC(C)Cl,carroll11
2407,"1,3-dichloropropane",294.0,1,ClCCCCl,carroll11
2408,bromoethane,253.0,1,BrCC,carroll11
2409,1-bromopropane,269.0,1,BrCCC,carroll11
2410,1-bromobutane,283.0,1,BrCCCC,carroll11
2411,1-bromopentane,303.0,1,BrCCCCC,carroll11
2412,1-bromohexane,320.0,1,BrCCCCCC,carroll11
2413,1-bromoheptane,334.0,1,BrCCCCCCC,carroll11
2414,1-bromooctane,351.0,1,BrCCCCCCCC,carroll11
2415,2-bromopentane,294.0,1,BrC(C)CCC,carroll11
2416,2-bromohexane,313.0,1,BrC(C)CCCC,carroll11
2417,3-bromopentane,292.0,1,BrC(CC)CC,carroll11
2418,bromocyclopentane,308.0,1,BrC1CCCC1,carroll11
2419,3-bromohexane,313.0,1,BrC(CC)CCC,carroll11
2420,bromocyclohexane,335.0,1,BrC1CCCCC1,carroll11
2421,iodoethane,268.0,1,ICC,carroll11
2422,2-iodobutane,297.0,1,IC(C)CC,carroll11
2423,1-iodobutane,306.0,1,ICCCC,carroll11
2424,2-iodopentane,318.0,1,IC(C)CCC,carroll11
2425,iodocyclopentane,325.0,1,IC1CCCC1,carroll11
2426,3-iodohexane,328.0,1,IC(CC)CCC,carroll11
2427,1-iodohexane,334.0,1,ICCCCCC,carroll11
2428,1-iodoheptane,352.0,1,ICCCCCCC,carroll11
2429,1-iodooctane,368.0,1,ICCCCCCCC,carroll11
2430,dimethyldisulfide,283.0,1,CSSC,carroll11
2431,diethyldisulfide,312.0,1,C(C)SSCC,carroll11
2432,dipropyldisulfide,339.0,1,C(CC)SSCCC,carroll11
2433,di-tert-butyldisulfide,340.0,1,C(C)(C)(C)SSC(C)(C)C,carroll11
2434,dibutyldisulfide,366.0,1,C(CCC)SSCCCC,carroll11
2435,ethylpropyldisulfide,330.0,1,C(C)SSCCC,carroll11
2436,nitrocyclohexane,354.0,1,[N+](=O)([O-])C1CCCCC1,carroll11
2437,nitrocyclopentane,340.0,1,[N+](=O)([O-])C1CCCC1,carroll11
2438,nitroethane,301.0,1,[N+](=O)([O-])CC,carroll11
2439,2-nitropropane,301.0,1,[N+](=O)([O-])C(C)C,carroll11
2440,1-nitropropane,307.0,1,[N+](=O)([O-])CCC,carroll11
2441,1-nitrobutane,320.0,1,[N+](=O)([O-])CCCC,carroll11
2442,1-nitropentane,334.0,1,[N+](=O)([O-])CCCCC,carroll11
2443,1-nitrohexane,345.0,1,[N+](=O)([O-])CCCCCC,carroll11
2444,2-nitropentane,319.0,1,[N+](=O)([O-])C(C)CCC,carroll11
2445,ethylvinylether,228.0,1,C(C)OC=C,carroll11
2446,allylamine,245.0,1,C(C=C)N,carroll11
2447,acrolein,254.0,1,C(=O)C=C,carroll11
2448,"2,3-dihydrofuran",249.0,1,O1CCC=C1,carroll11
2449,propylvinylether,251.0,1,C(CC)OC=C,carroll11
2450,allylethylether,253.0,1,C(C=C)OCC,carroll11
2451,tert-butylvinylether,256.0,1,C(C)(C)(C)OC=C,carroll11
2452,2-methyl-2-propenal,258.0,1,CC(C=O)=C,carroll11
2453,3-chloro-2-methyl-1-propene,261.0,1,ClCC(=C)C,carroll11
2454,"2,3-dihydro-5-methylfuran",261.0,1,CC1=CCCO1,carroll11
2455,isobutylvinylether,264.0,1,C(C(C)C)OC=C,carroll11
2456,diallylether,266.0,1,C(C=C)OCC=C,carroll11
2457,allylpropylether,268.0,1,C(C=C)OCCC,carroll11
2458,acrylonitrile,268.0,1,C(C=C)#N,carroll11
2459,methylacrylate,270.0,1,COC(C=C)=O,carroll11
2460,ethylacrylate,281.0,1,C(C)OC(C=C)=O,carroll11
2461,4-bromo-1-butene,282.0,1,BrCCC=C,carroll11
2462,ethylmethacrylate,292.0,1,C(C)OC(C(=C)C)=O,carroll11
2463,methylmethacrylate,283.0,1,COC(C(=C)C)=O,carroll11
2464,butylmethacrylate,322.0,1,C(CCC)OC(C(=C)C)=O,carroll11
2465,isobutylmethacrylate,314.0,1,C(C(C)C)OC(C(=C)C)=O,carroll11
2466,isopropenylacetate,283.0,1,C(=C)(C)CC(=O)[O-],carroll11
2467,allylformate,279.0,1,C(C=C)C(=O)[O-],carroll11
2468,allylacetate,284.0,1,C(C=C)CC(=O)[O-],carroll11
2469,allylpropanoate,298.0,1,C(C=C)OC(CC)=O,carroll11
2470,allylbutanoate,315.0,1,C(C=C)OC(CCC)=O,carroll11
2471,trans-2-butenal,282.0,1,C(\C=C\C)=O,carroll11
2472,3-iodo-1-propene,289.0,1,ICC=C,carroll11
2473,3-buten-2-ol,293.0,1,CC(C=C)O,carroll11
2474,vinylacetate,265.0,1,C(=C)CC(=O)[O-],carroll11
2475,vinylpropanoate,279.0,1,C(=C)OC(CC)=O,carroll11
2476,vinylbutanoate,293.0,1,C(=C)OC(CCC)=O,carroll11
2477,2-butenenitrile,290.0,1,C(C=CC)#N,carroll11
2478,diallyldisulfide,335.0,1,C(C=C)SSCC=C,carroll11
2479,4-penten-1-ol,316.0,1,C(CCC=C)O,carroll11
2480,3-butenenitrile,294.0,1,C(CC=C)#N,carroll11
2481,propylacrylate,297.0,1,C(CC)OC(C=C)=O,carroll11
2482,mesityloxide,298.0,1,C1(=C(C(=CC(=C1)C)C)OC1=C(C=C(C=C1C)C)C)C,carroll11
2483,styrene,304.0,1,C=CC1=CC=CC=C1,carroll11
2484,propylmethacrylate,308.0,1,C(CC)OC(C(=C)C)=O,carroll11
2485,3-buten-1-ol,305.0,1,C(CC=C)O,carroll11
2486,2-methyl-2-propen-1-ol,306.0,1,CC(CO)=C,carroll11
2487,butylacrylate,310.0,1,C(CCC)OC(C=C)=O,carroll11
2488,4-methylstyrene,319.0,1,CC1=CC=C(C=C)C=C1,carroll11
2489,4-pentenylacetate,318.0,1,C(CCC=C)CC(=O)[O-],carroll11
2490,5-hexen-1-ol,320.0,1,C(CCCC=C)O,carroll11
2491,3-methylstyrene,321.0,1,CC=1C=C(C=C)C=CC1,carroll11
2492,acrylicacid,327.0,1,C(C=C)(=O)O,carroll11
2493,2-cyclohexen-1-one,329.0,1,C1(C=CCCC1)=O,carroll11
2494,trans-2-hexenylacetate,331.0,1,C(=C\CCCC)/CC(=O)[O-],carroll11
2495,N-vinyl-N-methylacetamide,336.0,1,C(=C)N(C(C)=O)C,carroll11
2496,"3,7-dimethyl-6-octenal",351.0,1,CC(CC=O)CCC=C(C)C,carroll11
2497,isophorone,357.0,1,O=C1C=C(CC(C)(C)C1)C,carroll11
2498,2-ethylhexylacrylate,359.0,1,C(C)C(COC(C=C)=O)CCCC,carroll11
2499,trans-2-pentenoicacid,375.0,1,C(\C=C\CC)(=O)O,carroll11
2500,citronellylacetate,376.0,1,C(CC(C)CCC=C(C)C)CC(=O)[O-],carroll11
2501,9-decen-1-ol,392.0,1,C(CCCCCCCC=C)O,carroll11
2502,5-chloro-1-pentyne,288.0,1,ClCCCC#C,carroll11
2503,2-propyn-1-ol,309.0,1,C(C#C)O,carroll11
2504,methyl2-octynoate,362.0,1,COC(C#CCCCCC)=O,carroll11
2505,"1,1-dichloroethene",248.0,1,ClC(=C)Cl,carroll11
2506,fluorobenzene,258.0,1,FC1=CC=CC=C1,carroll11
2507,"2,2-dichloropropane",268.0,1,ClC(C)(C)Cl,carroll11
2508,4-fluorotoluene,285.0,1,FC1=CC=C(C)C=C1,carroll11
2509,4-fluorostyrene,308.0,1,FC1=CC=C(C=C)C=C1,carroll11
2510,1-ethyl-4-fluorobenzene,303.0,1,C(C)C1=CC=C(C=C1)F,carroll11
2511,"1,2-dimethyl-4-fluorobenzene",313.0,1,CC1=C(C=C(C=C1)F)C,carroll11
2512,"1-fluoro-3,5-dimethylbenzene",308.0,1,FC1=CC(=CC(=C1)C)C,carroll11
2513,"2,3-butanedione",283.0,1,CC(C(C)=O)=O,carroll11
2514,2-fluorotoluene,285.0,1,FC1=C(C)C=CC=C1,carroll11
2515,3-fluorotoluene,285.0,1,FC=1C=C(C)C=CC1,carroll11
2516,"1,1-diethoxypropane",286.0,1,C(C)OC(CC)OCC,carroll11
2517,N-methylmorpholine,287.0,1,CN1CCOCC1,carroll11
2518,1-methylpyrrole,288.0,1,CN1C=CC=C1,carroll11
2519,pyridine,290.0,1,N1=CC=CC=C1,carroll11
2520,chloromethylmethylsulfide,290.0,1,ClCSC,carroll11
2521,2-picoline,299.0,1,N1=C(C=CC=C1)C,carroll11
2522,"1,2-dichlorobutane",300.0,1,ClCC(CC)Cl,carroll11
2523,chlorobenzene,301.0,1,ClC1=CC=CC=C1,carroll11
2524,3-methoxypropylamine,296.0,1,COCCCN,carroll11
2525,pyrrole,306.0,1,N1C=CC=C1,carroll11
2526,"1,2-propanediamine",306.0,1,C(C(C)N)N,carroll11
2527,"1,3-dichlorobutane",304.0,1,ClCCC(C)Cl,carroll11
2528,morpholine,304.0,1,N1CCOCC1,carroll11
2529,3-picoline,309.0,1,N1=CC(=CC=C1)C,carroll11
2530,4-picoline,311.0,1,N1=CC=C(C=C1)C,carroll11
2531,"2,4-pentanedione",311.0,1,CC(CC(C)=O)=O,carroll11
2532,ethylchloroacetate,326.0,1,C(C)OC(CCl)=O,carroll11
2533,"1,4-dichlorobutane",316.0,1,ClCCCCCl,carroll11
2534,2-chlorotoluene,320.0,1,ClC1=C(C)C=CC=C1,carroll11
2535,3-chloro-1-propanethiol,316.0,1,ClCCCS,carroll11
2536,2-methoxyethylacetate,316.0,1,COCCOC(C)=O,carroll11
2537,"2,4-dimethylpyridine",320.0,1,CC1=NC=CC(=C1)C,carroll11
2538,4-chlorotoluene,319.0,1,ClC1=CC=C(C)C=C1,carroll11
2539,3-chlorotoluene,323.0,1,ClC=1C=C(C)C=CC1,carroll11
2540,benzenethiol,324.0,1,C1(=CC=CC=C1)S,carroll11
2541,bromobenzene,324.0,1,BrC1=CC=CC=C1,carroll11
2542,2-ethoxyethylacetate,324.0,1,C(C)OCCOC(C)=O,carroll11
2543,2-methylanisole,324.0,1,CC1=C(C=CC=C1)OC,carroll11
2544,3-methylanisole,325.0,1,CC=1C=C(C=CC1)OC,carroll11
2545,2-chloro-1-propanol,324.0,1,ClC(CO)C,carroll11
2546,4-methylanisole,326.0,1,CC1=CC=C(C=C1)OC,carroll11
2547,benzylmethylether,326.0,1,C(C1=CC=CC=C1)OC,carroll11
2548,2-chloroethanol,328.0,1,ClCCO,carroll11
2549,"2,4,6-trimethylpyridine",327.0,1,CC1=NC(=CC(=C1)C)C,carroll11
2550,4-thiapentanal,334.0,1,C(CCSC)=O,carroll11
2551,benzylethylether,332.0,1,C(C1=CC=CC=C1)OCC,carroll11
2552,benzylchloride,333.0,1,C(C1=CC=CC=C1)Cl,carroll11
2553,benzaldehyde,335.0,1,C(C1=CC=CC=C1)=O,carroll11
2554,1-bromo-3-ethylbenzene,344.0,1,BrC1=CC(=CC=C1)CC,carroll11
2555,"1,5-dichloropentane",336.0,1,ClCCCCCCl,carroll11
2556,1-chloro-4-ethylbenzene,335.0,1,ClC1=CC=C(C=C1)CC,carroll11
2557,benzylamine,338.0,1,C(C1=CC=CC=C1)N,carroll11
2558,2-mercaptoethanol,341.0,1,SCCO,carroll11
2559,aniline,343.0,1,NC1=CC=CC=C1,carroll11
2560,2-ethyl-6-methylaniline,375.0,1,C(C)C1=C(N)C(=CC=C1)C,carroll11
2561,benzonitrile,343.0,1,C(C1=CC=CC=C1)#N,carroll11
2562,benzylmercaptan,343.0,1,C(C1=CC=CC=C1)S,carroll11
2563,ethylacetoacetate,343.0,1,C(C)OC(CC(=O)C)=O,carroll11
2564,2-butoxyethylacetate,344.0,1,C(CCC)OCCOC(C)=O,carroll11
2565,benzylmethylsulfide,346.0,1,C(C1=CC=CC=C1)SC,carroll11
2566,3-chloro-1-propanol,346.0,1,ClCCCO,carroll11
2567,tert-butylacetoacetate,349.0,1,C(C)(C)(C)OC(CC(=O)C)=O,carroll11
2568,iodobenzene,347.0,1,IC1=CC=CC=C1,carroll11
2569,3-bromotoluene,348.0,1,BrC=1C=C(C)C=CC1,carroll11
2570,"N,N-dimethylaniline",348.0,1,CN(C1=CC=CC=C1)C,carroll11
2571,1-bromo-2-ethylbenzene,352.0,1,BrC1=C(C=CC=C1)CC,carroll11
2572,acetophenone,350.0,1,C(C)(=O)C1=CC=CC=C1,carroll11
2573,2-bromotoluene,351.0,1,BrC1=C(C)C=CC=C1,carroll11
2574,N-methylaniline,352.0,1,CNC1=CC=CC=C1,carroll11
2575,benzylbromide,352.0,1,C(C1=CC=CC=C1)Br,carroll11
2576,"2,5-hexanedione",351.0,1,CC(CCC(C)=O)=O,carroll11
2577,methylbenzoate,353.0,1,COC(C1=CC=CC=C1)=O,carroll11
2578,ethylbenzoate,357.0,1,C(C)OC(C1=CC=CC=C1)=O,carroll11
2579,propylbenzoate,371.0,1,C(CC)OC(C1=CC=CC=C1)=O,carroll11
2580,butylbenzoate,380.0,1,C(CCC)OC(C1=CC=CC=C1)=O,carroll11
2581,pentylbenzoate,393.0,1,C(CCCC)OC(C1=CC=CC=C1)=O,carroll11
2582,1-iodo-3-methylbenzene,356.0,1,IC1=CC(=CC=C1)C,carroll11
2583,o-toluidine,358.0,1,NC=1C(=CC=CC1)C,carroll11
2584,2-ethylphenol,358.0,1,C(C)C1=C(C=CC=C1)O,carroll11
2585,3-methylphenylacetate,358.0,1,CC=1C=C(C=CC1)CC(=O)[O-],carroll11
2586,m-cresol,359.0,1,C1=C(C=CC=C1O)C,carroll11
2587,3-methylaniline,359.0,1,CC=1C=C(N)C=CC1,carroll11
2588,4-ethylaniline,370.0,1,C(C)C1=CC=C(N)C=C1,carroll11
2589,3-ethylaniline,358.0,1,C(C)C=1C=C(N)C=CC1,carroll11
2590,2-ethylaniline,358.0,1,C(C)C1=C(N)C=CC=C1,carroll11
2591,nitrobenzene,361.0,1,[N+](=O)([O-])C1=CC=CC=C1,carroll11
2592,"N,N-diethylaniline",361.0,1,C(C)N(C1=CC=CC=C1)CC,carroll11
2593,2-isopropylphenol,362.0,1,C(C)(C)C1=C(C=CC=C1)O,carroll11
2594,2-iodotoluene,363.0,1,IC1=C(C)C=CC=C1,carroll11
2595,4-iodotoluene,363.0,1,IC1=CC=C(C)C=C1,carroll11
2596,4-propylanisole,355.0,1,C(CC)C1=CC=C(C=C1)OC,carroll11
2597,1-phenyl-2-butanone,364.0,1,C1(=CC=CC=C1)CC(CC)=O,carroll11
2598,1-phenylethylacetate,364.0,1,C1(=CC=CC=C1)C(C)OC(C)=O,carroll11
2599,benzylalcohol,366.0,1,C(C1=CC=CC=C1)O,carroll11
2600,2-propylphenol,366.0,1,C(CC)C1=C(C=CC=C1)O,carroll11
2601,"2,4-dimethylphenol",367.0,1,CC1=C(C=CC(=C1)C)O,carroll11
2602,3-ethylphenol,367.0,1,C(C)C=1C=C(C=CC1)O,carroll11
2603,1-phenylethylpropionate,379.0,1,C1(=CC=CC=C1)C(C)OC(CC)=O,carroll11
2604,benzylacetate,363.0,1,C(C1=CC=CC=C1)CC(=O)[O-],carroll11
2605,"1,5-pentanedithiol",368.0,1,C(CCCCS)S,carroll11
2606,"2,3-dimethylaniline",369.0,1,CC1=C(N)C=CC=C1C,carroll11
2607,benzylpropanoate,369.0,1,C(C1=CC=CC=C1)OC(CC)=O,carroll11
2608,1-phenyl-1-butanone,361.0,1,C1(=CC=CC=C1)C(CCC)=O,carroll11
2609,benzyliodide,370.0,1,C(C1=CC=CC=C1)I,carroll11
2610,benzylcyanide,374.0,1,C(C1=CC=CC=C1)C#N,carroll11
2611,4-tert-butylaniline,375.0,1,C(C)(C)(C)C1=CC=C(N)C=C1,carroll11
2612,3-tert-butylaniline,374.0,1,C(C)(C)(C)C=1C=C(N)C=CC1,carroll11
2613,4-butylaniline,375.0,1,C(CCC)C1=CC=C(N)C=C1,carroll11
2614,4-propylaniline,376.0,1,C(CC)C1=CC=C(N)C=C1,carroll11