smiles,compound,flashpoint,source,pure substance,canonical smiles
CCC(C)C(C)(C)C(C)C,"2,3,3,4-tetramethylhexane",304.0,Saldana11,1,CCC(C)C(C)(C)C(C)C
CC(C)C(C)(C)C(C)C,"2,3,3,4-tetramethylpentane",284.0,Saldana11,1,CC(C)C(C)(C)C(C)C
CCC(C)C(C)C(C)C,"2,3,4-trimethylhexane",288.0,Saldana11,1,CCC(C)C(C)C(C)C
CC(C)C(C)C(C)C,"2,3,4-trimethylpentane",273.0,Saldana11,1,CC(C)C(C)C(C)C
CCC(C)(C)C(C)C(C)C,"2,3,4,4-tetramethylhexane",304.0,Saldana11,1,CCC(C)(C)C(C)C(C)C
CC(C)C(C)C(C)C(C)C,"2,3,4,5-tetramethylhexane",304.0,Saldana11,1,CC(C)C(C)C(C)C(C)C
CCC(C)CC(C)C(C)C,"2,3,5-trimethylheptane",304.0,Saldana11,1,CCC(C)CC(C)C(C)C
CC(C)CC(C)C(C)C,"2,3,5-trimethylhexane",288.0,Saldana11,1,CC(C)CC(C)C(C)C
CCCC(C)CC(C)C,"2,4-dimethylheptane",288.0,Saldana11,1,CCCC(C)CC(C)C
CCC(C)CC(C)C,"2,4-dimethylhexane",283.0,Saldana11,1,CCC(C)CC(C)C
CC(C)CC(C)C,"2,4-dimethylpentane",261.0,Saldana11,1,CC(C)CC(C)C
CCC(C)(C)CC(C)C,"2,4,4-trimethylhexane",288.0,Saldana11,1,CCC(C)(C)CC(C)C
CCC(C)C(C)CC(C)C,"2,4,5-trimethylheptane",304.0,Saldana11,1,CCC(C)C(C)CC(C)C
CC(C)CC(C)CC(C)C,"2,4,6-trimethylheptane",304.0,Saldana11,1,CC(C)CC(C)CC(C)C
CCC(C)CCC(C)C,"2,5-dimethylheptane",288.0,Saldana11,1,CCC(C)CCC(C)C
CC(C)CCC(C)C,"2,5-dimethylhexane",271.0,Saldana11,1,CC(C)CCC(C)C
CC(C)CCCC(C)C,"2,6-dimethylheptane",299.0,Saldana11,1,CC(C)CCCC(C)C
CCC(C)CCCC(C)C,"2,6-dimethyloctane",307.0,Saldana11,1,CCC(C)CCCC(C)C
CC(CCCCC(C)CCCC(C)CCCC(C)C)CCCC(C)CCCC(C)C,"2,6,10,15,19,23-hexamethyltetracosane",490.0,Saldana11,1,CC(C)CCCC(C)CCCC(C)CCCCC(C)CCCC(C)CCCC(C)C
CC(C)CCCCC(C)C,"2,7-dimethyloctane",314.0,Saldana11,1,CC(C)CCCCC(C)C
CCC(CC)C(C)C,3-ethyl-2-methylpentane,276.0,Saldana11,1,CCC(CC)C(C)C
CCCC(CC)C(C)(C)C,"3-ethyl-2,2-dimethylhexane",311.0,Saldana11,1,CCCC(CC)C(C)(C)C
CCC(CC)C(C)(C)C,"3-ethyl-2,2-dimethylpentane",286.0,Saldana11,1,CCC(CC)C(C)(C)C
CCC(C)(CC)C(C)C,"3-ethyl-2,3-dimethylpentane",288.0,Saldana11,1,CCC(C)(CC)C(C)C
CCC(C)(C(C)C)C(C)C,"3-ethyl-2,3,4-trimethylpentane",304.0,Saldana11,1,CCC(C)(C(C)C)C(C)C
CCC(C(C)C)C(C)C,"3-ethyl-2,4-dimethylpentane",288.0,Saldana11,1,CCC(C(C)C)C(C)C
CCCCC(C)(CC)CC,3-ethyl-3-methylheptane,314.0,Saldana11,1,CCCCC(C)(CC)CC
CCC(C)(CC)CC,3-ethyl-3-methylpentane,276.0,Saldana11,1,CCC(C)(CC)CC
CCC(CC)C(C)CC,3-ethyl-4-methylhexane,288.0,Saldana11,1,CCC(C)C(CC)CC
CCC(C)CC(CC)CC,3-ethyl-5-methylheptane,304.0,Saldana11,1,CCC(C)CC(CC)CC
CCCC(CC)CC,3-ethylhexane,278.0,Saldana11,1,CCCC(CC)CC
CCC(CC)CC,3-ethylpentane,261.0,Saldana11,1,CCC(CC)CC
CCCCC(C)CC,3-methylheptane,279.0,Saldana11,1,CCCCC(C)CC
CCCC(C)CC,3-methylhexane,269.0,Saldana11,1,CCCC(C)CC
CCCCCCC(C)CC,3-methylnonane,311.0,Saldana11,1,CCCCCCC(C)CC
CCCCCC(C)CC,3-methyloctane,297.0,Saldana11,1,CCCCCC(C)CC
CCC(C)CC,3-methylpentane,241.0,Saldana11,1,CCC(C)CC
CCC(CC)(CC)CC,"3,3-diethylpentane",294.0,Saldana11,1,CCC(CC)(CC)CC
CCCC(C)(C)CC,"3,3-dimethylhexane",272.0,Saldana11,1,CCCC(C)(C)CC
CCCCCC(C)(C)CC,"3,3-dimethyloctane",314.0,Saldana11,1,CCCCCC(C)(C)CC
CCC(C)(C)CC,"3,3-dimethylpentane",254.0,Saldana11,1,CCC(C)(C)CC
CCC(C)C(C)(C)CC,"3,3,4-trimethylhexane",288.0,Saldana11,1,CCC(C)C(C)(C)CC
CCC(C)(C)C(C)(C)CC,"3,3,4,4-tetramethylhexane",304.0,Saldana11,1,CCC(C)(C)C(C)(C)CC
CCC(C)CC(C)(C)CC,"3,3,5-trimethylheptane",304.0,Saldana11,1,CCC(C)CC(C)(C)CC
CCCC(C)C(C)CC,"3,4-dimethylheptane",288.0,Saldana11,1,CCCC(C)C(C)CC
CCC(C)C(C)CC,"3,4-dimethylhexane",277.0,Saldana11,1,CCC(C)C(C)CC
CCC(C)C(C)C(C)CC,"3,4,5-trimethylheptane",304.0,Saldana11,1,CCC(C)C(C)C(C)CC
CCC(C)CC(C)CC,"3,5-dimethylheptane",288.0,Saldana11,1,CCC(C)CC(C)CC
CCCC(C)CC(C)CC,"3,5-dimethyloctane",314.0,Saldana11,1,CCCC(C)CC(C)CC
CCCC(CC)C(C)CC,4-ethyl-3-methylheptane,314.0,Saldana11,1,CCCC(CC)C(C)CC
CCCC(CC)CCC,4-ethylheptane,288.0,Saldana11,1,CCCC(CC)CCC
CCCCC(CC)CCC,4-ethyloctane,314.0,Saldana11,1,CCCCC(CC)CCC
CCCC(C)CCC,4-methylheptane,279.0,Saldana11,1,CCCC(C)CCC
CCCCCC(C)CCC,4-methylnonane,311.0,Saldana11,1,CCCCCC(C)CCC
CCCCC(C)CCC,4-methyloctane,295.0,Saldana11,1,CCCCC(C)CCC
CCCC(CCC)CCC,4-propylheptane,314.0,Saldana11,1,CCCC(CCC)CCC
CCCC(C)(C)CCC,"4,4-dimethylheptane",288.0,Saldana11,1,CCCC(C)(C)CCC
CCCCC(C)CCCC,5-methylnonane,312.0,Saldana11,1,CCCCC(C)CCCC
CC(C)C,isobutane,190.0,Saldana11,1,CC(C)C
CCCC(C)C,isohexane,250.0,Saldana11,1,CCCC(C)C
CCC(C)C,isopentane,217.0,Saldana11,1,CCC(C)C
CCCCCCCCCC,n-decane,319.0,Saldana11,1,CCCCCCCCCC
CCCCCCCCCCCC,n-dodecane,347.0,Saldana11,1,CCCCCCCCCCCC
CCCCCCCCCCCCCCCCC,n-heptadecane,421.0,Saldana11,1,CCCCCCCCCCCCCCCCC
CCCCCCC,n-heptane,269.0,Saldana11,1,CCCCCCC
CCCCCCCCCCCCCCCC,n-hexadecane,408.0,Saldana11,1,CCCCCCCCCCCCCCCC
CCCCCC,n-hexane,252.0,Saldana11,1,CCCCCC
CCCCCCCCCCCCCCCCCCC,n-nonadecane,441.0,Saldana11,1,CCCCCCCCCCCCCCCCCCC
CCCCCCCCC,n-nonane,304.0,Saldana11,1,CCCCCCCCC
CCCCCCCCCCCCCCCCCC,n-octadecane,438.0,Saldana11,1,CCCCCCCCCCCCCCCCCC
CCCCCCCC,n-octane,286.0,Saldana11,1,CCCCCCCC
CCCCCCCCCCCCCCC,n-pentadecane,388.0,Saldana11,1,CCCCCCCCCCCCCCC
CCCCC,n-pentane,233.0,Saldana11,1,CCCCC
CCCCCCCCCCCCCC,n-tetradecane,373.0,Saldana11,1,CCCCCCCCCCCCCC
CCCCCCCCCCCCC,n-tridecane,352.0,Saldana11,1,CCCCCCCCCCCCC
CCCCCCCCCCC,n-undecane,338.0,Saldana11,1,CCCCCCCCCCC
CCCCC,pentane,233.0,carroll11,1,OC/C=C/CO
CCCCCC,hexane,247.0,carroll11,1,OC[C@H](O)[C@@H](O)[C@H](O)[C@H](O)CO
CCCCCCC,heptane,269.0,carroll11,1,OCC[C@H](O)CO
CCCCCCCC,octane,286.0,carroll11,1,OC/C=C\CO
CCCCCCCCC,nonane,304.0,carroll11,1,CC/C=C\C/C=C\C/C=C\CCCCCCCCO
CCCCCCCCCC,decane,319.0,carroll11,1,CCCCC/C=C\C/C=C\CCCCCCCCO
CCCCCCCCCCC,undecane,333.0,carroll11,1,CCCCCC/C=C\CCCCCCCCO
CCCCCCCCCCCC,dodecane,344.0,carroll11,1,CCCCCCCC/C=C\CCCCCCCCO
CCCCCCCCCCCCC,tridecane,367.0,carroll11,1,CCCCC(CC)(CO)CO
CCCCCCCCCCCCCC,tetradecane,373.0,carroll11,1,CCCCCCC(CO)CCCC
CCCCCCCCCCCCCCC,pentadecane,388.0,carroll11,1,CCC(CC)CO
CCCCCCCCCCCCCCCC,hexadecane,408.0,carroll11,1,CCCCC(CC)CO
CCCCCCCCCCCCCCCCC,heptadecane,421.0,carroll11,1,CCCC(O)C(CC)CO
CC(C)CC,2-methylbutane,222.0,carroll11,1,CCC(C)CO
CC(C)CCC,2-methylpentane,241.0,carroll11,1,CCC(C)(C)O
CC(C)CCCCC,2-methylheptane,277.0,carroll11,1,CCCCCC(C)(C)O
CC(C)CCCCCC,2-methyloctane,297.0,carroll11,1,CCCCC(C)(C)O
CC(C)CCCCCCC,2-methylnonane,311.0,carroll11,1,CCCCCCCC(C)(C)O
CC(C)CCCCCCCC,2-methyldecane,323.0,carroll11,1,CCCCCCC(C)(C)O
CC(C)CCCCCCCCC,2-methylundecane,334.0,carroll11,1,CCCC(C)CO
CC(C)CCCCCCCCCC,2-methyldodecane,344.0,carroll11,1,CCCC(C)(C)O
C1CCCC1,cyclopentane,236.0,carroll11,1,CC(O)CC(C)(C)O
CC(C)(CC)C,"2,2-dimethylbutane",244.0,carroll11,1,CC(C)CO
CC(C)C(C)C,"2,3-dimethylbutane",244.0,carroll11,1,CC(C)(C)O
CC1CCCC1,methylcyclopentane,250.0,carroll11,1,OCC(CO)(CO)CO
CC(C)(CCC)C,"2,2-dimethylpentane",250.0,carroll11,1,CCC(CC)(CO)CO
CC(C)(C(C)C)C,"2,2,3-trimethylbutane",249.0,carroll11,1,CC(C)(CO)CO
CC(C)CC(C)C,"2,4-dimethylpentane",261.0,carroll11,1,CC(C)CC(C)(C)CO
C1CCCCC1,cyclohexane,255.0,carroll11,1,CC(C)C(O)C(C)(C)CO
CC(CC)(CC)C,"3,3-dimethylpentane",254.0,carroll11,1,CC(C)(O)C(C)(C)O
CC1(CCCC1)C,"1,1-dimethylcyclopentane",257.0,carroll11,1,CC(C)C(C)C(C)CO
CC(C)C(CC)C,"2,3-dimethylpentane",258.0,carroll11,1,CC(CO)CC(C)(C)C
CC(CC)CC,3-methylpentane,241.0,carroll11,1,CCCC[C@@H](CC)CO
CC(CC)CCC,3-methylhexane,258.0,carroll11,1,CCCC[C@H](CC)CO
CC(CC)CCCC,3-methylheptane,279.0,carroll11,1,CC(C)CCO
CC(CC)CCCCC,3-methyloctane,297.0,carroll11,1,CC(C)C(C)O
CC(CC)CCCCCC,3-methylnonane,314.0,carroll11,1,CCCCCCCC(C)(O)CC
C(C)C(CC)CC,3-ethylpentane,261.0,carroll11,1,CCCCC(C)(O)CC
CC(C)(CC(C)C)C,"2,2,4-trimethylpentane",266.0,carroll11,1,CCCC(C)(O)CC
C[C@H]1[C@H](CCC1)C,"cis-1,2-dimethylcyclopentane",269.0,carroll11,1,CCCCCCC(C)(O)CC
CC1CCCCC1,methylcyclohexane,269.0,carroll11,1,CCCCCC(C)(O)CC
C(C)C1CCCC1,ethylcyclopentane,269.0,carroll11,1,CCC(C)CCO
CC(C)(CCCC)C,"2,2-dimethylhexane",270.0,carroll11,1,CCC(C)(O)CC
CC(C)(C(C)(C)C)C,"2,2,3,3-tetramethylbutane",273.0,carroll11,1,CC(C)(C)CCO
CC(C)CCC(C)C,"2,5-dimethylhexane",271.0,carroll11,1,CC(C)CC(C)O
CC(C)(C(CC)C)C,"2,2,3-trimethylpentane",270.0,carroll11,1,CCC(C)CC(O)CC
CC(CC)(CCC)C,"3,3-dimethylhexane",272.0,carroll11,1,CC(C)CCCCCCCO
CC(C)C(C(C)C)C,"2,3,4-trimethylpentane",273.0,carroll11,1,CCCCO
CC(C)C(CC)(C)C,"2,3,3-trimethylpentane",278.0,carroll11,1,CCC(C)O
C(C)C(C(C)C)CC,3-ethyl-2-methylpentane,276.0,carroll11,1,CCCC(O)O
CC(C)C(CCC)C,"2,3-dimethylhexane",278.0,carroll11,1,CCC(O)CO
CC(CC)C(CC)C,"3,4-dimethylhexane",279.0,carroll11,1,CC(O)CCO
CC(CCC)CCC,4-methylheptane,278.0,carroll11,1,OCCCCO
C(C)C(CC)(CC)C,3-ethyl-3-methylpentane,276.0,carroll11,1,CC(O)C(C)O
C(C)C(CC)CCC,3-ethylhexane,278.0,carroll11,1,CCCCCCCCCCO
C1CCCCCC1,cycloheptane,279.0,carroll11,1,CCCCCCCCC(C)O
C[C@@H]1CC[C@H](CC1)C,"trans-1,4-dimethylcyclohexane",279.0,carroll11,1,CCCCCCCC(O)CC
C[C@@H]1C[C@@H](CCC1)C,"cis-1,3-dimethylcyclohexane",279.0,carroll11,1,CCCCCCC(O)CCC
CC1(CCCCC1)C,"1,1-dimethylcyclohexane",280.0,carroll11,1,CCCCCCCCCCCCO
CC(C)(CC(C)(C)C)C,"2,2,4,4-tetramethylpentane",279.0,carroll11,1,CCCCCCCCCCC(C)O
C(C)C1(CCCC1)C,1-ethyl-1-methylcyclopentane,279.0,carroll11,1,CCCCCCCCCC(O)CC
CC(C)(CCC(C)C)C,"2,2,5-trimethylhexane",286.0,carroll11,1,CCCCCCCCC(O)CCC
C[C@@H]1C[C@H](CCC1)C,"trans-1,3-dimethylcyclohexane",281.0,carroll11,1,CCCCCCCCCCCCCCCCCCCCO
C[C@@H]1CC[C@@H](CC1)C,"cis-1,4-dimethylcyclohexane",279.0,carroll11,1,CCCCCCCCCCCCCCCCCCC(C)O
C(C)(C)C1CCCC1,isopropylcyclopentane,287.0,carroll11,1,CCCCCCCCCCCCCCCCCC(O)CC
CC(C)(CC(CC)C)C,"2,2,4-trimethylhexane",286.0,carroll11,1,CCCCCCCCCCCCCCCCC(O)CCC
C[C@H]1[C@H](CCCC1)C,"cis-1,2-dimethylcyclohexane",285.0,carroll11,1,OCCO
CC(C)CC(CC)(C)C,"2,4,4-trimethylhexane",288.0,carroll11,1,CCO
CC(C)C(CC(C)C)C,"2,3,5-trimethylhexane",288.0,carroll11,1,CCCCCCCCCCCCCCCCCO
C(CC)C1CCCC1,propylcyclopentane,289.0,carroll11,1,CCCCCCCCCCCCCCCC(C)O
C(C)C1CCCCC1,ethylcyclohexane,291.0,carroll11,1,CCCCCCCCCCCCCCC(O)CC
CC(C)(C(C(C)C)C)C,"2,2,3,4-tetramethylpentane",284.0,carroll11,1,CCCCCCCCCCCCCC(O)CCC
CC(C)CC(CCC)C,"2,4-dimethylheptane",288.0,carroll11,1,CCCCCCCO
CC(C)(CCCCC)C,"2,2-dimethylheptane",297.0,carroll11,1,CCCCCC(C)O
C(C)C(C(C)(C)C)CC,"3-ethyl-2,2-dimethylpentane",286.0,carroll11,1,CCCCC(O)CC
CC(C)(C(CCC)C)C,"2,2,3-trimethylhexane",288.0,carroll11,1,CCCC(O)CCC
CC(CCC)(CCC)C,"4,4-dimethylheptane",288.0,carroll11,1,CCCCCCCCCCCCCCCCO
CC(C)CCC(CC)C,"2,5-dimethylheptane",288.0,carroll11,1,CCCCCCCCCCCCCCC(C)O
CC(C)CCCC(C)C,"2,6-dimethylheptane",299.0,carroll11,1,CCCCCCCCCCCCCC(O)CC
CC(CC)CC(CC)C,"3,5-dimethylheptane",288.0,carroll11,1,CCCCCCCCCCCCC(O)CCC
C(C)C(C(C)C)C(C)C,"3-ethyl-2,4-dimethylpentane",288.0,carroll11,1,CCCCCCO
CC(C)(CCC(C)(C)C)C,"2,2,5,5-tetramethylhexane",289.0,carroll11,1,CCCCC(C)O
CC(C)C(CCC)(C)C,"2,3,3-trimethylhexane",288.0,carroll11,1,CCCC(O)CC
CC(C)C(C(CC)C)C,"2,3,4-trimethylhexane",288.0,carroll11,1,OCCCCC(O)CO
CC(C)C(C(C)C)(C)C,"2,3,3,4-tetramethylpentane",284.0,carroll11,1,OCCCCCCO
CC(C)C(CCCC)C,"2,3-dimethylheptane",288.0,carroll11,1,CC(O)CCC(C)O
CC(C)(C(CC)(C)C)C,"2,2,3,3-tetramethylpentane",289.0,carroll11,1,CO
C(C)C(CCC)CCC,4-ethylheptane,288.0,carroll11,1,CCCCCCCCCCCCCCCCCCCO
C(C)C(CC)C(CC)C,3-ethyl-4-methylhexane,288.0,carroll11,1,CCCCCCCCCCCCCCCCCC(C)O
CC(CC)C(CCC)C,"3,4-dimethylheptane",288.0,carroll11,1,CCCCCCCCCCCCCCCCC(O)CC
CC(CC)(C(CC)C)C,"3,3,4-trimethylhexane",288.0,carroll11,1,CCCCCCCCCCCCCCCC(O)CCC
C(C)C(C(C)C)(CC)C,"3-ethyl-2,3-dimethylpentane",288.0,carroll11,1,CCCCCCCCCO
CC(CCC)CCCC,4-methyloctane,295.0,carroll11,1,CCCCCCCC(C)O
C(C)C(CC)(CC)CC,"3,3-diethylpentane",294.0,carroll11,1,CCCCCCC(O)CC
CC(C)CC(CC(C)C)C,"2,4,6-trimethylheptane",304.0,carroll11,1,CCCCCC(O)CCC
C1CCCCCCC1,cyclooctane,301.0,carroll11,1,C=CC(O)CCCCC
CC(C)(CC(CC)(C)C)C,"2,2,4,4-tetramethylhexane",304.0,carroll11,1,CCCCCCCCCCCCCCCCCCO
CC(C)(CCCCCC)C,"2,2-dimethyloctane",304.0,carroll11,1,CCCCCCCCCCCCCCCCC(C)O
CC(C)(C(C(CC)C)C)C,"2,2,3,4-tetramethylhexane",304.0,carroll11,1,CCCCCCCCCCCCCCCC(O)CC
C(C)(C)C1CCCCC1,isopropylcyclohexane,308.0,carroll11,1,CCCCCCCCCCCCCCC(O)CCC
CC(CC)(CC(CC)C)C,"3,3,5-trimethylheptane",304.0,carroll11,1,CCCCCCCCO
CC(C)C(C(C(C)C)C)C,"2,3,4,5-tetramethylhexane",304.0,carroll11,1,CCCCCCC(C)O
C(CC)C1CCCCC1,propylcyclohexane,304.0,carroll11,1,CCCCCC(O)CC
C(CCC)C1CCCC1,butylcyclopentane,305.0,carroll11,1,CCCCC(O)CCC
C(C)C(CC)CC(CC)C,3-ethyl-5-methylheptane,304.0,carroll11,1,CCCCCCCCCCCCCCCO
CC(C)CCCC(CC)C,"2,6-dimethyloctane",307.0,carroll11,1,CCCCCCCCCCCCCC(C)O
C(C)C(C(C)(C)C)CCC,"3-ethyl-2,2-dimethylhexane",311.0,carroll11,1,CCCCCCCCCCCCC(O)CC
CC(CC)CC(CCC)C,"3,5-dimethyloctane",314.0,carroll11,1,CCCCCCCCCCCC(O)CCC
CC(C)(C(CCC)(C)C)C,"2,2,3,3-tetramethylhexane",304.0,carroll11,1,CCCCCO
CC(CC)(CCCCC)C,"3,3-dimethyloctane",314.0,carroll11,1,CCCC(C)O
CC(C)C(C(CC)(C)C)C,"2,3,4,4-tetramethylhexane",304.0,carroll11,1,CCC(O)CC
C(CC)C(CCC)CCC,4-propylheptane,308.0,carroll11,1,CCCCC(O)O
C(C)C(CCC)CCCC,4-ethyloctane,314.0,carroll11,1,CCCC(O)CO
CC(CC)C(C(CC)C)C,"3,4,5-trimethylheptane",304.0,carroll11,1,CCC(O)CCO
CC(C)C(CCCCC)C,"2,3-dimethyloctane",309.0,carroll11,1,CC(O)CCCO
C(C)C(CC)(CCCC)C,3-ethyl-3-methylheptane,314.0,carroll11,1,OCCCCCO
CC(C)C(C(CC)C)(C)C,"2,3,3,4-tetramethylhexane",304.0,carroll11,1,CC(O)CC(C)O
CC(CCCC)CCCC,5-methylnonane,310.0,carroll11,1,C=CCO
CC(CCC)CCCCC,4-methylnonane,311.0,carroll11,1,CCCO
C(C)C(C(CC)C)CCC,4-ethyl-3-methylheptane,314.0,carroll11,1,CC(C)O
C(C)C(C(C)C)(C(C)C)C,"3-ethyl-2,3,4-trimethylpentane",304.0,carroll11,1,CCC(O)O
CC(CC)(C(CC)(C)C)C,"3,3,4,4-tetramethylhexane",304.0,carroll11,1,CC(O)CO
C(C)(C)(C)C1CCCCC1,tert-butylcyclohexane,313.0,carroll11,1,OCC(O)CO
C1CCCCCCCC1,cyclononane,316.0,carroll11,1,OCCCO
C(CCC)C1CCCCC1,butylcyclohexane,321.0,carroll11,1,CCCCCCCCCCCCCCO
C1CCC[C@@H]2CCCC[C@@H]12,trans-decalin,326.0,carroll11,1,CCCCCCCCCCCCC(C)O
C1CCC[C@@H]2CCCC[C@H]12,cis-decalin,330.0,carroll11,1,CCCCCCCCCCCC(O)CC
C1CCCCCCCCC1,cyclodecane,332.0,carroll11,1,CCCCCCCCCCC(O)CCC
C(CCCC)C1CCCCC1,pentylcyclohexane,336.0,carroll11,1,CCCCCCCCCCCCCO
C1(CCCCC1)C1CCCCC1,bicyclohexyl,365.0,carroll11,1,CCCCCCCCCCCC(C)O
CC(C)(CC(CC(CC(C)(C)C)C)(C)C)C,"2,2,4,4,6,8,8-heptamethylnonane",368.0,carroll11,1,CCCCCCCCCCC(O)CC
C=CCCC,1-pentene,222.0,carroll11,1,CCCCCCCCCC(O)CCC
C=CCCCC,1-hexene,247.0,carroll11,1,CCCCCCCCCCCO
C=CCCCCC,1-heptene,264.0,carroll11,1,CCCCCCCCCC(C)O
C=CCCCCCCC,1-nonene,298.0,carroll11,1,CCCCCCCCC(O)CC
C=CCCCCCCCC,1-decene,311.0,carroll11,1,CCCCCCCC(O)CCC
C=CCCCCCCCCC,1-undecene,327.0,carroll11,1,CCCCCCC(C)c1ccccc1
C=CCCCCCCCCCC,1-dodecene,346.0,carroll11,1,C/C=C/c1ccccc1
C=CCCCCCCCCCCC,1-tridecene,365.0,carroll11,1,C/C=C\c1ccccc1
C=CCCCCCCCCCCCC,1-tetradecene,370.0,carroll11,1,CCC(C)Cc1ccccc1
C=CCCCCCCCCCCCCC,1-pentadecene,386.0,carroll11,1,CC(C)(C)Cc1ccccc1
C=CCCCCCCCCCCCCCC,1-hexadecene,402.0,carroll11,1,CCCCCCCC/C=C(\C)c1ccccc1
C=CCCCCCCCCCCCCCCC,1-heptadecene,414.0,carroll11,1,CCCCCCCC/C=C(/C)c1ccccc1
C=CCCCCCCCCCCCCCCCC,1-octadecene,427.0,carroll11,1,CC[C@@H](C)C[C@@](C)(CC)c1ccc2ccccc2c1
C\C=C/CC,cis-2-pentene,227.0,carroll11,1,CC[C@@H](C)C[C@](C)(CC)c1ccc2ccccc2c1
C\C=C\CC,trans-2-pentene,228.0,carroll11,1,CC[C@H](C)C[C@@](C)(CC)c1ccc2ccccc2c1
CC\C=C/CC,cis-3-hexene,248.0,carroll11,1,CC[C@H](C)C[C@](C)(CC)c1ccc2ccccc2c1
CC\C=C\CC,trans-3-hexene,248.0,carroll11,1,CCCCc1cccc2ccccc12
C\C=C\CCC,trans-2-hexene,248.0,carroll11,1,Cc1ccccc1C(C)C
C\C=C/CCC,cis-2-hexene,248.0,carroll11,1,CCc1ccccc1C
CC\C=C/CCC,cis-3-heptene,264.0,carroll11,1,CCc1cccc(C)c1C
CC\C=C\CCC,trans-3-heptene,266.0,carroll11,1,CCc1ccc(C)cc1C
C\C=C\CCCC,trans-2-heptene,267.0,carroll11,1,CCc1cccc(C)c1
C\C=C/CCCC,cis-2-heptene,267.0,carroll11,1,CCc1cc(C)cc2ccccc12
CCC\C=C\CCC,trans-4-octene,281.0,carroll11,1,CCc1ccc(C)cc1
CC\C=C\CCCC,trans-3-octene,282.0,carroll11,1,Cc1cccc2c1Cc1ccccc1C2
CCC\C=C/CCC,cis-4-octene,290.0,carroll11,1,CCc1cccc2ccccc12
CC\C=C/CCCC,cis-3-octene,287.0,carroll11,1,CCC1CCCc2ccccc21
C\C=C\CCCCC,trans-2-octene,287.0,carroll11,1,C=Cc1ccccc1C
CC(=C)CC,2-methyl-1-butene,226.0,carroll11,1,Cc1cccc(C(C)C)c1
CC(C)=CC,2-methyl-2-butene,228.0,carroll11,1,C=Cc1cccc(C)c1
C1=CCCC1,cyclopentene,243.0,carroll11,1,CCCc1cccc(C)c1
CC(CC=C)C,4-methyl-1-pentene,241.0,carroll11,1,CCCCC(CC)c1ccc(C)cc1
CC(C=C)CC,3-methyl-1-pentene,240.0,carroll11,1,C=Cc1ccc(C)cc1
CC(\C=C/C)C,cis-4-methyl-2-pentene,240.0,carroll11,1,CCCCCCCc1ccc(C)cc1
CC(/C=C/C)C,trans-4-methyl-2-pentene,246.0,carroll11,1,CCCCCc1ccc(C)cc1
CC(=C)CCC,2-methyl-1-pentene,246.0,carroll11,1,Cc1cccc2ccccc12
C(C)C(=C)CC,2-ethyl-1-butene,247.0,carroll11,1,CC1CCCc2ccccc21
CC(C)=C(C)C,"2,3-dimethyl-2-butene",253.0,carroll11,1,CC(c1ccccc1)c1ccccc1
C=C1CCCC1,methylenecyclopentane,255.0,carroll11,1,CCc1ccccc1CC
CC1=CCCC1,1-methylcyclopentene,254.0,carroll11,1,CCCc1cccc(C)c1C
CC(=C)C(C)(C)C,"2,3,3-trimethyl-1-butene",256.0,carroll11,1,Cc1ccccc1C
C1=CCCCC1,cyclohexene,256.0,carroll11,1,c1ccc(-c2ccccc2-c2ccccc2)cc1
CC(C=C)CCC,3-methyl-1-hexene,255.0,carroll11,1,c1ccc(CCc2ccccc2)cc1
CC(=C)C(CC)C,"2,3-dimethyl-1-pentene",256.0,carroll11,1,Cc1cccc(C)c1C
C(C)C(C=C)CC,3-ethyl-1-pentene,256.0,carroll11,1,Cc1ccc(C)c(C)c1C
CC(CCC=C)C,5-methyl-1-hexene,263.0,carroll11,1,Cc1cc(C)c(C)c(C)c1
CC(CC=C)CC,4-methyl-1-hexene,258.0,carroll11,1,CCc1ccc(CC)c(CC)c1
CC(=C)CCCC,2-methyl-1-hexene,265.0,carroll11,1,CCCCCCCCCCCCCCCCc1cc(C)c(C)cc1C
C(C)C(=C)CCC,2-ethyl-1-pentene,263.0,carroll11,1,Cc1ccc(C)c(C)c1
C(C)C(=CC)CC,3-ethyl-2-pentene,267.0,carroll11,1,Cc1cc(C)c(C)cc1C
C12C=CC(CC1)C2,2-norbornene,259.0,carroll11,1,CC(C)c1cccc(C(C)C)c1
CC(=C)CC(C)(C)C,"2,4,4-trimethyl-1-pentene",269.0,carroll11,1,CCCCc1cc(CC)cc(CC)c1
CC1CC=CCC1,4-methylcyclohexene,272.0,carroll11,1,CCc1cccc(CC)c1
C=C1CCCCC1,methylenecyclohexane,271.0,carroll11,1,c1ccc(-c2cccc(-c3ccccc3)c2)cc1
CC1C=CCCC1,3-methylcyclohexene,270.0,carroll11,1,Cc1cccc(C)c1
CC(C)=CC(C)(C)C,"2,4,4-trimethyl-2-pentene",272.0,carroll11,1,CCc1cc(CC)cc(CC)c1
CC1=CCCCC1,1-methylcyclohexene,272.0,carroll11,1,CC(C)c1cc(C(C)C)cc(C(C)C)c1
C(C)C(C=C)CCC,3-ethyl-1-hexene,274.0,carroll11,1,Cc1cc(C)cc(C)c1
CC(CC=C)CCC,4-methyl-1-heptene,275.0,carroll11,1,CCc1ccc(CC)cc1
CC(=C)CCCCC,2-methyl-1-heptene,283.0,carroll11,1,CC(C)c1ccc(C(C)C)cc1
CC(C)=CCCCC,2-methyl-2-heptene,282.0,carroll11,1,Cc1ccc(C)cc1
C(C=C)C1CCCC1,allylcyclopentane,285.0,carroll11,1,CCCCCCCCC1CCc2ccccc2C1CCCCCCCC
C(=C)C1CCCCC1,vinylcyclohexane,294.0,carroll11,1,c1ccc(-c2ccc(-c3ccccc3)cc2)cc1
CC(CCCCC=C)C,7-methyl-1-octene,291.0,carroll11,1,CCc1cc(C)ccc1C
C12C=C(CCC1C2(C)C)C,2-carene,311.0,carroll11,1,CCCCCCCCC(C)(C)c1ccc2ccccc2c1
C=CC(C)=C,isoprene,225.0,carroll11,1,CCCCC(C)(C)c1ccc2ccccc2c1
CC(=C)C(=C)C,"2,3-dimethyl-1,3-butadiene",251.0,carroll11,1,CCCCCCCCCCCCCCCC(C)(C)c1ccccc1
CC(=CC=C)C,"4-methyl-1,3-pentadiene",255.0,carroll11,1,CCCCCCCCCCCCCC(C)(C)c1ccccc1
C=CCCCC=C,"1,6-heptadiene",263.0,carroll11,1,CCCCCCCC(CC(C)C)(CC(C)C)c1ccccc1
C=CCCCCC=C,"1,7-octadiene",278.0,carroll11,1,CCCc1ccc2cc(C)ccc2c1
CC(C)=CC=C(C)C,"2,5-dimethyl-2,4-hexadiene",297.0,carroll11,1,CCCCCCCCc1ccc2ccccc2c1
C=CCCCCCC=C,"1,8-nonadiene",299.0,carroll11,1,CCC(C)(C)c1ccccc1
C1=CC=CCC1,"1,3-cyclohexadiene",257.0,carroll11,1,CCCC1Cc2ccccc2C1
C1=CCC=CC1,"1,4-cyclohexadiene",262.0,carroll11,1,CCCc1ccc2ccccc2c1
C(=C)C1CC=CCC1,4-vinyl-1-cyclohexene,289.0,carroll11,1,CC(C)(C)c1ccc2ccccc2c1
C1=CCCC=CCC1,"1,5-cyclooctadiene",308.0,carroll11,1,CC(C)(c1ccccc1)c1ccccc1
C12C=CC(C=C1)C2,"2,5-norbornadiene",262.0,carroll11,1,Cc1ccc2cc(C)ccc2c1
C(C)=C1C2C=CC(C1)C2,5-ethylidene-2-norbornene,302.0,carroll11,1,CCCCCC[C@@H](C)c1ccccc1
C1=CC=CC=CC=C1,"1,3,5,7-cyclooctatetraene",295.0,carroll11,1,CCCCCCCCCCCC[C@@H](C)c1ccccc1
C#CCCC,1-pentyne,239.0,carroll11,1,CCCCCCCCC[C@@H](C)c1ccccc1
C#CCCCC,1-hexyne,253.0,carroll11,1,CCCCCC[C@H](C)c1ccccc1
C#CCCCCC,1-heptyne,271.0,carroll11,1,CCCCCCCCCCCC[C@H](C)c1ccccc1
C#CCCCCCC,1-octyne,289.0,carroll11,1,CCCCCCCCC[C@H](C)c1ccccc1
C#CCCCCCCC,1-nonyne,306.0,carroll11,1,CCCCCCC(CC)(CC)c1ccc2ccccc2c1
C#CCCCCCCCC,1-decyne,321.0,carroll11,1,CCc1ccc(C)c(C)c1
C#CCCCCCCCCC,1-undecyne,338.0,carroll11,1,Cc1ccc(C(C)C)cc1
C#CCCCCCCCCCC,1-dodecyne,352.0,carroll11,1,CCCC(C)(CCC)c1ccc2ccccc2c1
C#CCCCCCCCCCCC,1-tridecyne,366.0,carroll11,1,CCCCCCCC[C@@H](CCC)c1ccccc1
CC#CCC,2-pentyne,243.0,carroll11,1,CCCCCCCC[C@H](CCC)c1ccccc1