smiles,compound,flashpoint,source,pure substance
C=CCn1c(=O)n(CC=C)c(=O)n(CC=C)c1=O,"1,3,5-Triazine-2,4,6(1H,3H,5H)-trione, 1,3,5-tri-2-propenyl-",426.55,le15,1
C=CC(=O)N1CN(C(=O)C=C)CN(C(=O)C=C)C1,"1,3,5-Triazine, hexahydro-1,3,5-tris(1-oxo-2-propenyl)-",574.15,le15,1
Nc1ccc(S(=O)(=O)Nc2ccccn2)cc1,"Benzenesulfonamide, 4-amino-N-2-pyridinyl-",513.3499999999998,le15,1
CC(=O)CNC(=O)Oc1cccc(C(C)(C)C)c1,"Carbamic acid, acetylmethyl-, 3-(1,1-dimethylethyl)phenyl ester",434.25,le15,1
Cc1cc(Br)ccc1Br,"1,4-dibromo-2-methylbenzene",381.05,le15,1
C=C(C)C(=O)OCC(F)(F)C(F)C(F)(F)F,"2,2,3,4,4,4-Hexafluorobutyl methacrylate",329.15,le15,1
CN(N=O)C(=O)c1ccccc1C(=O)N(C)N=O,"Phthalamide, N,N'-dimethyl-N,N'-dinitroso- (8CI)",459.75,le15,1
O=C=Nc1ccc(Cc2ccc(N=C=O)cc2)cc1,"Isocyanic acid, methylenedi-p-phenylene ester",427.15,le15,1
O=S(=O)(c1ccc(O)cc1)c1ccc(O)cc1,"Phenol, 4,4'-sulfonylbis-",532.55,le15,1
Cc1ccccc1-n1c(C)nc2ccccc2c1=O,"4(3H)-Quinazolinone, 2-methyl-3-(2-methylphenyl)-",473.05,le15,1
CCOCCOC(=O)C=Cc1ccc(OC)cc1,"2-Propenoic acid, 3-(4-methoxyphenyl)-, 2-ethoxyethyl ester",437.95,le15,1
CCOC(=O)C(Cc1ccccc1)C(=O)OCC,"Propanedioic acid, (phenylmethyl)-, diethyl ester",427.85,le15,1
CCCC(O)P(C(O)CCC)C(O)CCC,"1-Butanol, 1,1',1''-phosphinidynetri- (9CI)",394.25,le15,1
CC(C)(C)c1cc(C(=O)O)cc(C(C)(C)C)c1O,"Benzoic acid, 3,5-bis(1,1-dimethylethyl)-4-hydroxy-",447.15,le15,1
CCCCCCCCOc1ccc(C(=O)O)cc1,"Benzoic acid, p-(octyloxy)- (8CI)",406.25,le15,1
CCOCCOCCOCCOCCOCC,"3,6,9,12,15-Pentaoxaheptadecane",384.95,le15,1
CCCCOCCOCCOCCOCCO,2-[2-[2-(2-butoxyethoxy)ethoxy]ethoxy]ethanol,429.35,le15,1
CCC(C)(C)c1cc(O)c(C(C)(C)CC)cc1O,"1,4-Benzenediol, 2,5-bis(1,1-dimethylpropyl)-",435.85,le15,1
O=C1CCCCCCC/C=C\CCCCCCC1,(9Z)-cycloheptadec-9-en-1-one,430.25,le15,1
ClCc1ccc2c3c(cccc13)-c1ccccc1-2,"Fluoranthene, 3-(chloromethyl)-",474.35,le15,1
ClCc1ccc2ccc3cccc4ccc1c2c34,"Pyrene, 1-(chloromethyl)-",474.35,le15,1
ClC(Cl)(Cl)CC(Cl)(Cl)Cl,"1,1,1,3,3,3-hexachloropropane",353.25,le15,1
ClC(Cl)C(Cl)(Cl)C(Cl)Cl,"1,1,2,2,3,3-Hexachloropropane",366.85,le15,1
Nc1c(Br)cccc1Br,"2,6-Dibromoaniline",387.75,le15,1
CC(c1ccc(Cl)cc1)c1ccc(Cl)cc1,"Benzene, 1,1'-ethylidenebis(4-chloro-",416.75,le15,1
CCCCCCC(Br)C(=O)OCC,Ethyl 2-bromooctanoate,385.25,le15,1
Nc1ncnc2c1ncn2[C@@H]1O[C@H](CO)C[C@H]1O,"Adenosine, 3'-deoxy-",606.25,le15,1
Nc1ncnc2c1ncn2[C@H]1C[C@H](O)[C@@H](CO)O1,"Adenosine, 2'-deoxy-",606.25,le15,1
ON=CC(O)(C#Cc1ccccc1)c1ccccc1,"3-Butynal, 2,4-diphenyl-2-hydroxy-, oxime",578.65,le15,1
CCCOC(=O)c1ccc(C(=O)OCCC)nc1,"2,5-Pyridinedicarboxylic acid, dipropyl ester",444.45,le15,1
Clc1nc(Cl)c(Cl)c(Cl)c1Cl,"Pyridine, 2,3,4,5,6-pentachloro-",424.65,le15,1
Cc1cccnc1-n1c(C)nc2ccccc2c1=O,"4(3H)-Quinazolinone, 2-methyl-3-(3-methyl-2-pyridinyl)-",488.45,le15,1
CC(C)OC(=O)c1cncc(C(=O)OC(C)C)c1,"3,5-Pyridinedicarboxylic acid, diisopropyl ester",421.15,le15,1
CN(C)c1ccc(C=CC(=O)c2ccccc2)cc1,"Chalcone, 4-(dimethylamino)- (8CI)",434.45,le15,1
c1ccc([Si]23OCCN(CCO2)CCO3)cc1,"2,8,9-Trioxa-5-aza-1-silabicyclo(3.3.3)undecane, 1-phenyl-",398.75,le15,1
CCCCCCCCCCCCCCCCC#N,heptadecanenitrile,410.65,le15,1
Oc1ccc(Br)cc1Br,"Phenol, 2,4-dibromo-",374.35,le15,1
Oc1cc(Br)cc(Br)c1,"3,5-dibromophenol",395.15,le15,1
Oc1c(Br)cccc1Br,"2,6-dibromophenol",355.666,le15,1
N#CC(F)(F)C(F)(F)C(F)(F)C(F)(F)C#N,"Hexanedinitrile, octafluoro- (8CI,9CI)",306.95,le15,1
O=[N+]([O-])c1cc(C(F)(F)F)cc([N+](=O)[O-])c1O,"p-Cresol, alpha,alpha,alpha-trifluoro-2,6-dinitro-",364.45,le15,1
[O-][n+]1onc2c1c1no[n+]([O-])c1c1no[n+]([O-])c21,"Benzo(1,2-c:3,4-c':5,6-c'')tris(1,2,5)oxadiazole, 1,4,7-trioxide",592.95,le15,1
COC(=O)c1ccc(C(=O)OC)c(C(=O)OC)c1,"trimethyl benzene-1,2,4-tricarboxylate",413.55,le15,1
CNc1ccc(N)c2c1C(=O)c1ccccc1C2=O,"9,10-Anthracenedione, 1-amino-4-(methylamino)-",550.25,le15,1
O=C1CC(=O)N(c2ccccc2)N1c1ccccc1,"3,5-Pyrazolidinedione, 1,2-diphenyl-",440.35,le15,1
c1ccc2c(c1)cc1ccc3cccc4ccc2c1c34,Benzo(def)chrysene,501.75,le15,1
c1cc2cccc3c4cccc5cccc(c(c1)c23)c54,Perylene,501.75,le15,1
C1=Cc2c3ccc4ccccc4c3cc3cccc1c23,Benz(j)aceanthrylene,520.25,le15,1
c1ccc2c3c(ccc2c1)-c1cccc2cccc-3c12,Benzo(j)fluoranthene,501.75,le15,1
c1ccc2cc3c(cc2c1)-c1cccc2cccc-3c12,Benzo(k)fluoranthene,501.75,le15,1
C1=Cc2cc3c4ccccc4ccc3c3cccc1c23,Benz(j)acephenanthrylene,520.25,le15,1
c1ccc2c(c1)-c1cccc3cc4ccccc4c-2c13,Benz(a)aceanthrylene,501.75,le15,1
O=C(C=Cc1ccccc1)OCCc1ccccc1,"2-Propenoic acid, 3-phenyl-, 2-phenylethyl ester",527.3499999999998,le15,1
c1ccc(C(c2ccccc2)N2CCNCC2)cc1,"Piperazine, 1-(diphenylmethyl)-",413.65,le15,1
O=C1CCCCC/C=C\CCCCCCCCO1,"Oxacycloheptadec-8-en-2-one, (8Z)-",441.35,le15,1
CCCCCCCCCCCCC1CCCCC1,dodecylcyclohexane,420.25,le15,1
CCCCCCCCCCCCCC1CCCC1,tridecylcyclopentane,418.35,le15,1
C=CCCCCCCCCCCCCCCCC,1octadecene,421.0,le15,1
COP(=O)(OC)Sc1ccc(Cl)cc1,"Phosphorothioic acid, S-(4-chlorophenyl) O,O-dimethyl ester",418.65,le15,1
BrC(Br)Br,Bromoform,356.0,le15,1
COc1ccc(N)c2c1C(=O)c1ccccc1C2=O,"9,10-Anthracenedione, 1-amino-4-methoxy- (9CI)",548.05,le15,1
O=C(C=Cc1ccc([N+](=O)[O-])cc1)c1ccccc1,"2-Propen-1-one, 3-(4-nitrophenyl)-1-phenyl-",459.65,le15,1
O=C(C=Cc1ccccc1[N+](=O)[O-])c1ccccc1,"Chalcone, 2-nitro- (8CI)",478.65,le15,1
O=C(C=Cc1ccccc1)c1ccc([N+](=O)[O-])cc1,"2-Propen-1-one, 1-(4-nitrophenyl)-3-phenyl- (9CI)",488.05,le15,1
Nc1nc(N)c2nc(-c3ccccc3)c(N)nc2n1,"Pteridine, 2,4,7-triamino-6-phenyl-",608.65,le15,1
c1ccc2nc3c(cc2c1)-c1cccc2cccc-3c12,"Acenaphtho(1,2-b)quinoline",488.35,le15,1
Cc1cc(NS(=O)(=O)c2ccc(N)cc2)no1,"Benzenesulfonamide, 4-amino-N-(5-methyl-3-isoxazolyl)-",518.55,le15,1
COc1ccc(OC)c(C(O)C(C)NC(C)C)c1,"Benzenemethanol, 2,5-dimethoxy-alpha-(1-((1-methylethyl)amino)ethyl)-",458.45,le15,1
CCCC(=O)OC1CCC(N2CCCCC2)CC1,"Butanoic acid, 4-(1-piperidinyl)cyclohexyl ester (9CI)",379.85,le15,1
CC(C)C(=O)OC1CCC(N2CCCCC2)CC1,"Propanoic acid, 2-methyl-, 4-(1-piperidinyl)cyclohexyl ester (9CI)",377.25,le15,1
CCCCSSC(Cl)C(Cl)Cl,"Disulfide, butyl 1,2,2-trichloroethyl",380.95,le15,1
FC(F)(F)c1ccc2nc(C(F)(F)F)[nH]c2c1,"Benzimidazole, 2,5-bis(trifluoromethyl)-",390.25,le15,1
O=c1c(-c2ccc(O)cc2)coc2cc(O)ccc12,"Isoflavone, 4',7-dihydroxy- (8CI)",474.35,le15,1
O=CNNc1nc(-c2ccc([N+](=O)[O-])o2)cs1,"Hydrazinecarboxaldehyde, 2-(4-(5-nitro-2-furanyl)-2-thiazolyl)-",502.05,le15,1
Cc1c(O)cc2c(c1O)C(=O)c1ccccc1C2=O,"9,10-Anthracenedione, 1,3-dihydroxy-2-methyl-",559.75,le15,1
Cc1cc(O)c2c(c1)C(=O)c1cccc(O)c1C2=O,"9,10-Anthracenedione, 1,8-dihydroxy-3-methyl- (9CI)",537.05,le15,1
Cc1cc(O)c2c(c1O)C(=O)c1ccccc1C2=O,"9,10-Anthracenedione, 1,4-dihydroxy-2-methyl- (9CI)",539.8499999999998,le15,1
O=C(OCCO)c1ccc(C(=O)OCCO)cc1,"bis(2-hydroxyethyl) benzene-1,4-dicarboxylate",445.15,le15,1
O=c1c2cccc3ccc4ccc5cccc1c5c4c32,6H-Benzo(cd)pyren-6-one,503.75,le15,1
CC(=O)O.O=C(c1ccccc1)C(O)c1ccccc1,"Benzoin, acetate (8CI)",440.35,le15,1
CCOP(=O)(OC=CCSCC)OCC,"Phosphoric acid, diethyl 3-(ethylthio)-1-propenyl ester (9CI)",558.65,le15,1
c1ccc(-c2c3ccccc3cc3ccccc23)cc1,9-phenylanthracene,465.25,le15,1
CC=Cc1ccc(OCc2ccccc2)c(OC)c1,"Benzene, 2-methoxy-1-(phenylmethoxy)-4-(1-propenyl)-",425.25,le15,1
CCCCCCCCCc1cccc2ccccc12,1-nonylnaphthalene,465.75,le15,1
O=C1CCCCCCCCCCCCCCCO1,Oxacycloheptadecan-2-one,422.75,le15,1
C=CC(=O)OCCCCCCCCCCCCC,"2-Propenoic acid, tridecyl ester",391.15,le15,1
CCCCCCCCC(=O)CCCCCCCC,heptadecan-9-one,356.75,le15,1
CCCCCCCCCCCCCCCC(C)=O,heptadecan-2-one,353.75,le15,1
CCCCCCCCCCCCCCCC(C)C,2-methylheptadecane,382.05,le15,1
FC(F)(F)c1nc2c(Cl)ccc(Cl)c2[nH]1,"Benzimidazole, 4,7-dichloro-2-(trifluoromethyl)-",427.95,le15,1
FC(F)(F)c1nc2ccc(Cl)c(Cl)c2[nH]1,"Benzimidazole, 4,5-dichloro-2-(trifluoromethyl)-",431.25,le15,1
Cc1cccc(NC(=O)c2ccccc2C(=O)O)c1,"Benzoic acid, 2-(((3-methylphenyl)amino)carbonyl)-",451.35,le15,1
COc1ccc(/C=C/c2ccc([N+](=O)[O-])cc2)cc1,"Benzene, 1-methoxy-4-(2-(4-nitrophenyl)ethenyl)-, (E)-",439.75,le15,1
CNc1ccc(N(CCO)CCO)cc1[N+](=O)[O-],"Ethanol, 2,2'-((4-(methylamino)-3-nitrophenyl)imino)bis-",532.8499999999998,le15,1
c1ccc(-c2c3ccccc3nc3ccccc23)cc1,9-phenylacridine,452.95,le15,1
COc1cc(C=Cc2ccccc2)c(OC)cc1N,"2,5-Dimethoxy-4-aminostilbene",517.45,le15,1
COc1ccc(N=Nc2ccc(N(C)C)cc2)cc1,"Aniline, N,N-dimethyl-p-(4-methoxyphenylazo)-",475.15,le15,1
CN(C)CCOC(c1ccccc1)c1ccccc1,"Ethanamine, 2-(diphenylmethoxy)-N,N-dimethyl-",374.65,le15,1
O=C(O)COc1cc(Cl)c(Cl)cc1Cl,"Acetic acid, (2,4,5-trichlorophenoxy)-",454.55,le15,1
COc1c(Cl)cc(Cl)c(Cl)c1C(=O)O,"Benzoic acid, 2,3,5-trichloro-6-methoxy- (9CI)",440.65,le15,1
CCCCCCCCCCCC(=O)N(CC)CC,"Dodecanamide, N,N-diethyl-",387.45,le15,1
CCCCCCCCCCCCCCCCCN,heptadecan-1-amine,419.35,le15,1
CC(=O)CNC(=O)Oc1cc(C)c(C)cc1Cl,"Carbamic acid, acetylmethyl-, 2-chloro-4,5-dimethylphenyl ester",453.85,le15,1
O=C1c2ccccc2C(=O)c2c(O)c(O)cc(O)c21,"9,10-Anthracenedione, 1,2,4-trihydroxy- (9CI)",386.15,le15,1
O=[N+]([O-])c1ccc2c(c1)Cc1cc([N+](=O)[O-])ccc1-2,"9H-Fluorene, 2,7-dinitro- (9CI)",503.05,le15,1
CCOC(=O)COP(=S)(OCC)OCC,"Acetic acid, ((diethoxyphosphinothioyl)oxy)-, ethyl ester (9CI)",395.85,le15,1
COc1ccc(COC(=O)Cc2ccccc2)cc1,"Benzeneacetic acid, (4-methoxyphenyl)methyl ester",430.35,le15,1
Cc1c2ccccc2c(C)c2c1ccc1ccccc12,"Benz(a)anthracene, 7,12-dimethyl-",327.5499999999999,le15,1
CCc1c2ccccc2cc2c1ccc1ccccc12,"Benz(a)anthracene, 7-ethyl-",496.75,le15,1
C(=C(c1ccccc1)c1ccccc1)c1ccccc1,"1,2-diphenylethenylbenzene",438.15,le15,1
O=C1CCCCCCCCCCOCCCCO1,"1,6-Dioxacycloheptadecan-17-one",447.55,le15,1
O=C1CCCCCCCCCOCCCCCO1,"1,7-Dioxacycloheptadecan-17-one",447.55,le15,1
CCCCCCCCCCCCCC(=O)OCC,"Myristic acid, ethyl ester (8CI)",386.15,le15,1
CCCCC(CC)COC(=O)C(CC)CCCC,"Hexanoic acid, 2-ethyl-, 2-ethylhexyl ester",410.25,le15,1
CCCCCCCCOC(=O)CCCCCCC,octyl octanoate,412.95,le15,1
O=C1c2ccccc2C(=O)C1c1ccc(Cl)cc1,"1,3-Indandione, 2-(p-chlorophenyl)-",456.55,le15,1
CCCCOC(=O)COc1cc(Cl)ccc1C,"Acetic acid, ((4-chloro-o-tolyl)oxy)-, butyl ester",397.95,le15,1
O=[N+]([O-])c1c(Cl)cccc1-c1c[nH]cc1Cl,"1H-Pyrrole, 3-chloro-4-(3-chloro-2-nitrophenyl)-",475.25,le15,1
O=[N+]([O-])c1ccc2[nH]c3c([N+](=O)[O-])cccc3c2c1,"1,6-Dinitrocarbazole",551.8499999999998,le15,1
O=[N+]([O-])c1ccc2[nH]c3ccc([N+](=O)[O-])cc3c2c1,"3,6-Dinitro-9H-carbazole",551.8499999999998,le15,1
CNC(=O)Oc1cc(C)c(S(C)(=O)=O)c(C)c1,"Phenol, 3,5-dimethyl-4-(methylsulfonyl)-, methylcarbamate (9CI)",482.65,le15,1
Cc1ccc2nc3c(ccc4ccccc43)c(C)c2c1,"Benz(c)acridine, 7,9-dimethyl-",481.85,le15,1
Cc1ccc2c(C)c3ccc4ccccc4c3nc2c1,"Benz(c)acridine, 7,10-dimethyl-",482.95,le15,1
COP(=O)(OC)C(O)C(Cl)(Cl)Cl,"Phosphonic acid, (2,2,2-trichloro-1-hydroxyethyl)-, dimethyl ester",389.85,le15,1
COc1c(O)c(OC)c(Cl)c(Cl)c1Cl,"Phenol, 3,4,5-trichloro-2,6-dimethoxy-",430.85,le15,1
CC(=O)N(Cl)c1ccc2c(c1)Cc1ccccc1-2,"Acetamide, N-chloro-N-9H-fluoren-2-yl-",481.15,le15,1
CN(C)CCOC(=O)COc1ccc(Cl)cc1,"Acetic acid, (4-chlorophenoxy)-, 2-(dimethylamino)ethyl ester (9CI)",436.15,le15,1
CCN(CC)c1nc(Cl)nc(N(CC)CC)n1,"1,3,5-Triazine-2,4-diamine, 6-chloro-N,N,N',N'-tetraethyl- (9CI)",461.45,le15,1
O=C/C(Br)=C(/Br)C(=O)O,"Malealdehydic acid, dibromo- (8CI)",421.55,le15,1
O=S1(=O)CC(Cl)(Cl)C(Cl)(Cl)C1,"Thiophene, tetrahydro-3,3,4,4-tetrachloro-, 1,1-dioxide",468.25,le15,1
BrCCCCCCCBr,"1,7-dibromoheptane",405.95,le15,1
Fc1c(F)c(F)c2[nH]c(C(F)(F)F)nc2c1F,"Benzimidazole, 4,5,6,7-tetrafluoro-2-(trifluoromethyl)-",389.95,le15,1
O=C(Nc1cccc(Cl)c1)OCC#CCCl,"Carbamic acid, (3-chlorophenyl)-, 4-chloro-2-butynyl ester (9CI)",433.05,le15,1
CC(=O)N[C@@H](CSC=C(Cl)Cl)C(=O)O,S-Dichlorovinyl-N-acetylcysteine,516.3499999999998,le15,1
COc1cc(O)c2c(=O)c3cc(O)ccc3oc2c1,"Xanthen-9-one, 1,7-dihydroxy-3-methoxy-",478.35,le15,1
COc1ccc2oc3cc(O)cc(O)c3c(=O)c2c1,"9H-Xanthen-9-one, 1,3-dihydroxy-7-methoxy- (9CI)",478.15,le15,1
O=C1CCC(N2C(=O)c3ccccc3C2=O)C(=O)N1,"1H-Isoindole-1,3(2H)-dione, 2-(2,6-dioxo-3-piperidinyl)-",535.25,le15,1
O=C1C=Cc2c(ccc3c2ccc2ccccc23)C1=O,"Chrysene-1,2-quinone",490.35,le15,1
O=C1c2ccccc2C(=O)c2c1ccc1ccccc21,"Benz(a)anthracene-7,12-quinone",448.65,le15,1
COc1ccc(C(=O)CCC(=O)O)c2ccccc12,"1-Naphthalenebutanoic acid, 4-methoxy-gamma-oxo-",469.75,le15,1
COc1ccc(N=[N+]([O-])c2ccc(OC)cc2)cc1,"Azoxybenzene, 4,4'-dimethoxy- (8CI)",479.75,le15,1
O=C(c1ccccc1)c1ccc(-c2ccccc2)cc1,phenyl-(4-phenylphenyl)methanone,463.85,le15,1
Cc1c2c(cc3ccccc13)-c1ccccc1C1OC21,"Benz(a)anthracene, 5,6-epoxy-5,6-dihydro-7-methyl-",492.25,le15,1
NC(=O)c1cc2cc(CN3CCCCC3)ccc2o1,"2-Benzofurancarboxamide, 5-(1-piperidinylmethyl)- (9CI)",495.35,le15,1
CCOC(=O)C(C)(C)N=NC(C)(C)C(=O)OCC,"Propionic acid, 2,2'-azobis(2-methyl-, diethyl ester",386.05,le15,1
CCOP(=O)(OCC)SCCSCC,"Phosphorothioic acid, O,O-diethyl S-(2-(ethylthio)ethyl) ester",420.75,le15,1
c1ccc(CC(c2ccccc2)c2ccccc2)cc1,"1,2-diphenylethylbenzene",430.05,le15,1
CC(C)=CCC/C(C)=C/COC(=O)c1ccccc1,"2,6-Octadien-1-ol, 3,7-dimethyl-, benzoate, (2E)-",426.55,le15,1
C=CC(C)(CCC=C(C)C)OC(=O)c1ccccc1,"1,6-Octadien-3-ol, 3,7-dimethyl-, benzoate",431.85,le15,1
CC(C)COC(=O)CCCCC(=O)OCC(C)C,"Hexanedioic acid, 1,6-bis(2-methylpropyl) ester",395.75,le15,1
CCCCCCCCCCCC(=O)OCC(C)O,"1,2-Propanediol, 1-laurate",412.45,le15,1
CCCCCCCCSCCCCCCCC,1-octylsulfanyloctane,445.35,le15,1
CCCCCCCCCCCCCCCCS,hexadecane-1-thiol,374.85,le15,1
CC(=O)Oc1ccc(Br)cc1C(=O)O,"Benzoic acid, 2-(acetyloxy)-5-bromo- (9CI)",449.75,le15,1
COc1ccc(OC)c(C(=O)CBr)c1,"Ethanone, 2-bromo-1-(2,5-dimethoxyphenyl)-",422.35,le15,1
O=[N+]([O-])c1ccc(Nc2ccc([N+](=O)[O-])cc2)cc1,4-nitro-N-(4-nitrophenyl)aniline,507.55,le15,1
COc1cc(OC)c2nc3occc3c(OC)c2c1,"Furo(2,3-b)quinoline, 4,6,8-trimethoxy-",481.55,le15,1
O=[N+]([O-])c1ccc(/C=C/c2cccc(Cl)c2)cc1,"Benzene, 1-chloro-3-(2-(4-nitrophenyl)ethenyl)-, (E)-",455.55,le15,1
ClCCN(Cc1ccccc1)Cc1ccccc1,"Benzenemethanamine, N-(2-chloroethyl)-N-(phenylmethyl)-",420.45,le15,1
CCOC(=O)C(Br)CBr,"Propionic acid, 2,3-dibromo-, ethyl ester (6CI,7CI,8CI)",364.15,le15,1
CC(=O)O.CC(=O)O.COC(=O)/C(O)=C(\O)C(=O)OC,"Fumaric acid, dihydroxy-, dimethyl ester, diacetate",413.25,le15,1
O=[N+]([O-])c1cc(-c2ccccc2)cc([N+](=O)[O-])c1O,"4-Hydroxy-3,5-dinitrobiphenyl",420.05,le15,1
COc1c2occc2c(OC)c2c(=O)cc(C)oc12,"5H-Furo(3,2-g)(1)benzopyran-5-one, 4,9-dimethoxy-7-methyl-",491.95,le15,1
O=C1C=C(c2ccccc2)C(=O)C=C1c1ccccc1,"p-Benzoquinone, 2,5-diphenyl- (8CI)",443.65,le15,1
CCC(=O)OCC(COC(=O)CC)OC(=O)CC,"1,2,3-Propanetriol, tripropanoate",393.95,le15,1
COc1ccc(Cc2cnc(N)nc2N)cc1OC,"2,4-Pyrimidinediamine, 5-((3,4-dimethoxyphenyl)methyl)-",533.05,le15,1
OC(c1ccccc1)(c1ccccc1)c1ccccc1,triphenylmethanol,441.85,le15,1
CCOP(=O)(OCC)SCS(=O)CC,"Phosphorothioic acid, O,O-diethyl S-((ethylsulfinyl)methyl) ester",453.45,le15,1
OC(c1ccccc1)c1ccc(-c2ccccc2)cc1,"alpha-Phenyl(1,1'-biphenyl)-4-methanol",453.75,le15,1
c1ccc(Nc2ccc(Nc3ccccc3)cc2)cc1,"1,4-Benzenediamine, N,N'-diphenyl-",570.15,le15,1
Nc1ccc(-c2ccc(-c3ccc(N)cc3)cc2)cc1,"(1,1':4',1''-Terphenyl)-4,4''-diamine",569.45,le15,1
O=C1NCC2(CCN(CCc3ccccc3)CC2)O1,"1-Oxa-3,8-diazaspiro(4,5)decan-2-one, 8-(2-phenylethyl)- (9CI)",513.75,le15,1
CCOP(=S)(CC)Sc1ccc(C)cc1,"Phosphonodithioic acid, ethyl-, O-ethyl S-(4-methylphenyl) ester (9CI)",435.75,le15,1
CCOP(=S)(CC)Sc1ccccc1C,"Phosphonodithioic acid, ethyl-, O-ethyl S-(o-tolyl) ester",428.55,le15,1
CCOP(=S)(OCC)SCSCC,"Phosphorodithioic acid, O,O-diethyl S-(ethylthio)methyl ester",405.95,le15,1
O=C(O)C1(O)c2ccccc2-c2ccc(Cl)cc21,"Fluorene-9-carboxylic acid, 2-chloro-9-hydroxy- (8CI)",543.95,le15,1
ClC(Cl)=C(Cl)C(Cl)=C(Cl)Cl,"1,3-Butadiene, 1,1,2,3,4,4-hexachloro-",365.35,le15,1
O=[N+]([O-])c1c(Cl)c(Cl)cc(Cl)c1Cl,"Benzene, 1,2,4,5-tetrachloro-3-nitro-",416.25,le15,1
CCCCCCCCCCCCCCCCCl,1-chlorohexadecane,411.25,le15,1
Fc1c(F)c(F)c(CBr)c(F)c1F,"1-(bromomethyl)-2,3,4,5,6-pentafluorobenzene",355.15,le15,1
O=C(c1ccccc1)c1ccc(Br)cc1,"Methanone, (4-bromophenyl)phenyl- (9CI)",354.45,le15,1
O=c1n(CCO)c(=O)n(CCO)c(=O)n1CCO,"1,3,5-Triazine-2,4,6(1H,3H,5H)-trione, 1,3,5-tris(2-hydroxyethyl)-",545.45,le15,1
CCOP(=S)(OCC)Oc1ccc(N)cc1,"Phosphorothioic acid, O-(4-aminophenyl) O,O-diethyl ester",436.35,le15,1
Cc1ccccc1N=Nc1c(N)ccc2ccccc12,"2-Naphthalenamine, 1-((2-methylphenyl)azo)-",516.45,le15,1
C=C(C)C(=O)OCCC[Si](Cl)(Cl)Cl,3-trichlorosilylpropyl 2-methylprop-2-enoate,391.45,le15,1
OCC(CO)(CBr)CBr,"1,3-Propanediol, 2,2-bis(bromomethyl)-",451.25,le15,1
Nc1c(Br)cc([N+](=O)[O-])cc1[N+](=O)[O-],"Benzenamine, 2-bromo-4,6-dinitro-",469.35,le15,1
COC(=O)c1ccccc1I,methyl 2-iodobenzoate,383.45,le15,1
COC(=O)c1cccc(I)c1,methyl 3-iodobenzoate,403.85,le15,1
c1ccc(P(c2ccccc2)c2ccccc2)cc1,"Phosphine, triphenyl-",454.85,le15,1
Cc1ccc(N=Nc2c(O)ccc3ccccc23)cc1,1-((4-Methylphenyl)azo)-2-naphthalenol,483.25,le15,1
CCCCOC(=O)[C@H](O)[C@@H](O)C(=O)OCCCC,"dibutyl (2R,3R)-2,3-dihydroxybutanedioate",440.15,le15,1
Cc1ccc(S(=O)(=O)OCc2ccccc2)cc1,Benzyl tosylate,476.55,le15,1
CCS(=O)CCSP(=S)(OC)OC,"Phosphorodithioic acid, S-(2-(ethylsulfinyl)ethyl) O,O-dimethyl ester",459.35,le15,1
CC(C)(C)c1cc(C(C)(C)C)c(O)c(C(C)(C)C)c1,"Phenol, 2,4,6-tri-tert-butyl- (6CI,7CI,8CI)",402.45,le15,1
O=[N+]([O-])c1cc([As](=O)(O)O)ccc1O,"Arsonic acid, (4-hydroxy-3-nitrophenyl)-",513.481,le15,1
O=C(O)CN(CP(=O)(O)O)CP(=O)(O)O,"Glycine, N,N-bis(phosphonomethyl)-",631.15,le15,1
COP(=S)(OC)Oc1ccc([N+](=O)[O-])cc1,"Phosphorothioic acid, O,O-dimethyl O-(4-nitrophenyl) ester",319.25,le15,1
O=[N+]([O-])c1ccc2ccc3c(O)ccc4ccc1c2c43,"Pyren-6-ol, 1-nitro-",491.45,le15,1
O=[N+]([O-])c1ccc2ccc3ccc(O)c4ccc1c2c34,"Pyren-8-ol, 1-nitro-",491.45,le15,1
CCCCCCCCCCCCCBr,1-bromotridecane,383.15,le15,1
CNCCCC1c2ccccc2C=Cc2ccccc21,"5H-Dibenzo(a,d)cycloheptene-5-propanamine, N-methyl-",471.45,le15,1
CCN1CCC(=C(c2ccccc2)c2ccccc2)C1,"Pyrrolidine, 3-(diphenylmethylene)-1-ethyl-",446.15,le15,1
CNC(=O)Oc1cc(C(C)(C)C)cc(C(C)(C)C)c1,"Phenol, 3,5-bis(1,1-dimethylethyl)-, methylcarbamate (9CI)",416.55,le15,1
CCOC(CN(C)CC(OCC)OCC)OCC,"N,N-Bis(2,2-diethoxyethyl)methylamine",353.35,le15,1
CCCCCCCC/C=C\CCCCCCCC#N,"9-Octadecenenitrile, (9Z)-",464.25,le15,1
COC1(OC)C(Cl)=C(Cl)C(Cl)=C1Cl,"1,2,3,4-tetrachloro-5,5-dimethoxycyclopenta-1,3-diene",339.85,le15,1
BrCC(Br)c1ccccc1,"Benzene, (1,2-dibromoethyl)-",389.65,le15,1
BrCc1ccccc1CBr,"o-Xylene, alpha,alpha'-dibromo- (8CI)",406.75,le15,1
BrCc1cccc(CBr)c1,"m-Xylene, alpha,alpha'-dibromo- (8CI)",411.25,le15,1
COP(=S)(OC)Oc1ccc(SC)cc1,"Phosphorothioic acid, O,O-dimethyl O-(p-(methylthio)phenyl) ester",420.95,le15,1
O=C(C=Cc1ccccc1)OCC=Cc1ccccc1,"2-Propenoic acid, 3-phenyl-, 3-phenyl-2-propenyl ester",554.3499999999998,le15,1
Clc1ccc(C(Cl)(Cl)Cl)cc1Cl,"Toluene, alpha,alpha,alpha,3,4-pentachloro- (8CI)",396.65,le15,1
c1ccc2sc(SNC3CCCCC3)nc2c1,"2-Benzothiazolesulfenamide, N-cyclohexyl-",475.15,le15,1
CCN(CC)CCSSCCN(CC)CC,"Ethanamine, 2,2'-dithiobis(N,N-diethyl-",424.15,le15,1
O=C(C(Cl)(Cl)Cl)C(Cl)(Cl)Cl,"2-Propanone, 1,1,1,3,3,3-hexachloro-",349.35,le15,1
CCOP(=S)(CC)Oc1ccc(Cl)cc1,"Phosphonothioic acid, ethyl-, O-(4-chlorophenyl) O-ethyl ester",416.85,le15,1
FC(F)(F)c1nc2ccc(Br)cc2[nH]1,"Benzimidazole, 5-bromo-2-(trifluoromethyl)-",422.55,le15,1
CCOP(=O)(OCC)SC(Cl)=CCl,"Phosphorothioic acid, S-1,2-dichlorovinyl O,O-diethyl ester",399.05,le15,1
CCOP(=O)(OCC)SC=C(Cl)Cl,"Phosphorothioic acid, S-2,2-dichlorovinyl O,O-diethyl ester",387.05,le15,1
Cc1ccccc1-n1c(C)nc2ccc(N)cc2c1=O,"4(3H)-Quinazolinone, 6-amino-2-methyl-3-(o-tolyl)-",519.45,le15,1
CCCCNCC1COc2cccc(OCC)c2O1,"1,4-Benzodioxan, 2-(butylaminomethyl)-8-ethoxy-",426.05,le15,1
O=[N+]([O-])c1cc(Cl)c2[nH]c(C(F)(F)F)nc2c1,"Benzimidazole, 4-chloro-6-nitro-2-(trifluoromethyl)-",457.85,le15,1
O=[N+]([O-])c1cc2nc(C(F)(F)F)[nH]c2cc1Cl,"Benzimidazole, 5-chloro-6-nitro-2-(trifluoromethyl)-",465.85,le15,1
N#Cc1c(Cl)c(Cl)c(Cl)c(C#N)c1Cl,"1,3-Benzenedicarbonitrile, 2,4,5,6-tetrachloro-",426.95,le15,1
ClCCCCCCCCC(Cl)(Cl)Cl,"Nonane, 1,1,1,9-tetrachloro-",389.35,le15,1
Nc1cnn(-c2ccccc2)c(=O)c1Br,"3(2H)-Pyridazinone, 5-amino-4-bromo-2-phenyl-",423.75,le15,1
CCC1(O)CC(=O)c2c(O)c(O)c(O)c(O)c2C1=O,"2-Ethyl-2,5,6,7,8-pentahydroxy-1,4-naphthoquinone",360.55,le15,1
O=[N+]([O-])c1cc(C2CCCCC2)c(O)c([N+](=O)[O-])c1,"Phenol, 2-cyclohexyl-4,6-dinitro-",402.75,le15,1
Nc1ncnc2c1ccn2[C@@H]1O[C@H](CO)[C@@H](O)[C@H]1O,"7-beta-D-ribofuranosyl-7H-pyrrolo-(2,3-d)pyrimidin-4-amine (9CI)",619.3499999999998,le15,1