smiles,compound,flashpoint,source,pure substance
CCc1oc2ccccc2c1C(=O)c1ccc(O)cc1,"Methanone, (2-ethyl-3-benzofuranyl)(4-hydroxyphenyl)-",513.3499999999998,le15,1
Oc1c(Cl)c(Cl)c(Cl)c(Cl)c1Cl,"Phenol, pentachloro-",406.85,le15,1
Cc1c(C)c([N+](=O)[O-])c(C(C)(C)C)c([N+](=O)[O-])c1C,"Benzene, 1-(1,1-dimethylethyl)-2,6-dinitro-3,4,5-trimethyl-",447.75,le15,1
c1ccc2c(c1)Cc1ccc3ccc4ccccc4c3c1-2,"9H-Indeno(2,1-c)phenanthrene",516.05,le15,1
Cc1c2ccccc2c2ccc3cccc4ccc1c2c43,6-Methylbenzo(def)chrysene,509.85,le15,1
Cc1cc2c3ccccc3cc3ccc4cccc1c4c32,"Benzo(a)pyrene, 12-methyl-",509.85,le15,1
c1ccc2c(c1)Cc1c-2ccc2ccc3ccccc3c12,"13H-Indeno(1,2-c)phenanthrene",516.05,le15,1
CC=C(C(=CC)c1ccc(O)cc1)c1ccc(O)cc1,"Phenol, 4,4'-(1,2-diethylidene-1,2-ethanediyl)bis-",454.55,le15,1
O=C(C=Cc1ccccc1)OCCCc1ccccc1,"2-Propenoic acid, 3-phenyl-, 3-phenylpropyl ester",533.75,le15,1
CCCCOP(=O)(OCCCC)OCCCC,Phosphoric acid tributyl ester,466.45,le15,1
CC=CCC(C(=O)O)c1ccc(-c2ccccc2)cc1,"(1,1-Biphenyl)-4-acetic acid, alpha-2-butenyl-",597.3499999999998,le15,1
CC(C)COP(=O)(OCC(C)C)OCC(C)C,"Phosphoric acid, tris(2-methylpropyl) ester",398.95,le15,1
CC(=O)Nc1ccc(OCC(O)CNC(C)C)cc1,"Acetamide, N-(4-(2-hydroxy-3-((1-methylethyl)amino)propoxy)phenyl)-",525.45,le15,1
CNCCCN1c2ccccc2CCc2ccccc21,"5H-Dibenz(b,f)azepine, 10,11-dihydro-5-(3-(methylamino)propyl)-",433.65,le15,1
c1ccc(Nc2ccc(NC3CCCCC3)cc2)cc1,"1,4-Benzenediamine, N-cyclohexyl-N'-phenyl-",549.05,le15,1
CCCCCCCCc1ccc(-c2ccccc2)cc1,"Biphenyl, 4-octyl- (6CI,7CI,8CI)",474.35,le15,1
CC(C)N(Sc1nc2ccccc2s1)C(C)C,"2-Benzothiazolesulfenamide, N,N-bis(1-methylethyl)-",437.65,le15,1
CCCCCCCCCCCCCCC1CCCC1,tetradecylcyclopentane,427.25,le15,1
O=S(=O)(Cl)c1c(F)c(F)c(F)c(F)c1F,"2,3,4,5,6-pentafluorobenzenesulfonyl chloride",354.25,le15,1
BrCC(Br)Br,"1,1,2-tribromoethane",340.75,le15,1
O=[N+]([O-])c1cc(F)cc(I)c1,3-Nitro-5-fluoro-1-iodobenzene,394.85,le15,1
Cc1ccc2c(c1[N+](=O)[O-])C(=O)c1ccccc1C2=O,"9,10-Anthracenedione, 2-methyl-1-nitro- (9CI)",521.8499999999998,le15,1
O=c1nc[nH]c2c1ccn2[C@@H]1O[C@H](CO)[C@@H](O)[C@H]1O,"4H-Pyrrolo(2,3-d)pyrimidin-4-one, 1,7-dihydro-7-beta-D-ribofuranosyl-",604.8499999999998,le15,1
NC(=O)CC[C@H](Nc1ccc([N+](=O)[O-])cc1)C(=O)O,"L-Glutamine, N-(4-nitrophenyl)-",584.15,le15,1
Nc1ncnc2c1ncn2[C@@H]1O[C@H](CO)[C@@H](O)[C@@H]1O,9-beta-D-Arabinofuranosyl-9H-purin-6-amine (9CI),635.95,le15,1
Nc1ncnc2c1ncn2[C@@H]1O[C@H](CO)[C@@H](O)[C@H]1O,Adenosine,635.95,le15,1
CC1=C(C(=O)Nc2ccccc2)S(=O)(=O)CCO1,"1,4-Oxathiin-3-carboxamide, 5,6-dihydro-2-methyl-N-phenyl-, 4,4-dioxid",546.05,le15,1
Cc1noc(NS(=O)(=O)c2ccc(N)cc2)c1C,"Benzenesulfonamide, 4-amino-N-(3,4-dimethyl-5-isoxazolyl)-",518.55,le15,1
c1ccc2c(c1)ccc1[nH]c3ccc4ccccc4c3c12,"7H-Dibenzo(c,g)carbazole",519.65,le15,1
OC(c1ccccc1)(c1ccccc1)C1CCCCN1,"2-Piperidinemethanol, alpha,alpha-diphenyl-",400.55,le15,1
CN(C)c1ccc(C(=N)c2ccc(N(C)C)cc2)cc1,"Benzenamine, 4,4'-carbonimidoylbis(N,N-dimethyl-",472.55,le15,1
CCCCC(=O)OC1CCC(N2CCCCC2)CC1,"Pentanoic acid, 4-(1-piperidinyl)cyclohexyl ester (9CI)",381.75,le15,1
CC(C)CC(=O)OC1CCC(N2CCCCC2)CC1,"Isovaleric acid, 4-piperidinocyclohexyl ester",379.35,le15,1
CC(=O)OC(c1ccccc1)C(Cl)(Cl)Cl,"Benzyl alcohol, alpha-(trichloromethyl)-, acetate (9CI)",418.25,le15,1
Clc1c(Cl)c(Cl)c2nccnc2c1Cl,"Quinoxaline, 5,6,7,8-tetrachloro-",488.15,le15,1
O=c1oc(=O)c2ccc3c(=O)oc(=O)c4ccc1c2c43,"1,4,5,8-Naphthalenetetracarboxylic 1,8:4,5-dianhydride (8CI)",553.55,le15,1
O=c1oc2cc(O)ccc2c2oc3cc(O)ccc3c12,"6H-Benzofuro(3,2-c)(1)benzopyran-6-one, 3,9-dihydroxy-",472.45,le15,1
O=C1C=CC(=O)N1c1cccc(N2C(=O)C=CC2=O)c1,"1,1'-(m-Phenylene)bis-1H-pyrrole-2,5-dione (9CI)",523.8499999999998,le15,1
OC[C@H]1O[C@@H](n2cnc3c(O)ncnc32)[C@H](O)[C@@H]1O,Inosine,670.143,le15,1
CC(=O)C1c2cccc(O)c2C(=O)c2c(O)cccc21,"9(10H)-Anthracenone, 10-acetyl-1,8-dihydroxy-",528.05,le15,1
COc1c(C(C)(C)C)cc([N+](=O)[O-])c(C)c1[N+](=O)[O-],"Benzene, 1-(1,1-dimethylethyl)-2-methoxy-4-methyl-3,5-dinitro-",422.75,le15,1
Nc1ccc(N)c2c1C(=O)c1c(N)ccc(N)c1C2=O,"Anthraquinone, 1,4,5,8-tetraamino- (8CI)",657.45,le15,1
CN(C)c1ccc(C=Cc2ccc([N+](=O)[O-])cc2)cc1,"Benzenamine, N,N-dimethyl-4-(2-(4-nitrophenyl)ethenyl)-",475.95,le15,1
Cc1ccc2cc3c(ccc4ccccc43)c3c2c1CC3,"Benz(j)aceanthrylene, 1,2-dihydro-3-methyl-",268.15,le15,1
CCN(C(=O)N(CC)c1ccccc1)c1ccccc1,"Urea, N,N'-diethyl-N,N'-diphenyl-",423.95,le15,1
CN(C)c1ccc(C(=O)c2ccc(N(C)C)cc2)cc1,"Methanone, bis(4-(dimethylamino)phenyl)-",493.15,le15,1
CC(C)CC(C)Nc1ccc(Nc2ccccc2)cc1,"1,4-Benzenediamine, N-(1,3-dimethylbutyl)-N'-phenyl-",477.15,le15,1
CCCCCCCC/C=C\CCCCCCCCO,(Z)-octadec-9-en-1-ol,393.85,le15,1
COP(=S)(OC)Sc1ccc(Cl)cc1,"Phosphorodithioic acid, S-(4-chlorophenyl) O,O-dimethyl ester",424.35,le15,1
Oc1ccc(Cl)cc1Cc1cc(Cl)ccc1O,"Phenol, 2,2'-methylenebis(4-chloro-",480.15,le15,1
CN(Cc1ccc(Cl)cc1Cl)S(N)(=O)=O,"Sulfamide, N-(2,4-dichlorobenzyl)-N-methyl-",477.05,le15,1
Clc1ccc(CSc2ccc(Cl)cc2)cc1,"Benzene, 1-chloro-4-(((4-chlorophenyl)methyl)thio)-",441.55,le15,1
CC(=O)Nc1ccc(N=Nc2cc(C)ccc2O)cc1,"Acetamide, N-(4-(2-(2-hydroxy-5-methylphenyl)diazenyl)phenyl)-",549.8499999999998,le15,1
c1ccc2cc(Nc3ccc4ccccc4c3)ccc2c1,N-naphthalen-2-ylnaphthalen-2-amine,541.65,le15,1
Oc1ccc(-c2ccccc2)cc1CN1CCOCC1,"(1,1'-Biphenyl)-4-ol, 3-(4-morpholinylmethyl)-",474.05,le15,1
OCCCl.OCCCl.OCCCl.OP(O)O,"Ethanol, 2-chloro-, phosphite (3:1)",370.35,le15,1
CC(Oc1cc(Cl)c(Cl)cc1Cl)C(=O)O,"Propionic acid, 2-(2,4,5-trichlorophenoxy)-",455.75,le15,1
CCCCCCCCCCCCCCCCCCN,1-Octadecanamine,421.15,le15,1
CC(C)(C)C(Br)C(=O)Nc1ccccc1,"2-Bromo-3,3-dimethyl-N-phenylbutanamide",453.05,le15,1
O=C1c2ccccc2C(=O)c2c1cc(O)c(CO)c2O,"9,10-Anthracenedione, 1,3-dihydroxy-2-(hydroxymethyl)- (9CI)",594.75,le15,1
O=C1c2cccc(O)c2C(=O)c2c(O)cc(CO)cc21,"9,10-Anthracenedione, 1,8-dihydroxy-3-(hydroxymethyl)- (9CI)",585.05,le15,1
Cc1cc(O)c2c(c1)C(=O)c1cc(O)cc(O)c1C2=O,"Anthraquinone, 1,3,8-trihydroxy-6-methyl- (8CI)",595.95,le15,1
O=c1c(O)c(-c2ccccc2)oc2cc(O)cc(O)c12,"4H-1-Benzopyran-4-one, 3,5,7-trihydroxy-2-phenyl- (9CI)",475.15,le15,1
O=c1cc(-c2ccc(O)cc2)oc2cc(O)cc(O)c12,"4H-1-Benzopyran-4-one, 5,7-dihydroxy-2-(4-hydroxyphenyl)- (9CI)",490.15,le15,1
CCCC(=O)O.CCCC(=O)O.O=C1OC(=O)C(O)=C1O,"Maleic anhydride, dihydroxy-, dibutyrate",435.65,le15,1
Nc1ccc(O)c2c1C(=O)c1c(O)ccc(N)c1C2=O,"9,10-Anthracenedione, 1,5-diamino-4,8-dihydroxy-",619.75,le15,1
O=[N+]([O-])c1ccc(/C=C/c2ccc([N+](=O)[O-])cc2)cc1,"Benzene, 1,1'-(1,2-ethenediyl)bis(4-nitro-, (E)-",455.85,le15,1
CC(C)=CCOc1c2occc2cc2ccc(=O)oc12,"7H-Furo(3,2-g)(1)benzopyran-7-one, 9-((3-methyl-2-butenyl)oxy)-",498.05,le15,1
COc1cc(O)c2c(c1)Cc1cc(C)cc(O)c1C2=O,"Anthrone, 1,8-dihydroxy-3-methoxy-6-methyl-",483.25,le15,1
Cc1nnc(NS(=O)(=O)c2ccc(N)cc2)s1,"Benzenesulfonamide, 4-amino-N-(5-methyl-1,3,4-thiadiazol-2-yl)-",532.25,le15,1
C[C@]12CC[C@@H]3c4ccc(O)cc4CC[C@H]3[C@@H]1CCC2=O,"Estra-1,3,5(10)-trien-17-one, 3-hydroxy-",462.85,le15,1
CC(C)(OOC(C)(C)c1ccccc1)c1ccccc1,"Peroxide, bis(alpha,alpha-dimethylbenzyl)",372.75,le15,1
CN(C)CCOC(C)(c1ccccc1)c1ccccn1,"Ethanamine, N,N-dimethyl-2-(1-phenyl-1-(2-pyridinyl)ethoxy)-",447.65,le15,1
CCCCOC(=O)C1CCC(C(=O)OCCCC)C1,"1,3-Cyclopentanedicarboxylic acid, dibutyl ester",434.35,le15,1
CCCCCCCC(=O)OC(=O)CCCCCCC,octanoyl octanoate,415.55,le15,1
S=C1N=CC=NC(=S)SSSS1,"1,2,3,4,6,9-Tetrathiadiazecine-5,10-dithione",483.95,le15,1
CCCCCCCCCCCCCCCCC(=O)O,heptadecanoic acid,431.55,le15,1
CCCCCCCCCCCCCC(=O)OC(C)C,propan-2-yl tetradecanoate,417.25,le15,1
CCCCCCCCCCCCCCCC(=O)OC,methyl hexadecanoate,425.95,le15,1
CCCCCCCCCCCCCCCCCCO,Stearyl alcohol,411.85,le15,1
O=[N+]([O-])c1cc(C(F)(F)F)cc([N+](=O)[O-])c1Cl,"Toluene, 4-chloro-3,5-dinitro-alpha,alpha,alpha-trifluoro-",399.15,le15,1
CCCCCCCCCOCCCCCCCCC,1-nonoxynonane,402.45,le15,1
FC(Br)(Br)Br,tribromo(fluoro)methane,289.65,le15,1
O=C1CN=C(c2ccccc2)c2cc(Cl)ccc2N1,"2H-1,4-Benzodiazepin-2-one, 7-chloro-1,3-dihydro-5-phenyl-",500.95,le15,1
CN1CCN=C(c2ccccc2)c2cc(Cl)ccc21,"1H-1,4-Benzodiazepine, 7-chloro-2,3-dihydro-1-methyl-5-phenyl-",471.55,le15,1
FC(F)(F)C(F)(Cl)C(F)(Cl)C(F)(F)F,"2,3-dichloro-1,1,1,2,3,4,4,4-octafluorobutane",273.75,le15,1
COP(=O)(OC)Oc1ccc(Cl)cc1Cl,"Phosphoric acid, 2,4-dichlorophenyl dimethyl ester",439.65,le15,1
BrCc1c2ccccc2cc2ccccc12,"Anthracene, 9-bromomethyl-",482.15,le15,1
CN(C)C(=O)CCNc1ccc(Br)cc1,"Propanamide, 3-((4-bromophenyl)amino)-N,N-dimethyl- (9CI)",467.75,le15,1
O=[N+]([O-])c1cc(Cl)c(Cl)c([N+](=O)[O-])c1Cl,"Benzene, 1,2,4-trichloro-3,5-dinitro-",435.95,le15,1
BrCCCCCCCCBr,"1,8-dibromooctane",386.15,le15,1
Fc1c(F)c(F)c2c(F)c(F)c(F)c(F)c2c1F,"1,2,3,4,5,6,7,8-octafluoronaphthalene",347.45,le15,1
O=C1c2ccc(O)c(O)c2C(=O)c2c(O)ccc(O)c21,"9,10-Anthracenedione, 1,2,5,8-tetrahydroxy-",553.75,le15,1
COc1ccc(C(=O)Nc2ccccc2)cc1[N+](=O)[O-],"Benzamide, 4-methoxy-3-nitro-N-phenyl-",458.15,le15,1
N#CCCC1(CCC#N)c2ccccc2-c2ccccc21,"9H-Fluorene-9,9-dipropanenitrile (9CI)",522.45,le15,1
OC(CN1CCCCC1)c1cc(-c2ccccc2)on1,"1-Piperidineethanol, alpha-(5-phenyl-3-isoxazolyl)-",509.65,le15,1
C[C@]12CC[C@@H]3c4ccc(O)cc4CC[C@H]3[C@@H]1CC[C@@H]2O,"Estra-1,3,5(10)-triene-3,17-diol, (17beta)-",482.75,le15,1
COC(=O)CCCCCCCCCCCC(=O)OC,"Tridecanedioic acid, dimethyl ester",413.95,le15,1
CCOP(=S)(OCC)SC1CCSC1,"Phosphorodithioic acid, O,O-diethyl S-(tetrahydro-3-thienyl) ester",437.35,le15,1
ClC1=C(Cl)C(Cl)(Cl)C(Cl)=C1Cl,"1,3-Cyclopentadiene, 1,2,3,4,5,5-hexachloro-",423.15,le15,1
Clc1ccc(Cl)c(I)c1,"1,4-dichloro-2-iodobenzene",367.05,le15,1
COc1c2ccoc2nc2c(OC)c3c(cc12)OCO3,"1,3-Dioxolo(4,5-g)furo(2,3-b)quinoline, 4,9-dimethoxy-",489.15,le15,1
O=[N+]([O-])c1ccc2c(ccc3c4ccccc4ccc23)c1,"Chrysene, 2-nitro-",531.95,le15,1
N#Cc1c(Cl)nc(Cl)c(C#N)c1-c1ccccc1,"3,5-Pyridinedicarbonitrile, 2,6-dichloro-4-phenyl-",497.45,le15,1
COc1cc(O)c2c(=O)c3c(O)ccc(O)c3oc2c1,"9H-Xanthen-9-one, 1,5,8-trihydroxy-3-methoxy- (9CI)",501.15,le15,1
Nc1ccc(-c2ccc(N)cc2[N+](=O)[O-])c([N+](=O)[O-])c1,"2,2'-Dinitrobenzidine",529.05,le15,1
Nc1ccc(-c2ccc(N)c([N+](=O)[O-])c2)cc1[N+](=O)[O-],"(1,1'-Biphenyl)-4,4'-diamine, 3,3'-dinitro- (9CI)",527.75,le15,1
O=C(CCc1ccc(O)cc1)c1c(O)cc(O)cc1O,"Propiophenone, 2',4',6'-trihydroxy-3-(p-hydroxyphenyl)- (8CI)",564.25,le15,1
C=CCOC(=O)OCCOCCOC(=O)OCC=C,"2,5,8,10-Tetraoxatridec-12-enoic acid, 9-oxo-, 2-propenyl ester",418.45,le15,1
CCOP(=S)(OCC)OCCS(=O)CC,"Phosphorothioic acid, O,O-diethyl O-(2-(ethylsulfinyl)ethyl) ester",453.75,le15,1
c1ccc(P(C2CCCCC2)C2CCCCC2)cc1,Dicyclohexylphenylphosphine,474.25,le15,1
CC(C)=CCCC(C)CCOC(=O)Cc1ccccc1,"Acetic acid, phenyl-, 3,7-dimethyl-6-octenyl ester",394.35,le15,1
CCCCCCCCCCCC(=O)OCC(O)CO,"Dodecanoic acid, 2,3-dihydroxypropyl ester",408.75,le15,1
CCOP(=S)(OCC)SCCSCC,"Phosphorodithioic acid, O,O-diethyl S-(2-(ethylthio)ethyl) ester",426.95,le15,1
CC(C)(C)OC([SiH3])=C(OC(C)(C)C)OC(C)(C)C,"Silane, tris(1,1-dimethylethoxy)ethenyl- (9CI)",388.05,le15,1
CCCCCCCCCCCCCCc1ccccc1,tetradecylbenzene,433.55,le15,1
COC(=O)C1(O)c2ccccc2-c2ccc(Cl)cc21,"9H-Fluorene-9-carboxylic acid, 2-chloro-9-hydroxy-, methyl ester",484.85,le15,1
CN(C)CCC(c1ccc(Cl)cc1)c1ccccn1,"Pyridine, 2-(p-chloro-alpha-(2-(dimethylamino)ethyl)benzyl)-",456.15,le15,1
O=C(CBr)Nc1cc([N+](=O)[O-])ccc1O,"Acetanilide, 2-bromo-2'-hydroxy-5'-nitro- (8CI)",512.65,le15,1
O=C(CBr)c1ccc(-c2ccccc2)cc1,"Acetophenone, 2-bromo-4'-phenyl- (8CI)",348.25,le15,1
CCOP(=O)(OCC)Oc1ccc([N+](=O)[O-])cc1,"Phosphoric acid, diethyl 4-nitrophenyl ester",435.45,le15,1
O=[N+]([O-])c1ccc(Nc2ccc(O)cc2)c([N+](=O)[O-])c1,"Phenol, 4-((2,4-dinitrophenyl)amino)-",495.35,le15,1
O=C1c2ccccc2-c2c3c(cc4ccnc1c24)OCO3,"8H-Benzo(g)-1,3-benzodioxolo(6,5,4-de)quinolin-8-one (9CI)",548.15,le15,1
CCCOP(C)(=S)Oc1ccc([N+](=O)[O-])cc1,"Phosphonothioic acid, methyl-, O-(4-nitrophenyl) O-propyl ester",445.75,le15,1
Cc1cc2c(cc1S(N)(=O)=O)S(=O)(=O)CCC2,"2H-1-Benzothiopyran-7-sulfonamide, 3,4-dihydro-6-methyl-, 1,1-dioxide",559.05,le15,1
CCC(=O)N(c1ccccn1)C(C)CN1CCCCC1,N-(1-piperidin-1-ylpropan-2-yl)-N-pyridin-2-ylpropanamide,474.95,le15,1
Clc1nc(Cl)nc(Nc2ccccc2Cl)n1,"1,3,5-Triazin-2-amine, 4,6-dichloro-N-(2-chlorophenyl)- (9CI)",505.35,le15,1
O=C(O)C(Br)C(Br)C(=O)O,"Succinic acid, 2,3-dibromo- (8CI)",385.65,le15,1
COc1c(Cl)c(Cl)c(Cl)c(Cl)c1OC,"Benzene, 1,2,3,4-tetrachloro-5,6-dimethoxy-",395.25,le15,1
O=[N+]([O-])c1cc2nc(C(F)(F)F)[nH]c2cc1[N+](=O)[O-],"Benzimidazole, 5,6-dinitro-2-(trifluoromethyl)-",512.95,le15,1
FC(F)(Br)C(F)(Cl)Br,"1,2-dibromo-1-chloro-1,2,2-trifluoroethane",282.25,le15,1
O=[N+]([O-])c1ccc(Sc2ccc([N+](=O)[O-])cc2)cc1,"Benzene, 1,1'-thiobis(4-nitro-",521.75,le15,1
O=C1C=CC(=O)N1CCCCCCN1C(=O)C=CC1=O,"1H-Pyrrole-2,5-dione, 1,1'-(1,6-hexanediyl)bis- (9CI)",491.25,le15,1
c1cc2ccc3cc4cccc5ccc6cc(c1)c2c3c6c54,"Dibenzo(def,mno)chrysene",520.3499999999998,le15,1
c1ccc2c(c1)-c1ccc3ccc4cccc5cc-2c1c3c45,"Indeno(1,2,3-cd)pyrene",520.3499999999998,le15,1
c1cc2ccc3c4cccc5ccc(c6ccc(c1)c2c36)c54,Benzo(def)cyclopenta(hi)chrysene,538.45,le15,1
CCOP(=O)(OCC)SCS(=O)(=O)CC,"Phosphorothioic acid, O,O-diethyl S-((ethylsulfonyl)methyl) ester",462.85,le15,1
CC1CC(OC(=O)C(O)c2ccccc2)CC(C)(C)C1,"Benzeneacetic acid, alpha-hydroxy-, 3,3,5-trimethylcyclohexyl ester",423.25,le15,1
CCCCCC=CC(=O)CCc1ccc(O)c(OC)c1,"4-Decen-3-one, 1-(4-hydroxy-3-methoxyphenyl)-",423.45,le15,1
O[Si](c1ccccc1)(c1ccccc1)c1ccccc1,"Silane, hydroxytriphenyl-",461.95,le15,1
CCOC(CCCCCCC[SiH3])(OCC)OCC,"Silane, triethoxyoctyl-",374.45,le15,1
N#Cc1cc(Br)c(O)c(Br)c1,"Benzonitrile, 3,5-dibromo-4-hydroxy-",387.55,le15,1
CC(C)COC(=O)COc1ccc(Cl)cc1Cl,"Acetic acid, (2,4-dichlorophenoxy)-, 2-methylpropyl ester (9CI)",402.05,le15,1
CCCCOC(=O)COc1ccc(Cl)cc1Cl,"Acetic acid, (2,4-dichlorophenoxy)-, butyl ester",405.15,le15,1
COP(=S)(OC)Oc1ccc([N+](=O)[O-])c(C)c1,"Phosphorothioic acid, O,O-dimethyl O-(3-methyl-4-nitrophenyl) ester",438.35,le15,1
O=C(Nc1ccc2c(c1)Cc1ccccc1-2)C(F)(F)F,"Acetamide, N-9H-fluoren-2-yl-2,2,2-trifluoro- (9CI)",475.15,le15,1
CCOP(=S)(OC)Oc1ccc([N+](=O)[O-])cc1,"Phosphorothioic acid, O-ethyl O-methyl O-(4-nitrophenyl) ester (9CI)",438.05,le15,1
Cn1cnc([N+](=O)[O-])c1Sc1[nH]cnc2ncnc1-2,"1H-Purine, 6-((1-methyl-4-nitro-1H-imidazol-5-yl)thio)-",641.65,le15,1
CCCCCCCCCCCCCCBr,1-bromotetradecane,400.45,le15,1
Oc1ccc(C(c2ccc(O)cc2)c2ccccn2)cc1,"Phenol, 4,4'-(2-pyridinylmethylene)bis- (9CI)",506.45,le15,1
C[Si](C)(Cl)O[Si](C)(C)O[Si](C)(C)Cl,bis[[chloro(dimethyl)silyl]oxy]-dimethylsilane,326.45,le15,1
CNC(=O)Oc1c(C(C)(C)C)cc(C)cc1C(C)(C)C,"Phenol, 2,6-bis(1,1-dimethylethyl)-4-methyl-, methylcarbamate (9CI)",429.15,le15,1
Cl[As]1c2ccccc2Nc2ccccc21,10-chloro-5H-phenarsazinine,469.85,le15,1
O=C(CBr)c1ccc(Br)cc1,"Ethanone, 2-bromo-1-(4-bromophenyl)-",387.25,le15,1
O=C(OCC1CO1)c1ccccc1C(=O)OCC1CO1,"Phthalic acid, bis(2,3-epoxypropyl) ester",446.05,le15,1
O=C(O)CN(CCO)CCN(CC(=O)O)CC(=O)O,"Glycine, N-(2-(bis(carboxymethyl)amino)ethyl)-N-(2-hydroxyethyl)-",573.15,le15,1
O=P(c1ccccc1)(c1ccccc1)c1ccccc1,"Phosphine oxide, triphenyl-",506.95,le15,1
COc1ccccc1N=Nc1c(O)ccc2ccccc12,"2-Naphthalenol, 1-((2-methoxyphenyl)azo)-",495.35,le15,1
Cc1c([N+](=O)[O-])cc2c(c1[N+](=O)[O-])C(C)(C)CC2(C)C,"1H-Indene, 2,3-dihydro-1,1,3,3,5-pentamethyl-4,6-dinitro-",418.45,le15,1
CS(=O)(=O)OC[C@H](O)[C@@H](O)COS(C)(=O)=O,"Threitol, 1,4-dimethanesulfonate, (2S,3S)- (8CI)",594.05,le15,1
CC(=O)CCCCn1c(=O)c2c(ncn2C)n(C)c1=O,"1H-Purine-2,6-dione, 3,7-dihydro-3,7-dimethyl-1-(5-oxohexyl)-",548.25,le15,1
c1ccc2c(c1)ccc1cc3c(ccc4ccccc43)cc12,"Dibenz(a,h)anthracene",537.65,le15,1
c1ccc2c(c1)ccc1c2ccc2ccc3ccccc3c21,Benzo(c)chrysene,537.65,le15,1
c1ccc2c(c1)ccc1c2ccc2c3ccccc3ccc21,Benzo(a)chrysene,537.65,le15,1
c1ccc2c(c1)ccc1cc3ccc4ccccc4c3cc12,"Dibenz(a,j)anthracene",537.65,le15,1
Cc1cc(C)nc(NS(=O)(=O)c2ccc(N)cc2)n1,"Benzenesulfonamide, 4-amino-N-(4,6-dimethyl-2-pyrimidinyl)-",545.25,le15,1
CC(C)COC(=O)c1ccccc1C(=O)OCC(C)C,"1,2-Benzenedicarboxylic acid, bis(2-methylpropyl) ester",427.05,le15,1
CCCCOC(=O)c1ccc(C(=O)OCCCC)cc1,"1,4-Benzenedicarboxylic acid, dibutyl ester",453.35,le15,1
CCCCC(CC)COC(=O)c1ccccc1C(=O)[O-],"1,2-Benzenedicarboxylic acid, mono(2-ethylhexyl) ester (9CI)",417.25,le15,1
CCCCOC(=O)c1ccccc1C(=O)OCCCC,"1,2-Benzenedicarboxylic acid, dibutyl ester",450.55,le15,1
Cc1ccc(/C(=C\CN2CCCC2)c2ccccn2)cc1,"Pyridine, 2-(1-(4-methylphenyl)-3-(1-pyrrolidinyl)-1-propenyl)-, (E)-",490.25,le15,1
ClC(c1ccccc1)(c1ccccc1)c1ccccc1,"Benzene, 1,1',1''-(chloromethylidyne)tris-",451.05,le15,1
O=C(O)C1CCc2cc(C3CCCCC3)c(Cl)cc21,"1H-Indene-1-carboxylic acid, 6-chloro-5-cyclohexyl-2,3-dihydro- (9CI)",483.65,le15,1
FC(F)(Cl)C(F)(Cl)I,"1,2-dichloro-1,1,2-trifluoro-2-iodoethane",289.0499999999999,le15,1
c1ccc2c(c1)ccc1nc3ccc4ccccc4c3cc12,"Dibenz(a,j)acridine",513.45,le15,1
c1ccc2c(c1)ccc1cc3ccc4ccccc4c3nc12,"Dibenz(c,h)acridine",513.45,le15,1
c1ccc2c(c1)ccc1nc3c(ccc4ccccc43)cc12,"Dibenz(a,h)acridine",513.45,le15,1
O=Cc1cc(Br)cc(Br)c1O,"Salicylaldehyde, 3,5-dibromo- (6CI,7CI,8CI)",384.85,le15,1
O=Cc1cc(Br)c(O)c(Br)c1,"3,5-Dibromo-4-hydroxybenzaldehyde",392.25,le15,1
Ic1ccc(-c2ccccc2)cc1,1-iodo-4-phenylbenzene,418.95,le15,1
CNc1ccc(Cl)cc1C(=O)c1ccccc1Cl,"Benzophenone, 2',5-dichloro-2-methylamino-",499.55,le15,1
COc1nccnc1NS(=O)(=O)c1ccc(N)cc1,"Benzenesulfonamide, 4-amino-N-(3-methoxypyrazinyl)-",522.45,le15,1
CCC(c1ccccc1)c1c(O)c2ccccc2oc1=O,"2H-1-Benzopyran-2-one, 4-hydroxy-3-(1-phenylpropyl)-",424.95,le15,1
COc1cc(NS(=O)(=O)c2ccc(N)cc2)ncn1,"Benzenesulfonamide, 4-amino-N-(6-methoxy-4-pyrimidinyl)-",537.3499999999998,le15,1
CC(=O)Nc1ccc2c(c1)Cc1cc(NC(C)=O)ccc1-2,"Acetamide, N,N'-9H-fluorene-2,7-diylbis- (9CI)",520.05,le15,1
CCOc1ccc(-n2c(C)nc3ccccc3c2=O)cc1,"4(3H)-Quinazolinone, 3-(p-ethoxyphenyl)-2-methyl-",504.05,le15,1
C=C[Si](OCCOC)(OCCOC)OCCOC,"6-Ethenyl-6-(methoxyethoxy)-2,5,7,10-tetraoxa-6-silaundecane (9CI)",377.95,le15,1
CN(C)CCCN1c2ccccc2CCc2ccccc21,"5H-Dibenz(b,f)azepine-5-propanamine, 10,11-dihydro-N,N-dimethyl- (9CI)",452.85,le15,1
CCCCC/C=C/C/C=C/CCCCCCCC(=O)O,"9,12-Octadecadienoic acid, (9E,12E)-",546.15,le15,1
CCCCCCCCCCCCCCC1CCCCC1,tetradecylcyclohexane,437.85,le15,1
O=CC(Br)(Br)Br,"Acetaldehyde, tribromo-",338.15,le15,1
CC(Br)(Br)CBr,"1,2,2-tribromopropane",344.85,le15,1
CC(Br)C(Br)Br,"1,1,2-tribromopropane",344.95,le15,1
BrCC(Br)CBr,"Propane, 1,2,3-tribromo-",366.15,le15,1
CCOP(=S)(CC)Sc1ccc(Cl)cc1,"Phosphonodithioic acid, ethyl-, S-(4-chlorophenyl) O-ethyl ester",441.25,le15,1
O=[N+]([O-])c1cc(Br)ccc1Br,"1,4-Dibromo-2-nitrobenzene",388.05,le15,1
O=C(O)C(c1ccc(Cl)cc1)c1ccc(Cl)cc1,"Benzeneacetic acid, 4-chloro-alpha-(4-chlorophenyl)- (9CI)",475.75,le15,1
O=C(O)c1ccccc1Nc1cccc(C(F)(F)F)c1,"Anthranilic acid, N-(alpha,alpha,alpha-trifluoro-m-tolyl)-",453.05,le15,1
O=C1CN=C(c2ccccc2)c2cc([N+](=O)[O-])ccc2N1,"2H-1,4-Benzodiazepin-2-one, 1,3-dihydro-7-nitro-5-phenyl-",527.55,le15,1
CNc1ncnc2c1ncn2[C@@H]1O[C@H](CO)[C@@H](O)[C@H]1O,"Adenosine, N-methyl- (8CI)(9CI)",619.45,le15,1
CCCN(CCC)c1c([N+](=O)[O-])cc(C)cc1[N+](=O)[O-],"Benzenamine, 4-methyl-2,6-dinitro-N,N-dipropyl- (9CI)",475.55,le15,1
CCC(CC)Nc1c([N+](=O)[O-])cc(C)c(C)c1[N+](=O)[O-],"Benzenamine, N-(1-ethylpropyl)-3,4-dimethyl-2,6-dinitro- (9CI)",481.55,le15,1
COc1c(O)cc2c3c1-c1ccccc1CC3N(C)CC2,"4H-Dibenzo(de,g)quinolin-2-ol, 5,6,6a,7-tetrahydro-1-methoxy-6-methyl-",499.95,le15,1
CC1CN(C2CCCCCCCCCCC2)CC(C)O1,"Morpholine, 4-cyclododecyl-2,6-dimethyl-",382.85,le15,1
CC(I)I,"1,1-diiodoethane",345.65,le15,1
ICCI,"1,2-diiodoethane",374.05,le15,1
COC(=O)C=C(CC(=O)OC)OP(=O)(OC)OC,"2-Pentenedioic acid, 3-((dimethoxyphosphinyl)oxy)-, dimethyl ester",439.95,le15,1
COc1c(C=O)c(O)cc2c1C(=O)c1ccccc1C2=O,"2-Anthraquinonecarboxaldehyde, 3-hydroxy-1-methoxy-",478.05,le15,1
COCCOC(=O)c1ccccc1C(=O)OCCOC,"Phthalic acid, bis(2-methoxyethyl) ester (8CI)",404.75,le15,1
CCCCOC(=O)C1(O)c2ccccc2-c2ccccc21,"9H-Fluorene-9-carboxylic acid, 9-hydroxy-, butyl ester",405.95,le15,1
CCCCCCCCOC(=O)c1cc(O)c(O)c(O)c1,"Benzoic acid, 3,4,5-trihydroxy-, octyl ester",450.25,le15,1
OCCOCCOCCOCCOCCOCCO,"3,6,9,12,15-Pentaoxaheptadecane-1,17-diol",383.15,le15,1
Sc1c(Cl)c(Cl)c(Cl)c(Cl)c1Cl,"Benzenethiol, 2,3,4,5,6-pentachloro-",417.75,le15,1
O=C(CCC(=O)OC1CCCCC1)OC1CCCCC1,"Butanedioic acid, dicyclohexyl ester (9CI)",455.35,le15,1