smiles,compound,flashpoint,source,pure substance
CC(C)CCC(C)Cl,2-Chloro-5-methylhexane,308.4,caroll15,1
CCCC(Cl)CCC,4-Chloroheptane,312.4,caroll15,1
CCCCC(Cl)CC,3-Chloroheptane,312.4,caroll15,1
CCCCCC(C)Cl,2-Chloroheptane,312.4,caroll15,1
CCCCCC(Cl)CC,3-Chlorooctane,325.7,caroll15,1
CCCCCCCC(C)Cl,2-Chlorononane,338.3,caroll15,1
CCCCC(Cl)CCCC,5-Chlorononane,338.3,caroll15,1
CCC[C@H](Cl)CCCC(C)C,(S)-6-Chloro-2-methylnonane,346.9,caroll15,1
CCCCCCCCC(C)Cl,2-Chlorodecane,350.2,caroll15,1
CCCCCCCCCCC(C)Cl,2-Chlorododecane,372.7,caroll15,1
CCCCCCCC(Cl)CCCC,5-Chlorododecane,372.6,caroll15,1
CCCCCCCCC(Cl)CCCC,5-Chlorotridecane,383.2,caroll15,1
CC(C)C(C)(C)Cl,"2-Chloro-2,3-dimethylbutane",288.1,caroll15,1
CCC(C)(Cl)CC,3-Chloro-3-methylpentane,282.6,caroll15,1
CCCC(C)(C)Cl,2-Chloro-2-methylpentane,294.0,caroll15,1
CC(C)CC(C)(C)Cl,"2-Chloro-2,4-dimethylpentane",302.9,caroll15,1
CCCC(C)(Cl)CC,3-Chloro-3-methylhexane,306.7,caroll15,1
CCC(C)C(C)(C)Cl,"2-Chloro-2,3-dimethylpentane",302.9,caroll15,1
CC(C)(C)C(C)(C)Cl,"2-Chloro-2,3,3-trimethylbutane",297.5,caroll15,1
CCC(Cl)(CC)CC,3-Chloro-3-ethylpentane,306.7,caroll15,1
CC(C)(C)CC(C)(C)Cl,"2-Chloro-2,4,4-trimethylpentane",311.5,caroll15,1
CCCC(C)(Cl)C(C)C,"3-Chloro-2,3-dimethylhexane",316.7,caroll15,1
CCCCC(C)(Cl)CC,3-Chloro-3-methylheptane,320.3,caroll15,1
CCCCCC(C)(C)Cl,2-Chloro-2-methylheptane,320.3,caroll15,1
CCCC(C)(Cl)C(C)(C)C,"3-Chloro-2,2,3-trimethylhexane",324.8,caroll15,1
CCCCC(Cl)(CC)CC,3-Chloro-3-ethylheptane,333.1,caroll15,1
CCCCCC(C)(Cl)CC,3-Chloro-3-methyloctane,333.1,caroll15,1
CCC(C)(Cl)CCCC(C)C,"6-Chloro-2,6-dimethyloctane",342.0,caroll15,1
CCCCCCCC(C)(C)Cl,2-Chloro-2-methylnonane,345.3,caroll15,1
CCCCCCC(C)(Cl)CC,3-Chloro-3-methylnonane,345.3,caroll15,1
CC(C)C(C)CCl,"1-Chloro-2,3-dimethylbutane",294.0,caroll15,1
CC(C)CCCCl,1-Chloro-4-methylpentane,298.2,caroll15,1
CCCCC(CC)CCl,3-(Chloromethyl)heptane,325.7,caroll15,1
CCCCCCCCCCl,1-Chlorononane,347.2,caroll15,1
CC(C)CCCC(C)CCCl,"1-Chloro-3,7-dimethyloctane",346.9,caroll15,1
CCCCCCCCCCCCCCl,1-Chlorotridecane,387.0,caroll15,1
CCCCCCCCCCCCCCCCl,1-Chloropentadecane,403.8,caroll15,1
CCCCCCCCCCCCCCCCCCCCCl,1-Chloroeicosane,437.2,caroll15,1
CCC(C)Cl,2-Chlorobutane,258.2,caroll15,1
CC(C)C(C)Cl,2-Chloro-3-methylbutane,278.6,caroll15,1
CCCC(C)Cl,2-Chloropentane,274.2,caroll15,1
CC(Cl)C(C)(C)C,"3-Chloro-2,2-dimethylbutane",288.1,caroll15,1
CC(Cl)CC(C)(C)C,"4-Chloro-2,2-dimethylpentane",302.9,caroll15,1
CC(C)CCCC(C)Cl,2-Chloro-6-methylheptane,322.0,caroll15,1
CCCCCCC(C)Cl,2-Chlorooctane,325.7,caroll15,1
CCCCCCC(Cl)CCCC,5-Chloroundecane,361.7,caroll15,1
CCC(C)(C)Cl,2-Chloro-2-methylbutane,276.5,caroll15,1
CCC(C)(Cl)C(C)C,"3-Chloro-2,3-dimethylpentane",302.9,caroll15,1
CCCCC(C)(C)Cl,2-Chloro-2-methylhexane,306.7,caroll15,1
CC(C)CCC(C)(C)Cl,"2-Chloro-2,5-dimethylhexane",316.7,caroll15,1
CCCC(C)(Cl)CCC,4-Chloro-4-methylheptane,320.3,caroll15,1
CCC(Cl)(CC)C(C)(C)C,"3-Chloro-3-ethyl-2,2-dimethylpentane",324.8,caroll15,1
CCCCCCC(C)(C)Cl,2-Chloro-2-methyloctane,333.1,caroll15,1
CCCCC(C)(Cl)CCC,4-Chloro-4-methyloctane,333.1,caroll15,1
C[Si](Cl)(Cl)Cl,Methyltrichlorosilane,276.15,didier12,1
C=C[Si](Cl)(Cl)Cl,Vinyltrichlorosilane,294.15,didier12,1
C[Si](Cl)(Cl)C(Cl)Cl,Dichloromethylmethyldichlorosilane,301.15,didier12,1
CC[Si](Cl)(Cl)Cl,Ethyltrichlorosilane,263.15,didier12,1
C[SiH](C)Cl,Dimethylchlorosilane,245.15,didier12,1
CC[SiH3],Ethylsilane,213.15,didier12,1
CC(C(F)(F)F)[Si](Cl)(Cl)Cl,"1,1,1-Trifluoropropyltrichlorosilane",288.15,didier12,1
C=CC[Si](Cl)(Cl)Cl,Allyltrichlorosilane,304.15,didier12,1
CC=C[SiH](Cl)Cl,Methylvinyldichlorosilane,272.15,didier12,1
ClCCC[Si](Cl)(Cl)Cl,3-Chloropropyltrichlorosilane,357.15,didier12,1
CCC[Si](Cl)(Cl)Cl,n-Propyltrichlorosilane,310.15,didier12,1
C[Si](C)(Cl)CCl,Chloromethyldimethylchlorosilane,295.15,didier12,1
C[Si](C)(C)Br,Trimethylbromosilane,270.15,didier12,1
C[Si](C)(C)Cl,Trimethylchlorosilane,255.15,didier12,1
C[Si](C)(C)F,Trimethylfluorosilane,238.15,didier12,1
CO[SiH](OC)OC,Trimethoxysilane,264.15,didier12,1
C[Si](Cl)(Cl)CCC#N,Cyanoethylmethyldichlorosilane,333.15,didier12,1
C=CCC[SiH](Cl)Cl,Allylmethyldichlorosilane,300.15,didier12,1
C[Si](Cl)(Cl)CCCCl,3-Chloropropylmethyldichlorosilane,359.15,didier12,1
CC(C)(C)[Si](Cl)(Cl)Cl,t-Butyltrichlorosilane,294.15,didier12,1
CC(C)C[Si](Cl)(Cl)Cl,Isobutyltrichlorosilane,310.15,didier12,1
CCCC[Si](Cl)(Cl)Cl,n-Butyltrichlorosilane,327.15,didier12,1
C[Si](C)(C)N=C=S,Trimethylsilylisothiocyanate,308.15,didier12,1
CCC[Si](C)(Cl)Cl,n-Propylmethyldichlorosilane,300.15,didier12,1
C[Si](C)(C)CBr,Bromomethyltrimethylsilane,289.15,didier12,1
CC[Si](C)(C)Cl,Ethyldimethylchlorosilane,269.15,didier12,1
CO[Si](C)(C)C,Methoxytrimethylsilane,243.15,didier12,1
CO[Si](C)(C)OC,Dimethyldimethoxysilane,265.15,didier12,1
CO[Si](C)(OC)OC,Methyltrimethoxysilane,284.15,didier12,1
CO[Si](OC)(OC)OC,Tetramethoxysilane,294.15,didier12,1
C[Si](C)(C)C,Tetramethylsilane,245.15,didier12,1
CC[SiH2]CC,Diethylsilane,253.15,didier12,1
CN(C)[SiH](C)C,"(N,N-Dimethylamino)dimethylsilane",260.15,didier12,1
O=C=N[Si](N=C=O)(N=C=O)N=C=O,Tetraisocyanatosilane,323.15,didier12,1
Cl[Si](Cl)(Cl)C1CCCC1,Cyclopentyltrichlorosilane,350.15,didier12,1
C[Si](C)(C)OC(=O)C(F)(F)F,Trimethylsilyltrifluoroacetate,273.15,didier12,1
Cl[SiH](Cl)C1CCCC1,Cyclopentyldichlorosilane,316.15,didier12,1
CC(CCl)C[Si](C)(Cl)Cl,3-Chloro-2-methylpropylmethyldichlorosilane,363.15,didier12,1
CC=C[SiH](OC)OC,Methylvinyldimethoxysilane,277.15,didier12,1
C=C[Si](OC)(OC)OC,Vinyltrimethoxysilane,296.15,didier12,1
CC(C)=C(C)[SiH3],Trimethylvinylsilane,239.15,didier12,1
CC[Si](C)(Cl)CC,Diethylmethylchlorosilane,288.15,didier12,1
CCO[Si](C)(C)CCl,Chloromethyldimethylethoxysilane,299.15,didier12,1
CCO[Si](C)(C)C,Ethoxytrimethylsilane,246.15,didier12,1
CC[Si](OC)(OC)OC,Ethyltrimethoxysilane,300.15,didier12,1
CN(C)[Si](C)(C)C,"(N,N-Dimethylamino)trimethylsilane",254.15,didier12,1
C[SiH](C)O[Si](C)(C)C,Pentamethyldisiloxane,254.15,didier12,1
Cl[SiH](Cl)c1ccccc1,Phenyldichlorosilane,333.15,didier12,1
[SiH3]c1ccccc1,Phenylsilane,281.15,didier12,1
CCCCC=C[Si](Cl)(Cl)Cl,1-Hexenyltrichlorosilane,333.15,didier12,1
Cl[Si](Cl)(Cl)C1CCCCC1,Cyclohexyltrichlorosilane,358.15,didier12,1
C[Si](C)(C)O[Si](C)(CCl)CCl,Bis(chloromethyl)tetramethyldisiloxane,346.15,didier12,1
C#CCO[Si](C)(C)C,Propargyloxytrimethylsilane,300.15,didier12,1
C=C[Si](C)(C)C=C,Divinyldimethylsilane,281.15,didier12,1
CCCCCC[Si](Cl)(Cl)Cl,n-Hexyltrichlorosilane,358.15,didier12,1
CCCCCC[SiH](Cl)Cl,Hexyldichlorosilane,337.15,didier12,1
C[Si]1(C)CCCCO1,"1,1-Dimethyl-1-sila-2-oxacyclohexane",287.15,didier12,1
CC(=O)OC[Si](C)(C)C,Acetoxymethyltrimethylsilane,293.15,didier12,1
C=CC[Si](C)(C)C,Allyltrimethylsilane,280.15,didier12,1
CC[Si](Cl)(CC)CC,Triethylchlorosilane,303.15,didier12,1
CC(C)(C)[Si](C)(C)Cl,t-Butyldimethylchlorosilane,295.15,didier12,1
CO[Si](C)(CCCCl)OC,3-Chloropropylmethyldimethoxysilane,318.15,didier12,1
CCCO[Si](C)(C)C,Trimethyl-n-propoxysilane,283.15,didier12,1
CC(C)(C)[Si](C)(C)O,t-Butyldimethylsilanol,318.15,didier12,1
CCO[Si](C)(C)OCC,Dimethyldiethoxysilane,284.15,didier12,1
CC[SiH](CC)CC,Triethylsilane,270.15,didier12,1
CCCCCC[SiH3],Hexylsilane,285.15,didier12,1
C[SiH](C)C(C)(C)C,t-Butyldimethylsilane,251.15,didier12,1
CN(C)[Si](C)(C)N(C)C,Bis(dimethylamino)dimethylsilane,266.15,didier12,1
C[Si]1(C)O[Si](C)(C)O[Si](C)(C)O1,Hexamethylcyclotrisiloxane,305.15,didier12,1
C[Si](C)(C)S[Si](C)(C)C,Hexamethyldisilthiane,299.15,didier12,1
C[Si](C)(C)N[Si](C)(C)C,Hexamethyldisilazane,281.15,didier12,1
CN(C)[SiH](N(C)C)N(C)C,Tris(dimethylamino)silane,298.15,didier12,1
C[Si](C)(C)O[SiH2]O[Si](C)(C)C,Hexamethyltrisiloxane,293.15,didier12,1
Cl[SiH](Cl)Cc1ccccc1,Phenylmethyldichlorosilane,340.15,didier12,1
Cl[SiH2]Cc1ccccc1,Phenylmethylchlorosilane,355.15,didier12,1
CC(=O)O[Si](C)(OC(C)=O)OC(C)=O,Methyltriacetoxysilane,358.15,didier12,1
C=CC([SiH3])(C=C)C=C,Trivinylmethylsilane,288.15,didier12,1
Cl[SiH](Cl)CC1CCCCC1,Cyclohexylmethyldichlorosilane,355.15,didier12,1
C=CC=CO[Si](C)(C)C,"1-(Trimethylsiloxy)-1,3-butadiene",298.15,didier12,1
C=C(CCl)C[Si](C)(C)C,2-Chloromethyl-3-trimethylsilyl-1-propene,316.15,didier12,1
CCCCCCC[Si](Cl)(Cl)Cl,n-Heptyltrichlorosilane,337.15,didier12,1
CCCCCC[Si](C)(Cl)Cl,n-Hexylmethyldichlorosilane,358.15,didier12,1
C=CC[SiH](OCC)OCC,Vinylmethyldiethoxysilane,289.15,didier12,1
C[Si](C)(C)N1CCOCC1,N-(Trimethylsilyl)morpholine,300.15,didier12,1
CC(C)(C)O[Si](C)(C)C,t-Butoxytrimethylsilane,287.15,didier12,1
C=C[Si](C)(C)O[Si](C)(C)C,Vinylpentamethyldisiloxane,285.15,didier12,1
COCC(C)O[Si](C)(C)C,(1-Methoxy-2-propoxy)trimethylsilane,293.15,didier12,1
CCO[Si](C)(OCC)OCC,Methyltriethoxysilane,297.15,didier12,1
CCN(CC)[Si](C)(C)C,(Diethylamino)trimethylsilane,283.15,didier12,1
C[Si](C)(C)C[Si](C)(C)C,Bis(trimethylsilyl)methane,285.15,didier12,1
CN([Si](C)(C)C)[Si](C)(C)C,Heptamethyldisilazane,300.15,didier12,1
Cl[SiH](Cl)CCc1ccccc1,Phenylethyldichlorosilane,365.15,didier12,1
C=C[Si](C=C)(C=C)C=C,Tetravinylsilane,291.15,didier12,1
C[SiH](C)c1ccccc1,Phenyldimethylsilane,311.15,didier12,1
C[Si](C)(C)C1C=CC=C1,Cyclopentadienyltrimethylsilane,302.15,didier12,1
C[Si](C)(C)OC1=CCCC1,(Cyclopentenyloxy)trimethylsilane,311.15,didier12,1
C=CC=CC[Si](C)(C)C,"(2,4-Pentadienyl)trimethylsilane",291.15,didier12,1
CCCCCCCC[Si](Cl)(Cl)Cl,n-Octyltrichlorosilane,369.15,didier12,1
CCCCCCC[Si](C)(Cl)Cl,n-Heptylmethyldichlorosilane,339.15,didier12,1
C=C[Si](C)(C=C)O[Si](C)(C)C,Tetramethyldivinyldisiloxane,292.15,didier12,1
CCC(CC)(CC)C(=O)O[SiH3],Triethylacetoxysilane,314.15,didier12,1
C=C[Si](OCC)(OCC)OCC,Vinyltriethoxysilane,307.15,didier12,1
C=C[Si](C)(C)N[Si](C)(C)C=C,"1,3-Divinyltetramethyldisilazane",307.15,didier12,1
CCO[Si](CC)(CC)OCC,Diethyldiethoxysilane,316.15,didier12,1
CCO[Si](OCC)(OCC)OCC,Tetraethoxysilane,323.15,didier12,1
CC[Si](CC)(CC)CC,Tetraethylsilane,305.15,didier12,1
CO[Si](CCCNCCN)(OC)OC,Aminoethylaminopropyltrimethoxysilane,369.15,didier12,1
CCO[Si]([O])OC(C)(C)C(C)C,Tetramethyldiethoxysiloxane,311.15,didier12,1
C[Si](C)(C)O[Si](C)(C)O[Si](C)(C)C,Octamethyltrisiloxane,303.15,didier12,1
C[Si]1(C)O[Si](C)(C)O[Si](C)(C)O[Si](C)(C)O1,Octamethylcyclotetrasiloxane,330.15,didier12,1
C[Si]1(C)N[Si](C)(C)N[Si](C)(C)N[Si](C)(C)N1,Octamethylcyclotetrasilazane,339.15,didier12,1
C[SiH](C)O[Si](O[SiH](C)C)(O[SiH](C)C)O[SiH](C)C,Tetrakisdimethylsiloxysilane,340.15,didier12,1
C[Si](C)(C)c1ccc(Cl)cc1,p-Chlorophenyltrimethylsilane,322.15,didier12,1
CO[Si](OC)(OC)c1ccccc1,Phenyltrimethoxysilane,358.15,didier12,1
C[Si](C)(C)c1ccccc1,Trimethylphenylsilane,313.15,didier12,1
CO[SiH](CC1CCCCC1)OC,Cyclohexylmethyldimethoxysilane,343.15,didier12,1
CCCCCC[Si](OC)(OC)OC,Hexyltrimethoxysilane,335.15,didier12,1
CC(C)[SiH](C(C)C)C(C)C,Triisopropylsilane,310.15,didier12,1
CCC[SiH](CCC)CCC,Tri-n-propylsilane,316.15,didier12,1
CCC[Si](O[SiH](C)C)(O[SiH](C)C)O[SiH](C)C,Propyltris(dimethylsiloxy)silane,323.15,didier12,1
C[Si](C)(C)Cc1ccccc1,Benzyltrimethylsilane,335.15,didier12,1
C=C(C)C(=O)OCCC[Si](OC)(OC)OC,3-Methacryloxypropyltrimethoxysilane,365.15,didier12,1
CCCCCC#C[Si](C)(C)C,1-Heptynyltrimethylsilane,315.15,didier12,1
CCCCCCCC[Si](C)(C)Cl,n-Octyldimethylchlorosilane,370.15,didier12,1
CCN(CC)[Si](C)(C)N(CC)CC,Bis(diethylamino)dimethylsilane,308.15,didier12,1
C[Si](C)(C)O[Si](C)(C)O[Si](C)(C)O[Si](C)(C)C,Decamethyltetrasiloxane,335.15,didier12,1
C[Si]1(C)O[Si](C)(C)O[Si](C)(C)O[Si](C)(C)O[Si](C)(C)O1,Decamethylcyclopentasiloxane,350.15,didier12,1
CO[Si](CCC1CCC2OC2C1)(OC)OC,"2-(3,4-epoxycyclohexyl)ethyltrimethoxysilane",419.15,didier12,1
CCCCCCCCCC[Si](C)(Cl)Cl,n-Decylmethyldichlorosilane,393.15,didier12,1
C=C[Si](CC)(CC)CC,Vinyltriethylsilane,318.15,didier12,1
Cl[Si](Cl)(c1ccccc1)c1ccccc1,Diphenyldichlorosilane,415.15,didier12,1
CCO[Si](OCC)(OCC)c1ccccc1,Phenyltriethoxysilane,393.15,didier12,1
c1ccc([SiH2]c2ccccc2)cc1,Diphenylsilane,371.15,didier12,1
C=C[Si]1(C)[Si](C)(C=C)[Si](C)(C=C)[Si]1(C)C=C,Tetramethyltetravinylcyclotetrasilane,385.15,didier12,1
CCCCCCCCCCCC[Si](Cl)(Cl)Cl,n-Dodecyltrichlorosilane,435.15,didier12,1
CCCO[Si](OCCC)(OCCC)OCCC,Tetra-n-propoxysilane,368.15,didier12,1
CC[Si](CC)(CC)O[Si](CC)(CC)CC,Hexaethyldisiloxane,349.15,didier12,1
C[Si](C)(C)O[Si](C)(C)O[Si](C)(C)O[Si](C)(C)O[Si](C)(C)C,Dodecamethylpentasiloxane,352.15,didier12,1
C[Si]1(C)O[Si](C)(C)O[Si](C)(C)O[Si](C)(C)O[Si](C)(C)O[Si](C)(C)O1,Dodecamethylcyclohexasiloxane,366.15,didier12,1
C[Si](Cl)(c1ccccc1)c1ccccc1,Methyldiphenylchlorosilane,411.15,didier12,1
CCCCCCCCCCCC[Si](C)(Cl)Cl,n-Dodecylmethyldichlorosilane,416.15,didier12,1
CO[Si](OC)(c1ccccc1)c1ccccc1,Diphenyldimethoxysilane,394.15,didier12,1
CCCCCCCC[Si](OCC)(OCC)OCC,Octyltriethoxysilane,373.15,didier12,1
C[Si](C)(C)O[Si](C)(C)O[Si](C)(C)O[Si](C)(C)O[Si](C)(C)O[Si](C)(C)C,Tetradecamethylhexasiloxane,375.15,didier12,1
C[Si](C)(C)O[Si](C)(C)O[Si](C)(C)O[Si](C)(C)O[Si](C)(C)O[Si](C)(C)O[Si](C)(C)C,Hexadecamethylheptasiloxane,406.15,didier12,1
C[Si](C)(C)O[Si](C)(C)O[Si](C)(C)O[Si](C)(C)O[Si](C)(C)O[Si](C)(C)O[Si](C)(C)O[Si](C)(C)C,Octadecamethyloctasiloxane,417.15,didier12,1
C=C[Si](OCCOC)(OCCOC)OCCOC,Vinyltris(methoxyethoxy)silane,353.15,didier12,1
C=CO[Si](C)(C)C,Trimethyl(vinyloxy)silane,263.15,didier12,1
N#CCCC[Si](Cl)(Cl)Cl,Trichloro(3-cyanopropyl) Silane,365.15,didier12,1
Cl[Si](Cl)(Cl)CCc1ccccc1,Trichloro(2-phenylethyl)silane,364.15,didier12,1
C[Si](C)(Cl)CCC(F)(F)F,"Chlorodimethyl(3,3,3-trifluoropropyl) silane",293.15,didier12,1
C=CC[SiH](O[Si](C)(C)C)O[Si](C)(C)C,Vinylmethylbis (trimethylsiloxy) silane,324.15,didier12,1
ClC[Si](Cl)(Cl)Cl,Trichloro(Chloromethyl) silane,342.15,didier12,1
C[SiH](C)c1c(F)c(F)c(F)c(F)c1F,Dimethyl(pentafluorophenyl) silane,313.15,didier12,1
Clc1ccc([Si](Cl)(Cl)Cl)cc1,Trichloro(p-chlorophenyl)silane,397.05,didier12,1
[SiH3][SiH2][SiH3],Trisilane,273.15,didier12,1
[SiH3]CCCCCCCCC(Cl)(Cl)Cl,Trichlorononylsilane,387.15,didier12,1
[SiH3]CC(Cl)Cl,Dichloroethylsilane,263.75,didier12,1
Clc1cccc([Si](Cl)(Cl)Cl)c1Cl,Trichloro(dichlorophenyl)silane,419.15,didier12,1
C[Si](C)(C)[SiH]([Si](C)(C)C)[Si](C)(C)C,Tris(trimethylsilyl)silane,328.15,didier12,1
C[Si](C)(C)O[SiH](O[Si](C)(C)C)O[Si](C)(C)C,Tris(trimethylsiloxy)silane,323.15,didier12,1
CCCCCCCCCCCCCCCC[Si](Cl)(Cl)Cl,Hexadecyltrichlorosilane,427.15,didier12,1
Cl[SiH2]Cl,Dichlorosilane,236.15,didier12,1
C[SiH](Cl)Cl,Methyldichlorosilane,241.15,didier12,1
C[Si](C)(C)I,Iodotrimethylsilane,288.15,didier12,1
C[Si](C)(Cl)Cl,Dimethyldichlorosilane,257.15,didier12,1
C[Si](C)(Cl)CBr,Bromomethyldimethylchlorosilane,314.15,didier12,1
C[SiH](C)C,Trimethylsilane,204.15,didier12,1
CC(C)=C[SiH2]Cl,Dimethylvinylchlorosilane,268.15,didier12,1
C[Si](C)(Cl)O[Si](C)(C)Cl,"1,3-Dichlorotetramethyldisiloxane",288.15,didier12,1
C[SiH](C)O[SiH](C)C,"1,1,3,3-Tetramethyldisiloxane",251.15,didier12,1
CN([SiH3])[Si](C)(C)C,Tetramethyldisilazane,284.15,didier12,1
C=CC[Si](C)(C)Cl,Allyldimethylchlorosilane,278.15,didier12,1
CCCC(C)[Si](Cl)(Cl)Cl,sec-Amyltrichlorosilane,303.15,didier12,1
CCCC[Si](C)(Cl)Cl,n-Butylmethyldichlorosilane,303.15,didier12,1
CN(C)C([SiH3])N(C)C,Bis(dimethylamino)methylsilane,270.15,didier12,1
Cl[Si](Cl)(Cl)c1ccccc1,Phenyltrichlorosilane,364.15,didier12,1
CC(=O)O[Si](C)(C)OC(C)=O,Dimethyldiacetoxysilane,310.15,didier12,1
CC#C[Si](C)(C)C,1-Trimethylsilylpropyne,270.15,didier12,1
C=C[Si](C)(C)OCC,Vinyldimethylethoxysilane,277.15,didier12,1
C=CCO[Si](C)(C)C,Allyloxytrimethylsilane,273.15,didier12,1
C=CC[Si](OC)(OC)OC,Allyltrimethoxysilane,319.15,didier12,1
CO[Si](CCCCl)(OC)OC,3-Chloropropyltrimethoxysilane,348.15,didier12,1
CCC[Si](OC)(OC)OC,n-Propyltrimethoxysilane,298.15,didier12,1
C[Si](C)(C)O[Si](C)(C)C,Hexamethyldisiloxane,270.15,didier12,1
C[Si](C)(C)[Si](C)(C)C,Hexamethyldisilane,272.15,didier12,1
C=C[Si](C)(CC)CC,Vinyldiethylmethylsilane,288.15,didier12,1
CO[Si](CC(C)C)(OC)OC,Isobutyltrimethoxysilane,315.15,didier12,1
C[Si](C)(Cl)c1ccccc1,Phenyldimethylchlorosilane,334.15,didier12,1
CC[Si](CC)(CC)N(C)C,"(N,N-Dimethylamino)triethylsilane",299.15,didier12,1
C=C[Si](OC(C)=O)(OC(C)=O)OC(C)=O,Vinyltriacetoxysilane,361.15,didier12,1
CC[Si](OC(C)=O)(OC(C)=O)OC(C)=O,Ethyltriacetoxysilane,377.15,didier12,1
C[Si](C)(C)C1C=CCC1,3-(Trimethylsilyl)cyclopentene,299.15,didier12,1
C=C[Si](CC)(CC)CC,Vinyltriethylsilane,298.15,didier12,1
CCCCCCCC[SiH3],n-Octylsilane,309.15,didier12,1
CO[Si](C)(OC)c1ccccc1,Methylphenyldimethoxysilane,349.15,didier12,1
CCO[Si](CCC#N)(OCC)OCC,2-Cyanoethyltriethoxysilane,359.15,didier12,1
CO[Si](CCCOCC1CO1)(OC)OC,3-Glycidoxypropyltrimethoxysilane,383.15,didier12,1
CC(C)(C)[Si](C)(Cl)C(C)(C)C,Di-t-butylmethylchlorosilane,342.15,didier12,1
CCC[Si](Cl)(CCC)CCC,Tri-n-propylchlorosilane,349.15,didier12,1
CC(C)N(C(C)C)[Si](C)(C)C,(Diisopropylamino)trimethylsilane,301.15,didier12,1
C[Si](C)(C)O[Si](C)(C)O[Si](C)(C)O[Si](C)(C)Cl,1-Chlorononamethyltetrasiloxane,347.15,didier12,1
C[Si](C)(C)OC([SiH3])(O[Si](C)(C)C)O[Si](C)(C)C,Tristrimethylsiloxymethylsilane,336.15,didier12,1
[SiH3]C(c1ccccc1)c1ccccc1,Diphenylmethylsilane,393.15,didier12,1
C=C(C)O[Si](C)(C)C,Trimethyl[(1-methylethenyl)oxy]silane,272.15,didier12,1
FC(F)(F)CC[SiH2]C(Cl)Cl,"Dichloromethyl-3,3,3-trifluoropropylsilane",288.15,didier12,1
C[Si](C)(C)CCOCCl,[2-(chloromethoxy)ethyl]trimethylsilane,319.15,didier12,1
c1ccc([SiH](c2ccccc2)c2ccccc2)cc1,Triphenylsilane,416.35,didier12,1
Cl[SiH](Cl)Cl,Trichlorosilane,245.15,didier12,1