,Unnamed: 0,compound,flashpoint,pure substance,smiles,source
15759,679,N-butylacetamide,389.0,1.0,CCCCNC(C)=O,katritzky07
15760,680,n-decane,324.0,1.0,CCCCCCCCCC,katritzky07
15761,681,N-ethylacetamide,383.0,1.0,CCNC(C)=O,katritzky07
15762,682,N-ethylisopropylamine,289.0,1.0,CCNC(C)C,katritzky07
15763,683,N-ethylmorpholine,305.0,1.0,CCN1CCOCC1,katritzky07
15764,684,n-heptane,269.0,1.0,CCCCCCC,katritzky07
15765,685,n-hexadecane,407.0,1.0,CCCCCCCCCCCCCCCC,katritzky07
15766,686,n-hexylbenzene,356.0,1.0,CCCCCCc1ccccc1,katritzky07
15767,687,N-methyl-2-propanamine,242.0,1.0,CNC(C)C,katritzky07
15768,688,N-methylaniline,353.0,1.0,CNc1ccccc1,katritzky07
15769,689,N-methylbutylamine,274.0,1.0,CCCCNC,katritzky07
15770,690,N-methylformamide,371.0,1.0,CNC=O,katritzky07
15771,691,N-methylmorpholine,287.0,1.0,CN1CCOCC1,katritzky07
15772,692,n-nonanal,344.0,1.0,CCCCCCCCC=O,katritzky07
15773,693,n-octane,286.0,1.0,CCCCCCCC,katritzky07
15774,694,n-octylbenzene,380.0,1.0,CCCCCCCCc1ccccc1,katritzky07
15775,695,n-pentane,224.0,1.0,CCCCC,katritzky07
15776,696,n-pentyl acetate,298.0,1.0,CCCCCOC(C)=O,katritzky07
15777,697,n-propylbenzene,303.0,1.0,CCCc1ccccc1,katritzky07
15778,698,octanal,325.0,1.0,CCCCCCCC=O,katritzky07
15779,699,octanenitrile,346.0,1.0,CCCCCCCC#N,katritzky07
15780,700,octanoic acid,383.0,1.0,CCCCCCCC(=O)O,katritzky07
15781,701,octanoyl chloride,355.0,1.0,CCCCCCCC(=O)Cl,katritzky07
15782,702,octylamine,333.0,1.0,CCCCCCCCN,katritzky07
15783,703,o-dichlorobenzene,339.0,1.0,Clc1ccccc1Cl,katritzky07
15784,704,p-dichlorobenzene,339.0,1.0,Clc1ccc(Cl)cc1,katritzky07
15785,705,p-diethylbenzene,330.0,1.0,CCc1ccc(CC)cc1,katritzky07
15786,706,pentanal,281.0,1.0,CCCCC=O,katritzky07
15787,707,pentanenitrile,314.0,1.0,CCCCC#N,katritzky07
15788,708,pentanoic acid,359.0,1.0,CCCCC(=O)O,katritzky07
15789,709,pentylbenzene,338.0,1.0,CCCCCc1ccccc1,katritzky07
15790,710,phenyl isocyanate,324.0,1.0,O=C=Nc1ccccc1,katritzky07
15791,712,phthalic anhydride,425.0,1.0,O=C1OC(=O)c2ccccc21,katritzky07
15792,713,pinacolone,278.0,1.0,CC(=O)C(C)(C)C,katritzky07
15793,714,pivalic acid,337.0,1.0,CC(C)(C)C(=O)O,katritzky07
15794,715,propanal,243.0,1.0,CCC=O,katritzky07
15795,716,propane,169.0,1.0,CCC,katritzky07
15796,717,propanoic acid,327.0,1.0,CCC(=O)O,katritzky07
15797,718,propanoyl chloride,285.0,1.0,CCC(=O)Cl,katritzky07
15798,719,propene,165.0,1.0,C=CC,katritzky07
15799,720,propionic anhydride,336.0,1.0,CCC(=O)OC(=O)CC,katritzky07
15800,721,propyl acetate,287.0,1.0,CCCOC(C)=O,katritzky07
15801,722,propyl butyrate,310.0,1.0,CCCOC(=O)CCC,katritzky07
15802,723,propylcyclohexane,308.0,1.0,CCCC1CCCCC1,katritzky07
15803,724,propylene oxide,236.0,1.0,CC1CO1,katritzky07
15804,726,pyrimidine,304.0,1.0,c1cncnc1,katritzky07
15805,727,pyrrole,306.0,1.0,c1cc[nH]c1,katritzky07
15806,728,pyrrolidine,276.0,1.0,C1CCNC1,katritzky07
15807,729,s-butyl sulfide,312.0,1.0,CCC(C)SC(C)CC,katritzky07
15808,730,s-butylbenzene,325.0,1.0,CCC(C)c1ccccc1,katritzky07
15809,731,S-t-butyl thioacetate,306.0,1.0,CC(=O)SC(C)(C)C,katritzky07
15810,732,succinonitrile,405.0,1.0,N#CCCC#N,katritzky07
15811,733,t-butanol,284.0,1.0,CC(C)(C)O,katritzky07
15812,734,t-butyl acetoacetate,333.0,1.0,CC(=O)CC(=O)OC(C)(C)C,katritzky07
15813,735,t-butyl formate,264.0,1.0,CC(C)(C)OC=O,katritzky07
15814,736,t-butyl methyl sulfide,270.0,1.0,CSC(C)(C)C,katritzky07
15815,737,t-butyl nitrite,250.0,1.0,CC(C)(C)ON=O,katritzky07
15816,738,t-butyl propionate,293.0,1.0,CCC(=O)OC(C)(C)C,katritzky07
15817,739,t-butylamine,264.0,1.0,CC(C)(C)N,katritzky07
15818,740,t-butylbenzene,333.0,1.0,CC(C)(C)c1ccccc1,katritzky07
15819,741,t-butylcyclohexane,315.0,1.0,CC(C)(C)C1CCCCC1,katritzky07
15820,742,tetrachloroethylene,318.0,1.0,ClC(Cl)=C(Cl)Cl,katritzky07
15821,743,tetradecane,382.0,1.0,CCCCCCCCCCCCCC,katritzky07
15822,744,tetraethyltin,326.0,1.0,CC[Sn](CC)(CC)CC,katritzky07
15823,745,tetralin,350.0,1.0,c1ccc2c(c1)CCCC2,katritzky07
15824,746,thiacyclopentane,285.0,1.0,C1CCSC1,katritzky07
15825,747,thiophene,272.0,1.0,c1ccsc1,katritzky07
15826,748,tribenzylamine,476.0,1.0,c1ccc(CN(Cc2ccccc2)Cc2ccccc2)cc1,katritzky07
15827,749,tributylamine,345.0,1.0,CCCCN(CCCC)CCCC,katritzky07
15828,750,tridecane,375.0,1.0,CCCCCCCCCCCCC,katritzky07
15829,751,triethoxymethane,303.0,1.0,CCOC(OCC)OCC,katritzky07
15830,752,triethylamine,256.0,1.0,CCN(CC)CC,katritzky07
15831,753,triethylenetetramine,408.0,1.0,NCCNCCNCCN,katritzky07
15832,754,trimethoxymethane,288.0,1.0,COC(OC)OC,katritzky07
15833,755,trimethylphosphite,300.0,1.0,COP(OC)OC,katritzky07
15834,756,undecane,340.0,1.0,CCCCCCCCCCC,katritzky07
15835,757,undecylbenzene,417.0,1.0,CCCCCCCCCCCc1ccccc1,katritzky07