,compound,flashpoint,pure substance,smiles,source
7384,"1,4dimethylbenzene",298.0,1,Cc1ccc(C)cc1,le15
7385,"1,4dimethylcyclohexane",283.0,1,CC1CCC(C)CC1,le15
7386,"1,4dioxane",285.15,1,C1COCCO1,le15
7387,"1,4hexadiene",252.15,1,C=CCC=CC,le15
7388,"1,4pentadiene",277.0,1,C=CCC=C,le15
7389,"1,4thioxane",315.35,1,C1CSCCO1,le15
7390,"1,5cyclooctadiene",305.0,1,C1=CCCC=CCC1,le15
7391,"1,5dichloropentane",299.0,1,ClCCCCCCl,le15
7392,"1,5hexadiene",246.0,1,C=CCCC=C,le15
7393,"1,5pentanediamine",335.15,1,NCCCCCN,le15
7394,"1,5pentanediol",402.0,1,OCCCCCO,le15
7395,"1,5pentanedithiol",368.0,1,SCCCCCS,le15
7396,"1,6heptadiene",263.0,1,C=CCCCC=C,le15
7397,"1,6heptadiyne",282.0,1,C#CCCCC#C,le15
7398,"1,6hexanediamine",366.15,1,NCCCCCCN,le15
7399,"1,6hexanediol",420.0,1,OCCCCCCO,le15
7400,"1,7octadiene",282.0,1,C=CCCCCC=C,le15
7401,"1,7octadiyne",296.0,1,C#CCCCCC#C,le15
7402,"1,8nonadiene",299.0,1,C=CCCCCCC=C,le15
7403,"1,8nonadiyne",314.0,1,C#CCCCCCC#C,le15
7404,"1,9decadiene",316.15,1,C=CCCCCCCC=C,le15
7405,1amino2propanol,350.35,1,CC(O)CN,le15
7406,1bromo4methylBenzene,358.15,1,Cc1ccc(Br)cc1,le15
7407,1bromobutane,297.05,1,CCCCBr,le15
7408,1bromoheptane,333.75,1,CCCCCCCBr,le15
7409,1bromohexane,330.35,1,CCCCCCBr,le15
7410,1bromooctane,351.45,1,CCCCCCCCBr,le15
7411,1bromopentane,304.15,1,CCCCCBr,le15
7412,1bromopropane,298.15,1,CCCBr,le15
7413,1bromovinylTrimethylSilane,288.15,1,C=C(Br)[Si](C)(C)C,le15
7414,1butanethiol,274.85,1,CCCCS,le15
7415,1butanol,302.15,1,CCCCO,le15
7416,1butyne-,210.15,1,C#CCC,le15
7417,1chloro2methylBenzene,324.15,1,Cc1ccccc1Cl,le15
7418,1chloro4ethylbenzene,337.15,1,CCc1ccc(Cl)cc1,le15
7419,1chloro4methylBenzene,325.15,1,Cc1ccc(Cl)cc1,le15
7420,1chloroethyltrichlorosilane,288.15,1,CC(Cl)[Si](Cl)(Cl)Cl,le15
7421,1chlorohexane,308.15,1,CCCCCCCl,le15
7422,1chlorononamethylTetrasiloxane,347.15,1,C[Si](C)(C)O[Si](C)(C)O[Si](C)(C)O[Si](C)(C)Cl,le15
7423,1chlorooctane,343.15,1,CCCCCCCCCl,le15
7424,1decanol,355.15,1,CCCCCCCCCCO,le15
7425,1dodecanethiol,360.95,1,CCCCCCCCCCCCS,le15
7426,1ethenyl2ethylBenzene,331.15,1,C=Cc1ccccc1CC,le15
7427,1ethenyl3ethylBenzene,333.15,1,C=Cc1cccc(CC)c1,le15
7428,1ethenyl3methylBenzene,324.15,1,C=Cc1cccc(C)c1,le15
7429,1ethenyl4ethylBenzene,334.15,1,C=Cc1ccc(CC)cc1,le15
7430,1ethenyl4methylBenzene,319.15,1,C=Cc1ccc(C)cc1,le15
7431,1ethoxy2propanol,315.15,1,CCOCC(C)O,le15
7432,1ethyl2methylBenzene,312.15,1,CCc1ccccc1C,le15
7433,1ethyl3methylBenzene,311.15,1,CCc1cccc(C)c1,le15
7434,1ethyl4methylBenzene,309.15,1,CCc1ccc(C)cc1,le15
7435,1heptanamine,308.15,1,CCCCCCCN,le15
7436,1heptanethiol,314.15,1,CCCCCCCS,le15
7437,1heptanol,346.15,1,CCCCCCCO,le15
7438,1heptynylTrimethylSilane,315.15,1,CCCCCC#C[Si](C)(C)C,le15
7439,1hexanethiol,293.75,1,CCCCCCS,le15
7440,1hexanol,333.15,1,CCCCCCO,le15
7441,1hexenylTrichloroSilane,333.15,1,CCCCC=C[Si](Cl)(Cl)Cl,le15
7442,1Hindene,328.15,1,C1=Cc2ccccc2C1,le15
7443,1Hpyrazole,355.15,1,c1cn[nH]c1,le15
7444,1iodobutane,306.15,1,CCCCI,le15
7445,1iodoheptane,352.05,1,CCCCCCCI,le15
7446,1iodohexane,334.15,1,CCCCCCI,le15
7447,1isopropoxy2propanol,309.15,1,CC(O)COC(C)C,le15
7448,1methoxy2propaneamine,281.15,1,COCC(C)N,le15
7449,1methoxy2propanol,305.15,1,COCC(C)O,le15
7450,1methoxy2propanone,293.15,1,COCC(C)=O,le15
7451,1methoxy2propoxyTrimethylSilane,293.15,1,COCC(C)O[Si](C)(C)C,le15
7452,1methyl1Hindene,338.15,1,CC1C=Cc2ccccc21,le15
7453,1methyl2propylBenzene,326.15,1,CCCc1ccccc1C,le15
7454,1methyl3propylBenzene,325.15,1,CCCc1cccc(C)c1,le15
7455,1methylethylBenzene,304.15,1,CC(C)c1ccccc1,le15
7456,1methylpropylBenzene,325.15,1,CCC(C)c1ccccc1,le15
7457,1nitropropane,308.75,1,CCC[N+](=O)[O-],le15
7458,1nonanamine,335.15,1,CCCCCCCCCN,le15
7459,1nonanethiol,351.15,1,CCCCCCCCCS,le15
7460,1nonanol,348.15,1,CCCCCCCCCO,le15
7461,1nonyne,306.15,1,C#CCCCCCCC,le15
7462,1octanal,325.15,1,CCCCCCCC=O,le15
7463,1octanethiol,341.15,1,CCCCCCCCS,le15
7464,1octanol,354.15,1,CCCCCCCCO,le15
7465,1octyne-,259.15,1,C#CCCCCCC,le15
7466,1pentanethiol,291.45,1,CCCCCS,le15
7467,1pentanol,306.15,1,CCCCCO,le15
7468,1pentene3yne-,243.15,1,C=CC#CC,le15
7469,1pentene4yne-,229.15,1,C#CCC=C,le15
7470,1phenylheptane,368.15,1,CCCCCCCc1ccccc1,le15
7471,1phenylhexane,356.15,1,CCCCCCc1ccccc1,le15
7472,1phenyloctane,380.15,1,CCCCCCCCc1ccccc1,le15
7473,1piperazineEthanamine,366.15,1,NCCN1CCNCC1,le15
7474,1propanesulfonylchloride,353.15,1,CCCS(=O)(=O)Cl,le15
7475,1propanethiol,252.55,1,CCCS,le15
7476,1propanol,291.15,1,CCCO,le15
7477,1propoxy2propanol,321.15,1,CCCOCC(C)O,le15
7478,1propyne-,185.15,1,C#CC,le15
7479,1tertButyl4ethylBenzene,343.15,1,CCc1ccc(C(C)(C)C)cc1,le15
7480,1tetradecene,383.15,1,C=CCCCCCCCCCCCC,le15
7481,1trimethylsilylpropyne-,270.15,1,CC#C[Si](C)(C)C,le15
7482,1undecene,327.15,1,C=CCCCCCCCCC,le15
7483,"2,2dichloropropane",268.0,1,CC(C)(Cl)Cl,le15
7484,"2,2dimethyl1propanol",310.15,1,CC(C)(C)CO,le15
7485,"2,2dimethyl3ethylpentane",286.15,1,CCC(CC)C(C)(C)C,le15
7486,"2,2dimethylbutane",225.15,1,CCC(C)(C)C,le15
7487,"2,2dimethylpropane",208.0,1,CC(C)(C)C,le15
7488,"2,2dimethylpropanenitrile",277.0,1,CC(C)(C)C#N,le15
7489,"2,3butanediol",358.0,1,CC(O)C(C)O,le15
7490,"2,3butanedione",299.85,1,CC(=O)C(C)=O,le15
7491,"2,3dichloro1propanol",366.45,1,OCC(Cl)CCl,le15
7492,"2,3dihydro1Hindene",321.15,1,c1ccc2c(c1)CCC2,le15
7493,"2,3dihydro5methylfuran",261.0,1,CC1=CCCO1,le15
7494,"2,3dihydrofuran",249.0,1,C1=COCC1,le15
7495,"2,3dimethyl1butene",255.0,1,C=C(C)C(C)C,le15
7496,"2,3dimethyl2butene",257.0,1,CC(C)=C(C)C,le15
7497,"2,3dimethylaniline",370.15,1,Cc1cccc(N)c1C,le15
7498,"2,3dimethylbutane",244.15,1,CC(C)C(C)C,le15
7499,"2,3dimethylheptane",363.0,1,CCCCC(C)C(C)C,le15
7500,"2,3dimethylhexane",270.0,1,CCCC(C)C(C)C,le15
7501,"2,3dimethyloxirane",258.15,1,CC1OC1C,le15
7502,"2,3dimethylpentane",267.0,1,CCC(C)C(C)C,le15
7503,"2,3dimethylphenol",368.0,1,Cc1cccc(O)c1C,le15
7504,"2,3pentadiene-",236.15,1,CC=C=CC,le15
7505,"2,4dichlorophenol",387.05,1,Oc1ccc(Cl)cc1Cl,le15
7506,"2,4dimethyl3ethylpentane",288.15,1,CCC(C(C)C)C(C)C,le15
7507,"2,4dimethyl3pentanone",288.15,1,CC(C)C(=O)C(C)C,le15
7508,"2,4dimethylpentane",260.95,1,CC(C)CC(C)C,le15
7509,"2,4dimethylphenol",367.0,1,Cc1ccc(O)c(C)c1,le15
7510,"2,4dimethylpyridine",310.35,1,Cc1ccnc(C)c1,le15
7511,"2,4hexadiene-",266.15,1,CC=CC=CC,le15
7512,"2,4pentadienylTrimethylSilane",291.15,1,C=CC=CC[Si](C)(C)C,le15
7513,"2,4pentanedione",307.15,1,CC(=O)CC(C)=O,le15
7514,"2,5dihydrofuran-",257.15,1,C1=CCOC1,le15
7515,"2,5dimethoxychlorobenzene",390.35,1,COc1ccc(OC)c(Cl)c1,le15
7516,"2,5dimethylphenol",368.0,1,Cc1ccc(C)c(O)c1,le15
7517,"2,5hexanediol",383.15,1,CC(O)CCC(C)O,le15
7518,"2,5hexanedione",352.15,1,CC(=O)CCC(C)=O,le15
7519,"2,5norbornadiene",262.0,1,C1=CC2C=CC1C2,le15
7520,"2,6dimethyl4heptanol",339.15,1,CC(C)CC(O)CC(C)C,le15
7521,"2,6dimethyl4heptanone",322.15,1,CC(C)CC(=O)CC(C)C,le15
7522,"2,6dimethylphenol",346.0,1,Cc1cccc(C)c1O,le15
7523,2amino2methyl1propanol,340.35,1,CC(C)(N)CO,le15
7524,2bromoethyltrichlorosilane,313.15,1,Cl[Si](Cl)(Cl)CCBr,le15
7525,2bromovinylTrimethylSilane,288.15,1,C[Si](C)(C)C=CBr,le15
7526,2butanol,297.15,1,CCC(C)O,le15
7527,2butanone,264.15,1,CCC(C)=O,le15
7528,2butoxyethylacetate,344.15,1,CCCCOCCOC(C)=O,le15
7529,2butyl1octanol,383.15,1,CCCCCCC(CO)CCCC,le15
7530,2butyne-,224.15,1,CC#CC,le15
7531,2chloro1propanol,324.85,1,CC(Cl)CO,le15
7532,2chloro1propene-,239.15,1,C=C(C)Cl,le15
7533,2chlorobenzenamine,364.15,1,Nc1ccccc1Cl,le15
7534,2chlorobutane,258.15,1,CCC(C)Cl,le15
7535,2chloroethanol,333.15,1,OCCCl,le15
7536,2chloroethylacetate,339.25,1,CC(=O)OCCCl,le15
7537,2chloroethyltrichlorosilane,301.15,1,ClCC[Si](Cl)(Cl)Cl,le15
7538,2chloromethyl3trimethylsilyl1propene,316.15,1,C=C(CCl)C[Si](C)(C)C,le15
7539,2chloropropionicAcid,380.35,1,CC(Cl)C(=O)O,le15
7540,2chlorotoluene,316.0,1,Cc1ccccc1Cl,le15
7541,2cyanoethylMethylDichloroSilane,333.15,1,C[Si](Cl)(Cl)CCC#N,le15
7542,2cyanoethylTriethoxySilane,359.15,1,CCO[Si](CCC#N)(OCC)OCC,le15
7543,2cyclohexen1one,307.15,1,O=C1C=CCCC1,le15
7544,2decene,320.15,1,CC=CCCCCCCC,le15
7545,2dodecene,351.15,1,CC=CCCCCCCCCC,le15
7546,2ethoxyethanol,316.45,1,CCOCCO,le15
7547,2ethoxyethylacetate,320.35,1,CCOCCOC(C)=O,le15
7548,2ethyl1butanol,330.15,1,CCC(CC)CO,le15
7549,2ethyl1hexanol,346.15,1,CCCCC(CC)CO,le15
7550,2ethyl1pentene-,263.15,1,C=C(CC)CCC,le15
7551,2ethyl2hexenal,341.15,1,CCCC=C(C=O)CC,le15
7552,2ethylbenzenamine,364.15,1,CCc1ccccc1N,le15
7553,2ethylhexanal,317.15,1,CCCCC(C=O)CC,le15
7554,2ethylhexylacetate,344.15,1,CCCCC(CC)COC(C)=O,le15
7555,2ethylhexylacrylate,359.0,1,C=CC(=O)OCC(CC)CCCC,le15
7556,2fluoro2methylpropane,260.95,1,CC(C)(C)F,le15
7557,2furancarboxaldehyde,333.15,1,O=Cc1ccco1,le15
7558,2heptanone,320.15,1,CCCCCC(C)=O,le15
7559,2hexanol,330.95,1,CCCCC(C)O,le15
7560,2hexanone,308.15,1,CCCCC(C)=O,le15
7561,2hydroxy3butenenitrile,366.15,1,C=CC(O)C#N,le15
7562,2iodobutane,301.15,1,CCC(C)I,le15
7563,2iodotoluene,363.15,1,Cc1ccccc1I,le15
7564,2isopropylbiphenyl,413.75,1,CC(C)c1ccccc1-c1ccccc1,le15
7565,2methoxy1propanol,309.15,1,COC(C)CO,le15
7566,2methoxyethanol,312.15,1,COCCO,le15
7567,2methoxyethylacetate,322.15,1,COCCOC(C)=O,le15
7568,2methyl1butene3yne-,221.15,1,C#CC(=C)C,le15
7569,2methyl1hexanol,333.15,1,CCCCC(C)CO,le15
7570,2methyl1Hindene,344.15,1,CC1=Cc2ccccc2C1,le15
7571,2methyl1propanethiol-,264.15,1,CC(C)CS,le15
7572,2methyl2pentenal,304.15,1,CCC=C(C)C=O,le15
7573,2methyl2propen1ol,306.45,1,C=C(C)CO,le15
7574,2methyl2propenoicAcid,340.15,1,C=C(C)C(=O)O,le15
7575,2methylallylchloride,261.15,1,C=C(C)CCl,le15
7576,2methylaminoEthanol,347.05,1,CNCCO,le15
7577,2methylaziridine-,263.15,1,CC1CN1,le15
7578,2methylbenzaldehyde,340.15,1,Cc1ccccc1C=O,le15
7579,2methylbenzenamine,358.15,1,Cc1ccccc1N,le15
7580,2methylbenzofuran,340.15,1,Cc1cc2ccccc2o1,le15
7581,2methylbutylAmine-,257.15,1,CCC(C)CN,le15
7582,2methylpropylBenzene,325.15,1,CC(C)Cc1ccccc1,le15
7583,2methylpyridine,299.15,1,Cc1ccccn1,le15
7584,2methyltetrahydrofuran,262.05,1,CC1CCCO1,le15
7585,2methylvalericacid,364.25,1,CCCC(C)C(=O)O,le15
7586,2naphthol,426.15,1,Oc1ccc2ccccc2c1,le15
7587,2nitrobiphenyl,452.15,1,O=[N+]([O-])c1ccccc1-c1ccccc1,le15
7588,2nitropropane,297.15,1,CC(C)[N+](=O)[O-],le15
7589,2nonanol,355.15,1,CCCCCCCC(C)O,le15
7590,2nonanone,333.15,1,CCCCCCCC(C)=O,le15
7591,2octanol,360.95,1,CCCCCCC(C)O,le15
7592,2octanone,335.15,1,CCCCCCC(C)=O,le15
7593,2oxolan2yloxolane,362.15,1,C1COC(C2CCCO2)C1,le15
7594,2pentaneamine,266.45,1,CCCC(C)N,le15
7595,2pentanone,280.35,1,CCCC(C)=O,le15
7596,2pentene-,226.15,1,CC=CCC,le15
7597,2phenoxyethanol,394.25,1,OCCOc1ccccc1,le15
7598,2phenylethanol,375.15,1,OCCc1ccccc1,le15
7599,2phenylphenol,397.05,1,Oc1ccccc1-c1ccccc1,le15
7600,2propanol,285.15,1,CC(C)O,le15
7601,2propenal,254.25,1,C=CC=O,le15
7602,2propenenitrile,273.15,1,C=CC#N,le15
7603,2propenylAcetate,295.15,1,CC=CCC(=O)[O-],le15
7604,"3,3dimethyl1butene",245.0,1,C=CC(C)(C)C,le15
7605,"3,3dimethyl2butanone",285.15,1,CC(=O)C(C)(C)C,le15
7606,"3,3dimethylbutanoicacid",361.0,1,CC(C)(C)CC(=O)O,le15
7607,"3,4dichloro1butene",301.15,1,C=CC(Cl)CCl,le15
7608,"3,4dihydro2Hpyran",255.15,1,C1=COCCC1,le15
7609,3amino1propanol,352.15,1,NCCCO,le15
7610,3bromo1trimethylsilyl1propyne,335.15,1,C[Si](C)(C)C#CCBr,le15
7611,3bromopropyltrichlorosilane,361.15,1,Cl[Si](Cl)(Cl)CCCBr,le15
7612,3bromopropylTrimethoxySilane,355.15,1,CO[Si](CCCBr)(OC)OC,le15
7613,3buten1ol,310.95,1,C=CCCO,le15
7614,3butenenitrile,294.15,1,C=CCC#N,le15
7615,3chloro1propene-,241.15,1,C=CCCl,le15
7616,3chloro2methylpropylMethylDichloroSilane,363.15,1,CC(CCl)C[Si](C)(Cl)Cl,le15
7617,3chloropropylDimethylChloroSilane,313.15,1,C[Si](C)(Cl)CCCCl,le15
7618,3chloropropylMethylDichloroSilane,359.15,1,C[Si](Cl)(Cl)CCCCl,le15
7619,3chloropropylMethylDimethoxySilane,318.15,1,CO[Si](C)(CCCCl)OC,le15
7620,3chloropropylTriethoxySilane,335.15,1,CCO[Si](CCCCl)(OCC)OCC,le15
7621,3chloropropylTrimethoxySilane,351.15,1,CO[Si](CCCCl)(OC)OC,le15
7622,3ethoxypropionaldehyde,311.15,1,CCOCCC=O,le15
7623,3ethoxypropionicacid,380.35,1,CCOCCC(=O)O,le15
7624,3ethyl1heptanol,363.15,1,CCCCC(CC)CCO,le15
7625,3ethyl1hexene,274.15,1,C=CC(CC)CCC,le15
7626,3ethyl1pentene-,256.15,1,C=CC(CC)CC,le15
7627,3ethyl4methylhexane,297.15,1,CCC(C)C(CC)CC,le15
7628,3ethylheptanal,328.15,1,CCCCC(CC)CC=O,le15
7629,3ethylheptane,295.15,1,CCCCC(CC)CC,le15
7630,3heptanone,310.15,1,CCCCC(=O)CC,le15
7631,3hexyne-,256.15,1,CCC#CCC,le15
7632,3iodotoluene,355.35,1,Cc1cccc(I)c1,le15
7633,3isopropoxypropionitrile,341.45,1,CC(C)OCCC#N,le15
7634,3methacryloxyPropylTrimethoxySilane,365.15,1,C=C(C)C(=O)OCCC[Si](OC)(OC)OC,le15
7635,3methoxypropylamine,305.35,1,COCCCN,le15
7636,3methyl1butyne-,221.15,1,C#CC(C)C,le15
7637,3methyl1hexene-,267.15,1,C=CC(C)CCC,le15
7638,3methyl3buten2one,294.15,1,C=C(C)C(C)=O,le15
7639,3methyl3pentanol,297.15,1,CCC(C)(O)CC,le15
7640,3methylbenzaldehyde,351.15,1,Cc1cccc(C=O)c1,le15
7641,3methylbenzenamine,359.15,1,Cc1cccc(N)c1,le15
7642,3methylbutanal-,268.15,1,CC(C)CC=O,le15
7643,3methylbutylAcetate,298.15,1,CC(=O)OCCC(C)C,le15
7644,3methylthiophene,284.15,1,Cc1ccsc1,le15
7645,3methylthioPropionaldehyde,334.25,1,CCCC=S,le15
7646,3nonanone,339.15,1,CCCCCCC(=O)CC,le15
7647,3pyridinecarbonitrile,357.15,1,N#Cc1cccnc1,le15
7648,3trimethylsilylCyclopentene,299.15,1,C[Si](C)(C)C1C=CCC1,le15
7649,4bromobiphenyl,417.05,1,Brc1ccc(-c2ccccc2)cc1,le15
7650,4butylalcohol,284.15,1,CCCCO,le15
7651,4chlorophenylisocyanate,383.15,1,O=C=Nc1ccc(Cl)cc1,le15
7652,4ethylphenol,377.05,1,CCc1ccc(O)cc1,le15
7653,4heptanone,322.15,1,CCCC(=O)CCC,le15
7654,4hydroxy4methyl2pentanone,331.15,1,CC(=O)CC(C)(C)O,le15
7655,4methyl1heptene,275.15,1,C=CCC(C)CCC,le15
7656,4methyl1hexene-,258.15,1,C=CCC(C)CC,le15
7657,4methyl1octanol,358.15,1,CCCCC(C)CCCO,le15
7658,4methyl2pentanone,291.15,1,CC(=O)CC(C)C,le15
7659,4methyl2pentene-,238.15,1,CC=CC(C)C,le15
7660,4methyl3penten2one,304.15,1,CC(=O)C=C(C)C,le15
7661,4methylbenzaldehyde,353.15,1,Cc1ccc(C=O)cc1,le15
7662,4methylbenzenamine,360.15,1,Cc1ccc(N)cc1,le15
7663,4methylcyclohexanol,343.15,1,CC1CCC(O)CC1,le15
7664,4methylene2oxetanone,307.15,1,C=C1CC(=O)O1,le15
7665,4methylmorpholine,297.05,1,CN1CCOCC1,le15
7666,4nonanone,335.15,1,CCCCCC(=O)CCC,le15
7667,4octanone,318.15,1,CCCCC(=O)CCC,le15
7668,4tertButyl2methylphenol,390.95,1,Cc1cc(C(C)(C)C)ccc1O,le15
7669,4vinyl1cyclohexene,289.25,1,C=CC1CC=CCC1,le15
7670,5hexen2one,296.15,1,C=CCCC(C)=O,le15
7671,5methyl2hexanone,309.15,1,CC(=O)CCC(C)C,le15
7672,6methyl1octanol,360.15,1,CCC(C)CCCCCO,le15
7673,6methyl3heptanone,318.15,1,CCC(=O)CCC(C)C,le15
7674,7methyl1octene,291.15,1,C=CCCCCC(C)C,le15
7675,8methyl1nonene,316.15,1,C=CCCCCCC(C)C,le15
7676,Acetaldehyde,246.15,1,CC=O,le15
7677,Acetanilide,446.15,1,CC(=O)Nc1ccccc1,le15
7678,Aceticacid,312.15,1,CC(=O)O,le15
7679,Acetone,253.15,1,CC(C)=O,le15
7680,Acetophenone,350.15,1,CC(=O)c1ccccc1,le15
7681,AcetoxymethylTrimethylSilane,293.15,1,CC(=O)OC[Si](C)(C)C,le15
7682,AcetoxyTrimethylSilane,277.15,1,CC(=O)O[Si](C)(C)C,le15
7683,Acetylchloride,277.15,1,CC(=O)Cl,le15
7684,Acrylicacid,327.15,1,C=CC(=O)O,le15
7685,AdipicAcid,469.15,1,O=C(O)CCCCC(=O)O,le15
7686,Allylalcohol,294.15,1,C=CCO,le15
7687,Allylamine,244.15,1,C=CCN,le15
7688,Allylchloride,241.15,1,C=CCCl,le15
7689,AllylChloromethylDimethylSilane,300.15,1,C=CC[Si](C)(C)CCl,le15
7690,AllylDimethylChloroSilane,278.15,1,C=CC[Si](C)(C)Cl,le15
7691,AllylDimethylSilane-,253.15,1,C=CC[SiH](C)C,le15
7692,AllylIsothiocyanate,319.25,1,C=CCN=C=S,le15
7693,AllylMethylDichloroSilane,300.15,1,C=CCC[SiH](Cl)Cl,le15
7694,AllyloxytrimethylSilane,273.15,1,C=CCO[Si](C)(C)C,le15
7695,AllylPhenylDichloroSilane,349.15,1,C=CC[Si](Cl)(Cl)c1ccccc1,le15
7696,AllylTrichloroSilane,304.15,1,C=CC[Si](Cl)(Cl)Cl,le15
7697,AllylTriethoxySilane,320.15,1,C=CC[Si](OCC)(OCC)OCC,le15
7698,AllylTrimethoxySilane,319.15,1,C=CC[Si](OC)(OC)OC,le15
7699,AllylTrimethylSilane,280.15,1,C=CC[Si](C)(C)C,le15
7700,alphaMethylstyrene,327.05,1,C=C(C)c1ccccc1,le15
7701,AminoethylAminopropylTrimethoxySilane,369.15,1,CO[Si](CCCNCCN)(OC)OC,le15
7702,Aniline,343.15,1,Nc1ccccc1,le15
7703,Anthracene,394.15,1,c1ccc2cc3ccccc3cc2c1,le15
7704,Anthraquinone,458.15,1,O=C1c2ccccc2C(=O)c2ccccc21,le15
7705,Aziridine,262.05,1,C1CN1,le15
7706,Benzaldehyde,336.15,1,O=Cc1ccccc1,le15
7707,Benzene,262.15,1,c1ccccc1,le15
7708,BenzoicAcid,394.15,1,O=C(O)c1ccccc1,le15
7709,Benzonitrile,344.85,1,N#Cc1ccccc1,le15
7710,Benzoylchloride,345.15,1,O=C(Cl)c1ccccc1,le15
7711,Benzylacetate,363.75,1,O=C([O-])CCc1ccccc1,le15
7712,Benzylbenzoate,421.15,1,O=C(OCc1ccccc1)c1ccccc1,le15
7713,Benzylchloride,340.15,1,ClCc1ccccc1,le15
7714,BenzylDimethylChloroSilane,346.15,1,C[Si](C)(Cl)Cc1ccccc1,le15
7715,BenzylDimethylSilane,338.15,1,C[SiH](C)Cc1ccccc1,le15
7716,BenzylTrichloroSilane,360.15,1,Cl[Si](Cl)(Cl)Cc1ccccc1,le15
7717,BenzylTrimethylSilane,335.15,1,C[Si](C)(C)Cc1ccccc1,le15
7718,Bicyclohexyl,365.0,1,C1CCC(C2CCCCC2)CC1,le15
7719,BischloromethylDimethylSilane,319.15,1,C[Si](C)(CCl)CCl,le15
7720,bisChloromethylMethylChloroSilane,315.15,1,C[Si](Cl)(CCl)CCl,le15
7721,BisDiethylaminoDimethylSilane,308.15,1,CCN(CC)[Si](C)(C)N(CC)CC,le15
7722,BisDimethylaminoDimethylSilane-,266.15,1,CN(C)[Si](C)(C)N(C)C,le15
7723,BisDimethylaminoMethylSilane-,270.15,1,CN(C)C([SiH3])N(C)C,le15
7724,BistrimethylsilylCarbodiimide,315.15,1,C[Si](C)(C)N=C=N[Si](C)(C)C,le15
7725,BisTrimethylsilylMethane,285.15,1,C[Si](C)(C)C[Si](C)(C)C,le15
7726,Bromobenzene,324.15,1,Brc1ccccc1,le15
7727,Bromomethyldimethylchlorosilane,314.15,1,C[Si](C)(Cl)CBr,le15
7728,BromomethylTrimethylSilane,289.15,1,C[Si](C)(C)CBr,le15
7729,Bromopentafluorobenzene,360.15,1,Fc1c(F)c(F)c(Br)c(F)c1F,le15
7730,Butylacetate,297.15,1,CCCCOC(C)=O,le15
7731,Butylacrylate,312.0,1,C=CC(=O)OCCCC,le15
7732,Butylamine,272.15,1,CCCCN,le15
7733,Butylchloride,263.75,1,CCCCCl,le15
7734,ButylDimethylAmine-,270.15,1,CCCCN(C)C,le15
7735,Butylethylether,277.55,1,CCCCOCC,le15
7736,Butylformate,291.15,1,CCCCOC=O,le15
7737,ButylIsocyanate,299.85,1,CCCCN=C=O,le15
7738,ButylIsothiocyanate,338.75,1,CCCCN=C=S,le15
7739,ButylIsovalerate,326.15,1,CCCCOC(=O)CC(C)C,le15
7740,butylnitrate,309.25,1,CCCCO[N+](=O)[O-],le15
7741,Butylpropionate,305.15,1,CCCCOC(=O)CC,le15
7742,Butyraldehyde,266.45,1,CCCC=O,le15
7743,Butyricacid,350.15,1,CCCC(=O)O,le15
7744,Butyronitrile,289.85,1,CCCC#N,le15
7745,Chlorobenzene,302.15,1,Clc1ccccc1,le15
7746,Chlorocyclohexane,305.15,1,ClC1CCCCC1,le15
7747,ChloromethylBenzene,333.15,1,ClCc1ccccc1,le15
7748,ChloromethylDimethylchlorosilane,294.15,1,C[Si](C)(Cl)CCl,le15
7749,ChloromethylDimethylEthoxySilane,299.15,1,CCO[Si](C)(C)CCl,le15
7750,ChloromethylDimethylPhenylSilane,326.15,1,C[Si](C)(CCl)c1ccccc1,le15
7751,Chloromethylmethyldichlorosilane,293.15,1,C[Si](Cl)(Cl)CCl,le15
7752,ChloromethylMethylDiethoxySilane,311.15,1,CCO[Si](C)(CCl)OCC,le15
7753,ChloromethylTriethoxySilane,320.15,1,CCO[Si](CCl)(OCC)OCC,le15
7754,ChloromethylTrimethoxySilane,299.15,1,CO[Si](CCl)(OC)OC,le15
7755,ChloromethylTrimethylSilane-,271.15,1,C[Si](C)(C)CCl,le15
7756,cisDecalin,331.15,1,C1CC[C@H]2CCCC[C@H]2C1,le15
7757,Crotonaldehyde,286.15,1,C/C=C/C=O,le15
7758,Cumene,309.15,1,CC(C)c1ccccc1,le15
7759,Cyclohexane,253.15,1,C1CCCCC1,le15
7760,Cyclohexanol,341.15,1,OC1CCCCC1,le15
7761,Cyclohexanone,317.15,1,O=C1CCCCC1,le15
7762,Cyclohexyl ,488.05,1,[CH]1CCCCC1,le15
7763,CyclohexylAcetate,331.15,1,O=C([O-])CC1CCCCC1,le15
7764,CyclohexylBenzene,372.15,1,c1ccc(C2CCCCC2)cc1,le15
7765,CyclohexylDimethylSilane,336.15,1,C[SiH](C)C1CCCCC1,le15
7766,CyclohexylIsocyanate,322.05,1,O=C=NC1CCCCC1,le15
7767,CyclohexylMethylDichloroSilane,339.15,1,Cl[SiH](Cl)CC1CCCCC1,le15
7768,CyclohexylMethylDimethoxySilane,339.15,1,CO[SiH](CC1CCCCC1)OC,le15
7769,CyclohexylTrichloroSilane,364.15,1,Cl[Si](Cl)(Cl)C1CCCCC1,le15
7770,CyclopentadienylTrimethylSilane,302.15,1,C[Si](C)(C)C1C=CC=C1,le15
7771,Cyclopentane,236.15,1,C1CCCC1,le15
7772,Cyclopentanol,324.15,1,OC1CCCC1,le15
7773,Cyclopentanone,299.15,1,O=C1CCCC1,le15
7774,CyclopentenyloxyTrimethylSilane,311.15,1,C[Si](C)(C)OC1=CCCC1,le15
7775,CyclopentylDichloroSilane,316.15,1,Cl[SiH](Cl)C1CCCC1,le15
7776,CyclopentylTrichloroSilane,350.15,1,Cl[Si](Cl)(Cl)C1CCCC1,le15