,compound,flashpoint,pure substance,smiles,source
6196,"Aniline, p-((p-nitrophenyl)thio)- (6CI,7CI,8CI)",516.65,1,Nc1ccc(Sc2ccc([N+](=O)[O-])cc2)cc1,le15
6197,"Phosphorothioic acid, S-(2-(ethylsulfinyl)ethyl) O,O-dimethyl ester",455.35,1,CCS(=O)CCSP(=O)(OC)OC,le15
6198,"6H-Pyrido(4,3-b)carbazole, 5,11-dimethyl-",500.25,1,Cc1c2ccncc2c(C)c2c1[nH]c1ccccc12,le15
6199,"1,4-Butanediol, dimethanesulfonate",507.55,1,CS(=O)(=O)OCCCCOS(C)(=O)=O,le15
6200,1-methyl-4-(4-methylphenyl)sulfonylbenzene,506.15,1,Cc1ccc(S(=O)(=O)c2ccc(C)cc2)cc1,le15
6201,"1,3-Propanediol, 2-butyl-2-ethyl-, dicarbamate",489.75,1,CCCCC(CC)(COC(N)=O)COC(N)=O,le15
6202,"Phosphonodithioic acid, ethyl-, O-ethyl S-phenyl ester",422.65,1,CCOP(=S)(CC)Sc1ccccc1,le15
6203,"Phosphonodithioic acid, methyl-, O-phenyl S-propyl ester",422.65,1,CCCSP(C)(=S)Oc1ccccc1,le15
6204,Benzyl disulfide (8CI),422.15,1,c1ccc(CSSCc2ccccc2)cc1,le15
6205,"Benzene, 1,1'-(1,2-ethanediylbis(thio))bis-",457.75,1,c1ccc(SCCSc2ccccc2)cc1,le15
6206,"Silane, trimethoxy(2-(7-oxabicyclo(4.1.0)hept-3-yl)ethyl)-",362.85,1,CO[Si](CCC1CCC2OC2C1)(OC)OC,le15
6207,"Benzene, 1,3,5-tris(1,1-dimethylethyl)-",372.25,1,CC(C)(C)c1cc(C(C)(C)C)cc(C(C)(C)C)c1,le15
6208,"Dodecane, 1-phenyl- (8CI)",413.75,1,CCCCCCCCCCCCc1ccccc1,le15
6209,"4-chloro-3,5-dinitrobenzoic acid",482.55,1,O=C(O)c1cc([N+](=O)[O-])c(Cl)c([N+](=O)[O-])c1,le15
6210,triethyl(triethylsilyloxy)silane,350.15,1,CC[Si](CC)(CC)O[Si](CC)(CC)CC,le15
6211,"1-bromo-2,3,4,5,6-pentafluorobenzene",360.95,1,Fc1c(F)c(F)c(Br)c(F)c1F,le15
6212,"Phosphoric acid, dimethyl-4-nitrophenyl ester (9CI)",417.45,1,Cc1c(OP(=O)([O-])[O-])ccc([N+](=O)[O-])c1C,le15
6213,"Pyrene, 2-nitro-",503.45,1,O=[N+]([O-])c1cc2ccc3cccc4ccc(c1)c2c34,le15
6214,"Pyrene, 1-nitro-",496.65,1,O=[N+]([O-])c1ccc2ccc3cccc4ccc1c2c34,le15
6215,"4-Piperidinecarboxylic acid, 1-methyl-4-phenyl-, ethyl ester",384.75,1,CCOC(=O)C1(c2ccccc2)CCN(C)CC1,le15
6216,"1,2,4-Thiadiazole, 5-ethoxy-3-(trichloromethyl)-",380.95,1,CCOc1nc(C(Cl)(Cl)Cl)ns1,le15
6217,"1,4-Benzenediol, 2,3,5,6-tetrachloro-",400.05,1,Oc1c(Cl)c(Cl)c(O)c(Cl)c1Cl,le15
6218,"3,4,5,6-Tetrachloro-1,2-benzenediol  (9CI)",413.85,1,Oc1c(O)c(Cl)c(Cl)c(Cl)c1Cl,le15
6219,"2-Furanacetamide, alpha-((5-nitro-2-furanyl)methylene)- (9CI)",504.95,1,NC(=O)C(=Cc1ccc([N+](=O)[O-])o1)c1ccco1,le15
6220,"Phosphonic acid, methyl-, diphenyl ester",383.15,1,CP(=O)(Oc1ccccc1)Oc1ccccc1,le15
6221,"Phosphorothioic acid, O,O-diethyl O-pyrazinyl ester",412.65,1,CCOP(=S)(OCC)Oc1cnccn1,le15
6222,"2-Naphthalenol, 1-(2-phenyldiazenyl)-",563.346,1,Oc1ccc2ccccc2c1N=Nc1ccccc1,le15
6223,"Acetamide, N-(2-(6-hydroxy-5-methoxy-1H-indol-3-yl)ethyl)- (9CI)",568.45,1,COc1cc2c(CCNC(C)=O)c[nH]c2cc1O,le15
6224,"Benzenamine, 4,4'-sulfonylbis-",536.35,1,Nc1ccc(S(=O)(=O)c2ccc(N)cc2)cc1,le15
6225,"2-Propenoic acid, 2-methyl-, 3-(trimethoxysilyl)propyl ester",365.15,1,C=C(C)C(=O)OCCC[Si](OC)(OC)OC,le15
6226,"Pyrimidine, 2,4-diamino-5-(p-chlorophenyl)-6-ethyl-",524.15,1,CCc1nc(N)nc(N)c1-c1ccc(Cl)cc1,le15
6227,1-iodo-4-nitrobenzene,373.15,1,O=[N+]([O-])c1ccc(I)cc1,le15
6228,1-iodo-2-nitrobenzene,396.05,1,O=[N+]([O-])c1ccccc1I,le15
6229,"Benzene, 1-iodo-3-nitro-",344.85,1,O=[N+]([O-])c1cccc(I)c1,le15
6230,"Urea, N'-(3,4-dichlorophenyl)-N-methoxy-N-methyl-",284.15,1,CON(C)C(=O)Nc1ccc(Cl)c(Cl)c1,le15
6231,"Ether, p-bromophenyl phenyl (8CI)",391.55,1,Brc1ccc(Oc2ccccc2)cc1,le15
6232,"1-Triazene-1-carbothioamide, 3-(3,4-dichlorophenyl)- (9CI)",442.25,1,NC(=S)N=NNc1ccc(Cl)c(Cl)c1,le15
6233,1-bromododecane,383.15,1,CCCCCCCCCCCCBr,le15
6234,"Carbamic acid, methyl-, o-(4,7-dihydro-1,3-dioxepin-2-yl)phenyl ester",442.75,1,CNC(=O)Oc1ccccc1C1OCC=CCO1,le15
6235,"1,3,5-Triazine-2,4,6(1H,3H,5H)-trione, 1,3,5-tri-2-propenyl-",426.55,1,C=CCn1c(=O)n(CC=C)c(=O)n(CC=C)c1=O,le15
6236,"1,3,5-Triazine, hexahydro-1,3,5-tris(1-oxo-2-propenyl)-",574.15,1,C=CC(=O)N1CN(C(=O)C=C)CN(C(=O)C=C)C1,le15
6237,"Benzenesulfonamide, 4-amino-N-2-pyridinyl-",513.35,1,Nc1ccc(S(=O)(=O)Nc2ccccn2)cc1,le15
6238,"Carbamic acid, acetylmethyl-, 3-(1,1-dimethylethyl)phenyl ester",434.25,1,CC(=O)CNC(=O)Oc1cccc(C(C)(C)C)c1,le15
6239,"1,4-dibromo-2-methylbenzene",381.05,1,Cc1cc(Br)ccc1Br,le15
6240,"2,2,3,4,4,4-Hexafluorobutyl methacrylate",329.15,1,C=C(C)C(=O)OCC(F)(F)C(F)C(F)(F)F,le15
6241,"Phthalamide, N,N'-dimethyl-N,N'-dinitroso- (8CI)",459.75,1,CN(N=O)C(=O)c1ccccc1C(=O)N(C)N=O,le15
6242,"Isocyanic acid, methylenedi-p-phenylene ester",427.15,1,O=C=Nc1ccc(Cc2ccc(N=C=O)cc2)cc1,le15
6243,"Phenol, 4,4'-sulfonylbis-",532.55,1,O=S(=O)(c1ccc(O)cc1)c1ccc(O)cc1,le15
6244,"4(3H)-Quinazolinone, 2-methyl-3-(2-methylphenyl)-",473.05,1,Cc1ccccc1-n1c(C)nc2ccccc2c1=O,le15
6245,"2-Propenoic acid, 3-(4-methoxyphenyl)-, 2-ethoxyethyl ester",437.95,1,CCOCCOC(=O)C=Cc1ccc(OC)cc1,le15
6246,"Propanedioic acid, (phenylmethyl)-, diethyl ester",427.85,1,CCOC(=O)C(Cc1ccccc1)C(=O)OCC,le15
6247,"1-Butanol, 1,1',1''-phosphinidynetri- (9CI)",394.25,1,CCCC(O)P(C(O)CCC)C(O)CCC,le15
6248,"Benzoic acid, 3,5-bis(1,1-dimethylethyl)-4-hydroxy-",447.15,1,CC(C)(C)c1cc(C(=O)O)cc(C(C)(C)C)c1O,le15
6249,"Benzoic acid, p-(octyloxy)- (8CI)",406.25,1,CCCCCCCCOc1ccc(C(=O)O)cc1,le15
6250,"3,6,9,12,15-Pentaoxaheptadecane",384.95,1,CCOCCOCCOCCOCCOCC,le15
6251,2-[2-[2-(2-butoxyethoxy)ethoxy]ethoxy]ethanol,429.35,1,CCCCOCCOCCOCCOCCO,le15
6252,"1,4-Benzenediol, 2,5-bis(1,1-dimethylpropyl)-",435.85,1,CCC(C)(C)c1cc(O)c(C(C)(C)CC)cc1O,le15
6253,(9Z)-cycloheptadec-9-en-1-one,430.25,1,O=C1CCCCCCC/C=C\CCCCCCC1,le15
6254,"Fluoranthene, 3-(chloromethyl)-",474.35,1,ClCc1ccc2c3c(cccc13)-c1ccccc1-2,le15
6255,"Pyrene, 1-(chloromethyl)-",474.35,1,ClCc1ccc2ccc3cccc4ccc1c2c34,le15
6256,"1,1,1,3,3,3-hexachloropropane",353.25,1,ClC(Cl)(Cl)CC(Cl)(Cl)Cl,le15
6257,"1,1,2,2,3,3-Hexachloropropane",366.85,1,ClC(Cl)C(Cl)(Cl)C(Cl)Cl,le15
6258,"2,6-Dibromoaniline",387.75,1,Nc1c(Br)cccc1Br,le15
6259,"Benzene, 1,1'-ethylidenebis(4-chloro-",416.75,1,CC(c1ccc(Cl)cc1)c1ccc(Cl)cc1,le15
6260,Ethyl 2-bromooctanoate,385.25,1,CCCCCCC(Br)C(=O)OCC,le15
6261,"Adenosine, 3'-deoxy-",606.25,1,Nc1ncnc2c1ncn2[C@@H]1O[C@H](CO)C[C@H]1O,le15
6262,"Adenosine, 2'-deoxy-",606.25,1,Nc1ncnc2c1ncn2[C@H]1C[C@H](O)[C@@H](CO)O1,le15
6263,"3-Butynal, 2,4-diphenyl-2-hydroxy-, oxime",578.65,1,ON=CC(O)(C#Cc1ccccc1)c1ccccc1,le15
6264,"2,5-Pyridinedicarboxylic acid, dipropyl ester",444.45,1,CCCOC(=O)c1ccc(C(=O)OCCC)nc1,le15
6265,"Pyridine, 2,3,4,5,6-pentachloro-",424.65,1,Clc1nc(Cl)c(Cl)c(Cl)c1Cl,le15
6266,"4(3H)-Quinazolinone, 2-methyl-3-(3-methyl-2-pyridinyl)-",488.45,1,Cc1cccnc1-n1c(C)nc2ccccc2c1=O,le15
6267,"3,5-Pyridinedicarboxylic acid, diisopropyl ester",421.15,1,CC(C)OC(=O)c1cncc(C(=O)OC(C)C)c1,le15
6268,"Chalcone, 4-(dimethylamino)- (8CI)",434.45,1,CN(C)c1ccc(C=CC(=O)c2ccccc2)cc1,le15
6269,"2,8,9-Trioxa-5-aza-1-silabicyclo(3.3.3)undecane, 1-phenyl-",398.75,1,c1ccc([Si]23OCCN(CCO2)CCO3)cc1,le15
6270,heptadecanenitrile,410.65,1,CCCCCCCCCCCCCCCCC#N,le15
6271,"Phenol, 2,4-dibromo-",374.35,1,Oc1ccc(Br)cc1Br,le15
6272,"3,5-dibromophenol",395.15,1,Oc1cc(Br)cc(Br)c1,le15
6273,"2,6-dibromophenol",355.666,1,Oc1c(Br)cccc1Br,le15
6274,"Hexanedinitrile, octafluoro- (8CI,9CI)",306.95,1,N#CC(F)(F)C(F)(F)C(F)(F)C(F)(F)C#N,le15
6275,"p-Cresol, alpha,alpha,alpha-trifluoro-2,6-dinitro-",364.45,1,O=[N+]([O-])c1cc(C(F)(F)F)cc([N+](=O)[O-])c1O,le15
6276,"Benzo(1,2-c:3,4-c':5,6-c'')tris(1,2,5)oxadiazole, 1,4,7-trioxide",592.95,1,[O-][n+]1onc2c1c1no[n+]([O-])c1c1no[n+]([O-])c21,le15
6277,"trimethyl benzene-1,2,4-tricarboxylate",413.55,1,COC(=O)c1ccc(C(=O)OC)c(C(=O)OC)c1,le15
6278,"9,10-Anthracenedione, 1-amino-4-(methylamino)-",550.25,1,CNc1ccc(N)c2c1C(=O)c1ccccc1C2=O,le15
6279,"3,5-Pyrazolidinedione, 1,2-diphenyl-",440.35,1,O=C1CC(=O)N(c2ccccc2)N1c1ccccc1,le15
6280,Benzo(def)chrysene,501.75,1,c1ccc2c(c1)cc1ccc3cccc4ccc2c1c34,le15
6281,Perylene,501.75,1,c1cc2cccc3c4cccc5cccc(c(c1)c23)c54,le15
6282,Benz(j)aceanthrylene,520.25,1,C1=Cc2c3ccc4ccccc4c3cc3cccc1c23,le15
6283,Benzo(j)fluoranthene,501.75,1,c1ccc2c3c(ccc2c1)-c1cccc2cccc-3c12,le15
6284,Benzo(k)fluoranthene,501.75,1,c1ccc2cc3c(cc2c1)-c1cccc2cccc-3c12,le15
6285,Benz(j)acephenanthrylene,520.25,1,C1=Cc2cc3c4ccccc4ccc3c3cccc1c23,le15
6286,Benz(a)aceanthrylene,501.75,1,c1ccc2c(c1)-c1cccc3cc4ccccc4c-2c13,le15
6287,"2-Propenoic acid, 3-phenyl-, 2-phenylethyl ester",527.35,1,O=C(C=Cc1ccccc1)OCCc1ccccc1,le15
6288,"Piperazine, 1-(diphenylmethyl)-",413.65,1,c1ccc(C(c2ccccc2)N2CCNCC2)cc1,le15
6289,"Oxacycloheptadec-8-en-2-one, (8Z)-",441.35,1,O=C1CCCCC/C=C\CCCCCCCCO1,le15
6290,dodecylcyclohexane,420.25,1,CCCCCCCCCCCCC1CCCCC1,le15
6291,tridecylcyclopentane,418.35,1,CCCCCCCCCCCCCC1CCCC1,le15
6292,1octadecene,421.0,1,C=CCCCCCCCCCCCCCCCC,le15
6293,"Phosphorothioic acid, S-(4-chlorophenyl) O,O-dimethyl ester",418.65,1,COP(=O)(OC)Sc1ccc(Cl)cc1,le15
6294,Bromoform,356.0,1,BrC(Br)Br,le15
6295,"9,10-Anthracenedione, 1-amino-4-methoxy- (9CI)",548.05,1,COc1ccc(N)c2c1C(=O)c1ccccc1C2=O,le15
6296,"2-Propen-1-one, 3-(4-nitrophenyl)-1-phenyl-",459.65,1,O=C(C=Cc1ccc([N+](=O)[O-])cc1)c1ccccc1,le15
6297,"Chalcone, 2-nitro- (8CI)",478.65,1,O=C(C=Cc1ccccc1[N+](=O)[O-])c1ccccc1,le15
6298,"2-Propen-1-one, 1-(4-nitrophenyl)-3-phenyl- (9CI)",488.05,1,O=C(C=Cc1ccccc1)c1ccc([N+](=O)[O-])cc1,le15
6299,"Pteridine, 2,4,7-triamino-6-phenyl-",608.65,1,Nc1nc(N)c2nc(-c3ccccc3)c(N)nc2n1,le15
6300,"Acenaphtho(1,2-b)quinoline",488.35,1,c1ccc2nc3c(cc2c1)-c1cccc2cccc-3c12,le15
6301,"Benzenesulfonamide, 4-amino-N-(5-methyl-3-isoxazolyl)-",518.55,1,Cc1cc(NS(=O)(=O)c2ccc(N)cc2)no1,le15
6302,"Benzenemethanol, 2,5-dimethoxy-alpha-(1-((1-methylethyl)amino)ethyl)-",458.45,1,COc1ccc(OC)c(C(O)C(C)NC(C)C)c1,le15
6303,"Butanoic acid, 4-(1-piperidinyl)cyclohexyl ester (9CI)",379.85,1,CCCC(=O)OC1CCC(N2CCCCC2)CC1,le15
6304,"Propanoic acid, 2-methyl-, 4-(1-piperidinyl)cyclohexyl ester (9CI)",377.25,1,CC(C)C(=O)OC1CCC(N2CCCCC2)CC1,le15
6305,"Disulfide, butyl 1,2,2-trichloroethyl",380.95,1,CCCCSSC(Cl)C(Cl)Cl,le15
6306,"Benzimidazole, 2,5-bis(trifluoromethyl)-",390.25,1,FC(F)(F)c1ccc2nc(C(F)(F)F)[nH]c2c1,le15
6307,"Isoflavone, 4',7-dihydroxy- (8CI)",474.35,1,O=c1c(-c2ccc(O)cc2)coc2cc(O)ccc12,le15
6308,"Hydrazinecarboxaldehyde, 2-(4-(5-nitro-2-furanyl)-2-thiazolyl)-",502.05,1,O=CNNc1nc(-c2ccc([N+](=O)[O-])o2)cs1,le15
6309,"9,10-Anthracenedione, 1,3-dihydroxy-2-methyl-",559.75,1,Cc1c(O)cc2c(c1O)C(=O)c1ccccc1C2=O,le15
6310,"9,10-Anthracenedione, 1,8-dihydroxy-3-methyl- (9CI)",537.05,1,Cc1cc(O)c2c(c1)C(=O)c1cccc(O)c1C2=O,le15
6311,"9,10-Anthracenedione, 1,4-dihydroxy-2-methyl- (9CI)",539.85,1,Cc1cc(O)c2c(c1O)C(=O)c1ccccc1C2=O,le15
6312,"bis(2-hydroxyethyl) benzene-1,4-dicarboxylate",445.15,1,O=C(OCCO)c1ccc(C(=O)OCCO)cc1,le15
6313,6H-Benzo(cd)pyren-6-one,503.75,1,O=c1c2cccc3ccc4ccc5cccc1c5c4c32,le15
6314,"Benzoin, acetate (8CI)",440.35,1,CC(=O)O.O=C(c1ccccc1)C(O)c1ccccc1,le15
6315,"Phosphoric acid, diethyl 3-(ethylthio)-1-propenyl ester (9CI)",558.65,1,CCOP(=O)(OC=CCSCC)OCC,le15
6316,9-phenylanthracene,465.25,1,c1ccc(-c2c3ccccc3cc3ccccc23)cc1,le15
6317,"Benzene, 2-methoxy-1-(phenylmethoxy)-4-(1-propenyl)-",425.25,1,CC=Cc1ccc(OCc2ccccc2)c(OC)c1,le15
6318,1-nonylnaphthalene,465.75,1,CCCCCCCCCc1cccc2ccccc12,le15
6319,Oxacycloheptadecan-2-one,422.75,1,O=C1CCCCCCCCCCCCCCCO1,le15
6320,"2-Propenoic acid, tridecyl ester",391.15,1,C=CC(=O)OCCCCCCCCCCCCC,le15
6321,heptadecan-9-one,356.75,1,CCCCCCCCC(=O)CCCCCCCC,le15
6322,heptadecan-2-one,353.75,1,CCCCCCCCCCCCCCCC(C)=O,le15
6323,2-methylheptadecane,382.05,1,CCCCCCCCCCCCCCCC(C)C,le15
6324,"Benzimidazole, 4,7-dichloro-2-(trifluoromethyl)-",427.95,1,FC(F)(F)c1nc2c(Cl)ccc(Cl)c2[nH]1,le15
6325,"Benzimidazole, 4,5-dichloro-2-(trifluoromethyl)-",431.25,1,FC(F)(F)c1nc2ccc(Cl)c(Cl)c2[nH]1,le15
6326,"Benzoic acid, 2-(((3-methylphenyl)amino)carbonyl)-",451.35,1,Cc1cccc(NC(=O)c2ccccc2C(=O)O)c1,le15
6327,"Benzene, 1-methoxy-4-(2-(4-nitrophenyl)ethenyl)-, (E)-",439.75,1,COc1ccc(/C=C/c2ccc([N+](=O)[O-])cc2)cc1,le15
6328,"Ethanol, 2,2'-((4-(methylamino)-3-nitrophenyl)imino)bis-",532.85,1,CNc1ccc(N(CCO)CCO)cc1[N+](=O)[O-],le15
6329,9-phenylacridine,452.95,1,c1ccc(-c2c3ccccc3nc3ccccc23)cc1,le15
6330,"2,5-Dimethoxy-4-aminostilbene",517.45,1,COc1cc(C=Cc2ccccc2)c(OC)cc1N,le15
6331,"Aniline, N,N-dimethyl-p-(4-methoxyphenylazo)-",475.15,1,COc1ccc(N=Nc2ccc(N(C)C)cc2)cc1,le15
6332,"Ethanamine, 2-(diphenylmethoxy)-N,N-dimethyl-",374.65,1,CN(C)CCOC(c1ccccc1)c1ccccc1,le15
6333,"Acetic acid, (2,4,5-trichlorophenoxy)-",454.55,1,O=C(O)COc1cc(Cl)c(Cl)cc1Cl,le15
6334,"Benzoic acid, 2,3,5-trichloro-6-methoxy- (9CI)",440.65,1,COc1c(Cl)cc(Cl)c(Cl)c1C(=O)O,le15
6335,"Dodecanamide, N,N-diethyl-",387.45,1,CCCCCCCCCCCC(=O)N(CC)CC,le15
6336,heptadecan-1-amine,419.35,1,CCCCCCCCCCCCCCCCCN,le15
6337,"Carbamic acid, acetylmethyl-, 2-chloro-4,5-dimethylphenyl ester",453.85,1,CC(=O)CNC(=O)Oc1cc(C)c(C)cc1Cl,le15
6338,"9,10-Anthracenedione, 1,2,4-trihydroxy- (9CI)",386.15,1,O=C1c2ccccc2C(=O)c2c(O)c(O)cc(O)c21,le15
6339,"9H-Fluorene, 2,7-dinitro- (9CI)",503.05,1,O=[N+]([O-])c1ccc2c(c1)Cc1cc([N+](=O)[O-])ccc1-2,le15
6340,"Acetic acid, ((diethoxyphosphinothioyl)oxy)-, ethyl ester (9CI)",395.85,1,CCOC(=O)COP(=S)(OCC)OCC,le15
6341,"Benzeneacetic acid, (4-methoxyphenyl)methyl ester",430.35,1,COc1ccc(COC(=O)Cc2ccccc2)cc1,le15
6342,"Benz(a)anthracene, 7,12-dimethyl-",327.55,1,Cc1c2ccccc2c(C)c2c1ccc1ccccc12,le15
6343,"Benz(a)anthracene, 7-ethyl-",496.75,1,CCc1c2ccccc2cc2c1ccc1ccccc12,le15
6344,"1,2-diphenylethenylbenzene",438.15,1,C(=C(c1ccccc1)c1ccccc1)c1ccccc1,le15
6345,"1,6-Dioxacycloheptadecan-17-one",447.55,1,O=C1CCCCCCCCCCOCCCCO1,le15
6346,"1,7-Dioxacycloheptadecan-17-one",447.55,1,O=C1CCCCCCCCCOCCCCCO1,le15
6347,"Myristic acid, ethyl ester (8CI)",386.15,1,CCCCCCCCCCCCCC(=O)OCC,le15
6348,"Hexanoic acid, 2-ethyl-, 2-ethylhexyl ester",410.25,1,CCCCC(CC)COC(=O)C(CC)CCCC,le15
6349,octyl octanoate,412.95,1,CCCCCCCCOC(=O)CCCCCCC,le15
6350,"1,3-Indandione, 2-(p-chlorophenyl)-",456.55,1,O=C1c2ccccc2C(=O)C1c1ccc(Cl)cc1,le15
6351,"Acetic acid, ((4-chloro-o-tolyl)oxy)-, butyl ester",397.95,1,CCCCOC(=O)COc1cc(Cl)ccc1C,le15
6352,"1H-Pyrrole, 3-chloro-4-(3-chloro-2-nitrophenyl)-",475.25,1,O=[N+]([O-])c1c(Cl)cccc1-c1c[nH]cc1Cl,le15
6353,"1,6-Dinitrocarbazole",551.85,1,O=[N+]([O-])c1ccc2[nH]c3c([N+](=O)[O-])cccc3c2c1,le15
6354,"3,6-Dinitro-9H-carbazole",551.85,1,O=[N+]([O-])c1ccc2[nH]c3ccc([N+](=O)[O-])cc3c2c1,le15
6355,"Phenol, 3,5-dimethyl-4-(methylsulfonyl)-, methylcarbamate (9CI)",482.65,1,CNC(=O)Oc1cc(C)c(S(C)(=O)=O)c(C)c1,le15
6356,"Benz(c)acridine, 7,9-dimethyl-",481.85,1,Cc1ccc2nc3c(ccc4ccccc43)c(C)c2c1,le15
6357,"Benz(c)acridine, 7,10-dimethyl-",482.95,1,Cc1ccc2c(C)c3ccc4ccccc4c3nc2c1,le15
6358,"Phosphonic acid, (2,2,2-trichloro-1-hydroxyethyl)-, dimethyl ester",389.85,1,COP(=O)(OC)C(O)C(Cl)(Cl)Cl,le15
6359,"Phenol, 3,4,5-trichloro-2,6-dimethoxy-",430.85,1,COc1c(O)c(OC)c(Cl)c(Cl)c1Cl,le15
6360,"Acetamide, N-chloro-N-9H-fluoren-2-yl-",481.15,1,CC(=O)N(Cl)c1ccc2c(c1)Cc1ccccc1-2,le15
6361,"Acetic acid, (4-chlorophenoxy)-, 2-(dimethylamino)ethyl ester (9CI)",436.15,1,CN(C)CCOC(=O)COc1ccc(Cl)cc1,le15
6362,"1,3,5-Triazine-2,4-diamine, 6-chloro-N,N,N',N'-tetraethyl- (9CI)",461.45,1,CCN(CC)c1nc(Cl)nc(N(CC)CC)n1,le15
6363,"Malealdehydic acid, dibromo- (8CI)",421.55,1,O=C/C(Br)=C(/Br)C(=O)O,le15
6364,"Thiophene, tetrahydro-3,3,4,4-tetrachloro-, 1,1-dioxide",468.25,1,O=S1(=O)CC(Cl)(Cl)C(Cl)(Cl)C1,le15
6365,"1,7-dibromoheptane",405.95,1,BrCCCCCCCBr,le15
6366,"Benzimidazole, 4,5,6,7-tetrafluoro-2-(trifluoromethyl)-",389.95,1,Fc1c(F)c(F)c2[nH]c(C(F)(F)F)nc2c1F,le15
6367,"Carbamic acid, (3-chlorophenyl)-, 4-chloro-2-butynyl ester (9CI)",433.05,1,O=C(Nc1cccc(Cl)c1)OCC#CCCl,le15
6368,S-Dichlorovinyl-N-acetylcysteine,516.35,1,CC(=O)N[C@@H](CSC=C(Cl)Cl)C(=O)O,le15
6369,"Xanthen-9-one, 1,7-dihydroxy-3-methoxy-",478.35,1,COc1cc(O)c2c(=O)c3cc(O)ccc3oc2c1,le15
6370,"9H-Xanthen-9-one, 1,3-dihydroxy-7-methoxy- (9CI)",478.15,1,COc1ccc2oc3cc(O)cc(O)c3c(=O)c2c1,le15
6371,"1H-Isoindole-1,3(2H)-dione, 2-(2,6-dioxo-3-piperidinyl)-",535.25,1,O=C1CCC(N2C(=O)c3ccccc3C2=O)C(=O)N1,le15
6372,"Chrysene-1,2-quinone",490.35,1,O=C1C=Cc2c(ccc3c2ccc2ccccc23)C1=O,le15
6373,"Benz(a)anthracene-7,12-quinone",448.65,1,O=C1c2ccccc2C(=O)c2c1ccc1ccccc21,le15
6374,"1-Naphthalenebutanoic acid, 4-methoxy-gamma-oxo-",469.75,1,COc1ccc(C(=O)CCC(=O)O)c2ccccc12,le15
6375,"Azoxybenzene, 4,4'-dimethoxy- (8CI)",479.75,1,COc1ccc(N=[N+]([O-])c2ccc(OC)cc2)cc1,le15
6376,phenyl-(4-phenylphenyl)methanone,463.85,1,O=C(c1ccccc1)c1ccc(-c2ccccc2)cc1,le15
6377,"Benz(a)anthracene, 5,6-epoxy-5,6-dihydro-7-methyl-",492.25,1,Cc1c2c(cc3ccccc13)-c1ccccc1C1OC21,le15
6378,"2-Benzofurancarboxamide, 5-(1-piperidinylmethyl)- (9CI)",495.35,1,NC(=O)c1cc2cc(CN3CCCCC3)ccc2o1,le15
6379,"Propionic acid, 2,2'-azobis(2-methyl-, diethyl ester",386.05,1,CCOC(=O)C(C)(C)N=NC(C)(C)C(=O)OCC,le15
6380,"Phosphorothioic acid, O,O-diethyl S-(2-(ethylthio)ethyl) ester",420.75,1,CCOP(=O)(OCC)SCCSCC,le15
6381,"1,2-diphenylethylbenzene",430.05,1,c1ccc(CC(c2ccccc2)c2ccccc2)cc1,le15
6382,"2,6-Octadien-1-ol, 3,7-dimethyl-, benzoate, (2E)-",426.55,1,CC(C)=CCC/C(C)=C/COC(=O)c1ccccc1,le15
6383,"1,6-Octadien-3-ol, 3,7-dimethyl-, benzoate",431.85,1,C=CC(C)(CCC=C(C)C)OC(=O)c1ccccc1,le15
6384,"Hexanedioic acid, 1,6-bis(2-methylpropyl) ester",395.75,1,CC(C)COC(=O)CCCCC(=O)OCC(C)C,le15
6385,"1,2-Propanediol, 1-laurate",412.45,1,CCCCCCCCCCCC(=O)OCC(C)O,le15
6386,1-octylsulfanyloctane,445.35,1,CCCCCCCCSCCCCCCCC,le15
6387,hexadecane-1-thiol,374.85,1,CCCCCCCCCCCCCCCCS,le15
6388,"Benzoic acid, 2-(acetyloxy)-5-bromo- (9CI)",449.75,1,CC(=O)Oc1ccc(Br)cc1C(=O)O,le15
6389,"Ethanone, 2-bromo-1-(2,5-dimethoxyphenyl)-",422.35,1,COc1ccc(OC)c(C(=O)CBr)c1,le15
6390,4-nitro-N-(4-nitrophenyl)aniline,507.55,1,O=[N+]([O-])c1ccc(Nc2ccc([N+](=O)[O-])cc2)cc1,le15
6391,"Furo(2,3-b)quinoline, 4,6,8-trimethoxy-",481.55,1,COc1cc(OC)c2nc3occc3c(OC)c2c1,le15
6392,"Benzene, 1-chloro-3-(2-(4-nitrophenyl)ethenyl)-, (E)-",455.55,1,O=[N+]([O-])c1ccc(/C=C/c2cccc(Cl)c2)cc1,le15
6393,"Benzenemethanamine, N-(2-chloroethyl)-N-(phenylmethyl)-",420.45,1,ClCCN(Cc1ccccc1)Cc1ccccc1,le15
6394,"Propionic acid, 2,3-dibromo-, ethyl ester (6CI,7CI,8CI)",364.15,1,CCOC(=O)C(Br)CBr,le15
6395,"Fumaric acid, dihydroxy-, dimethyl ester, diacetate",413.25,1,CC(=O)O.CC(=O)O.COC(=O)/C(O)=C(\O)C(=O)OC,le15
6396,"4-Hydroxy-3,5-dinitrobiphenyl",420.05,1,O=[N+]([O-])c1cc(-c2ccccc2)cc([N+](=O)[O-])c1O,le15
6397,"5H-Furo(3,2-g)(1)benzopyran-5-one, 4,9-dimethoxy-7-methyl-",491.95,1,COc1c2occc2c(OC)c2c(=O)cc(C)oc12,le15
6398,"p-Benzoquinone, 2,5-diphenyl- (8CI)",443.65,1,O=C1C=C(c2ccccc2)C(=O)C=C1c1ccccc1,le15
6399,"1,2,3-Propanetriol, tripropanoate",393.95,1,CCC(=O)OCC(COC(=O)CC)OC(=O)CC,le15
6400,"2,4-Pyrimidinediamine, 5-((3,4-dimethoxyphenyl)methyl)-",533.05,1,COc1ccc(Cc2cnc(N)nc2N)cc1OC,le15
6401,triphenylmethanol,441.85,1,OC(c1ccccc1)(c1ccccc1)c1ccccc1,le15
6402,"Phosphorothioic acid, O,O-diethyl S-((ethylsulfinyl)methyl) ester",453.45,1,CCOP(=O)(OCC)SCS(=O)CC,le15
6403,"alpha-Phenyl(1,1'-biphenyl)-4-methanol",453.75,1,OC(c1ccccc1)c1ccc(-c2ccccc2)cc1,le15
6404,"1,4-Benzenediamine, N,N'-diphenyl-",570.15,1,c1ccc(Nc2ccc(Nc3ccccc3)cc2)cc1,le15
6405,"(1,1':4',1''-Terphenyl)-4,4''-diamine",569.45,1,Nc1ccc(-c2ccc(-c3ccc(N)cc3)cc2)cc1,le15
6406,"1-Oxa-3,8-diazaspiro(4,5)decan-2-one, 8-(2-phenylethyl)- (9CI)",513.75,1,O=C1NCC2(CCN(CCc3ccccc3)CC2)O1,le15
6407,"Phosphonodithioic acid, ethyl-, O-ethyl S-(4-methylphenyl) ester (9CI)",435.75,1,CCOP(=S)(CC)Sc1ccc(C)cc1,le15
6408,"Phosphonodithioic acid, ethyl-, O-ethyl S-(o-tolyl) ester",428.55,1,CCOP(=S)(CC)Sc1ccccc1C,le15
6409,"Phosphorodithioic acid, O,O-diethyl S-(ethylthio)methyl ester",405.95,1,CCOP(=S)(OCC)SCSCC,le15
6410,"Fluorene-9-carboxylic acid, 2-chloro-9-hydroxy- (8CI)",543.95,1,O=C(O)C1(O)c2ccccc2-c2ccc(Cl)cc21,le15
6411,"1,3-Butadiene, 1,1,2,3,4,4-hexachloro-",365.35,1,ClC(Cl)=C(Cl)C(Cl)=C(Cl)Cl,le15
6412,"Benzene, 1,2,4,5-tetrachloro-3-nitro-",416.25,1,O=[N+]([O-])c1c(Cl)c(Cl)cc(Cl)c1Cl,le15
6413,1-chlorohexadecane,411.25,1,CCCCCCCCCCCCCCCCCl,le15
6414,"1-(bromomethyl)-2,3,4,5,6-pentafluorobenzene",355.15,1,Fc1c(F)c(F)c(CBr)c(F)c1F,le15