,compound,flashpoint,pure substance,smiles,source
9079,"2-Propenoic acid, 3-phenyl-, 2-propenyl ester",436.65,1.0,C=CCOC(=O)C=Cc1ccccc1,le15
9080,"3H-Pyrazol-3-one, 1,2-dihydro-1,5-dimethyl-2-phenyl-",387.95,1.0,Cc1cc(=O)n(-c2ccccc2)n1C,le15
9081,"3H-Pyrazol-3-one, 2,4-dihydro-5-methyl-2-(4-methylphenyl)-",447.75,1.0,CC1=NN(c2ccc(C)cc2)C(=O)C1,le15
9082,Nonanedioic acid,465.25,1.0,O=C(O)CCCCCCCC(=O)O,le15
9083,diethyl pentanedioate,369.25,1.0,CCOC(=O)CCCC(=O)OCC,le15
9084,"diethyl 2,2-dimethylpropanedioate",344.25,1.0,CCOC(=O)C(C)(C)C(=O)OCC,le15
9085,"Malonic acid, ethyl-, diethyl ester (8CI)",361.15,1.0,CCOC(=O)C(CC)C(=O)OCC,le15
9086,diethyl 2-methylbutanedioate,370.45,1.0,CCOC(=O)CC(C)C(=O)OCC,le15
9087,DiethylGlutarate,369.0,1.0,CCOC(=O)CCCC(=O)OCC,le15
9088,phenyl(thiophen-2-yl)methanone,412.85,1.0,O=C(c1ccccc1)c1cccs1,le15
9089,"Propanenitrile, 3-(ethyl(3-methylphenyl)amino)-",418.25,1.0,CCN(CCC#N)c1cccc(C)c1,le15
9090,"Propanenitrile, 3-(trichlorosilyl)-",358.35,1.0,N#CCC[Si](Cl)(Cl)Cl,le15
9091,"Phenol, 2-amino-6-chloro-4-nitro-",443.95,1.0,Nc1cc([N+](=O)[O-])cc(Cl)c1O,le15
9092,"Propanedinitrile, ((2-chlorophenyl)methylene)-",421.15,1.0,N#CC(C#N)=Cc1ccccc1Cl,le15
9093,"Phosphorochloridothioic acid, O,O-diethyl ester",348.95,1.0,CCOP(=S)(Cl)OCC,le15
9094,"1,1'-Biphenyl, 2-chloro- (9CI)",389.05,1.0,Clc1ccccc1-c1ccccc1,le15
9095,"1,1'-Biphenyl, 3-chloro-",402.65,1.0,Clc1cccc(-c2ccccc2)c1,le15
9096,"1,1'-Biphenyl, 4-chloro- (9CI)",400.15,1.0,Clc1ccc(-c2ccccc2)cc1,le15
9097,"1,4-Benzenediol, 2-bromo-",395.25,1.0,Oc1ccc(O)c(Br)c1,le15
9098,Chloro(phenyl)acetyl chloride,377.55,1.0,O=C(Cl)C(Cl)c1ccccc1,le15
9099,"Acetophenone, 2',4'-dichloro- (8CI)",374.05,1.0,CC(=O)c1ccc(Cl)cc1Cl,le15
9100,"Thiophene, 3,4-dichlorotetrahydro-, 1,1-dioxide (8CI)(9CI)",469.15,1.0,O=S1(=O)CC(Cl)C(Cl)C1,le15
9101,4-bromobenzenethiol,366.85,1.0,Sc1ccc(Br)cc1,le15
9102,"2-Naphthalenol, 1-nitro- (9CI)",417.45,1.0,O=[N+]([O-])c1c(O)ccc2ccccc12,le15
9103,"Quinaldic acid, 4-hydroxy- (8CI)",443.65,1.0,O=C(O)c1cc(O)c2ccccc2n1,le15
9104,"Glutamic acid, N-acetyl- (6CI,7CI)",526.8499999999998,1.0,CC(=O)N[C@@H](CCC(=O)O)C(=O)O,le15
9105,3-(Indol-3-yl)propionic acid,284.85,1.0,O=C(O)CCc1c[nH]c2ccccc12,le15
9106,"Benzeneacetic acid, alpha-cyano-, ethyl ester",410.65,1.0,CCOC(=O)C(C#N)c1ccccc1,le15
9107,"1,3,5-Triazin-2(1H)-one, tetrahydro-1,3-bis(hydroxymethyl)-5-ethyl-",444.55,1.0,CCN1CN(CO)C(=O)N(CO)C1,le15
9108,phenyl(piperidin-1-yl)methanone,418.15,1.0,O=C(c1ccccc1)N1CCCCC1,le15
9109,"Acetamide, N,N-dibutyl-2-fluoro-",391.45,1.0,CCCCN(CCCC)C(=O)CF,le15
9110,"L-Alanine, 3-((3-methyl-2-butenyl)thio)-",425.75,1.0,CC(C)=CCSC[C@H](N)C(=O)O,le15
9111,"2,2-diethoxy-N,N-diethylethanamine",338.15,1.0,CCOC(CN(CC)CC)OCC,le15
9112,"1,2-Ethanediamine, N-(2-aminoethyl)-N'-(2-((2-aminoethyl)amino)ethyl)-",458.15,1.0,NCCNCCNCCNCCN,le15
9113,"Benzamide, 2,6-dichloro-",388.15,1.0,NC(=O)c1c(Cl)cccc1Cl,le15
9114,3-(trifluoromethyl)benzoic acid,376.05,1.0,O=C(O)c1cccc(C(F)(F)F)c1,le15
9115,"1,4-Naphthalenedione, 5,8-dihydroxy- (9CI)",542.3499999999998,1.0,O=C1C=CC(=O)c2c(O)ccc(O)c21,le15
9116,"2H-1-Benzopyran-3-carboxylic acid, 2-oxo-",435.85,1.0,O=C(O)c1cc2ccccc2oc1=O,le15
9117,"Quinoline, 4-nitro-, 1-oxide",461.35,1.0,O=[N+]([O-])c1cc[n+]([O-])c2ccccc12,le15
9118,"8-Quinolinol, 5-nitro-",480.35,1.0,O=[N+]([O-])c1ccc(O)c2ncccc12,le15
9119,"3-Buten-2-one, 4-(3,4-(methylenedioxy)phenyl)- (6CI,7CI,8CI)",420.75,1.0,CC(=O)C=Cc1ccc2c(c1)OCO2,le15
9120,Ethyl2-benzofurancarboxylate,392.65,1.0,CCOC(=O)c1cc2ccccc2o1,le15
9121,2-(2-acetyloxyethoxy)ethyl acetate,383.15,1.0,CC(=O)OCCOCCOC(C)=O,le15
9122,"1,4-Phthalazinedione, 2,3-dihydro-, dihydrazone (9CI)",619.05,1.0,NN=c1[nH][nH]c(=NN)c2ccccc12,le15
9123,"1-Penten-3-one, 1-(4-methoxyphenyl)- (9CI)",424.65,1.0,CCC(=O)C=Cc1ccc(OC)cc1,le15
9124,"2-Propenoic acid, 2-methyl-, 2-phenylethyl ester",430.65,1.0,C=C(C)C(=O)OCCc1ccccc1,le15
9125,"2-Buten-1-ol, 3-methyl-, benzoate",398.25,1.0,CC(C)=CCOC(=O)c1ccccc1,le15
9126,"2-Propenoic acid, 3-phenyl-, propyl ester",429.25,1.0,CCCOC(=O)C=Cc1ccccc1,le15
9127,Dipropylene glycol monomethylether acetate,364.65,1.0,COC(C)COC(C)COC(C)=O,le15
9128,"3-Pyrazolidinone, 4,4-dimethyl-1-phenyl-",468.15,1.0,CC1(C)CN(c2ccccc2)NC1=O,le15
9129,"Benzenepropanal, alpha-methyl-4-(1-methylethyl)-",389.85,1.0,CC(C=O)Cc1ccc(C(C)C)cc1,le15
9130,"Phenol, 2-cyclohexyl-4-methyl-",389.85,1.0,Cc1ccc(O)c(C2CCCCC2)c1,le15
9131,"1-Heptanone, 1-phenyl-",384.35,1.0,CCCCCCC(=O)c1ccccc1,le15
9132,"Ethanol, 2-(2-(hexyloxy)ethoxy)-",413.15,1.0,CCCCCCOCCOCCO,le15
9133,1-(dipropoxymethoxy)propane,345.15,1.0,CCCOC(OCCC)OCCC,le15
9134,2-[di(propan-2-yloxy)methoxy]propane,315.15,1.0,CC(C)OC(OC(C)C)OC(C)C,le15
9135,"1,4-ditert-butylbenzene",370.05,1.0,CC(C)(C)c1ccc(C(C)(C)C)cc1,le15
9136,"Ethanol, 2-(octylthio)-",350.15,1.0,CCCCCCCCSCCO,le15
9137,1-chloro-2-iodoethane,310.25,1.0,ClCCI,le15
9138,naphthalene-2-carbonyl chloride,414.35,1.0,O=C(Cl)c1ccc2ccccc2c1,le15
9139,decanoyl chloride,379.25,1.0,CCCCCCCCCC(=O)Cl,le15
9140,"Benzoic acid, 2,6-dichloro-",407.65,1.0,O=C(O)c1c(Cl)cccc1Cl,le15
9141,"Benzoic acid, 2,3-dichloro-",412.55,1.0,O=C(O)c1cccc(Cl)c1Cl,le15
9142,"Benzoic acid, 2,5-dichloro-",408.95,1.0,O=C(O)c1cc(Cl)ccc1Cl,le15
9143,"Benzoic acid, 2,4-dichloro-",414.15,1.0,O=C(O)c1ccc(Cl)cc1Cl,le15
9144,"Benzoic acid, 3,4-dichloro-",419.15,1.0,O=C(O)c1ccc(Cl)c(Cl)c1,le15
9145,"Salicylaldehyde, 3,5-dichloro- (8CI)",370.05,1.0,O=Cc1cc(Cl)cc(Cl)c1O,le15
9146,"Benzoic acid, 3,5-dichloro-",413.85,1.0,O=C(O)c1cc(Cl)cc(Cl)c1,le15
9147,"2,4-dichloro-1-ethoxybenzene",354.04999999999984,1.0,CCOc1ccc(Cl)cc1Cl,le15
9148,"Toluene, alpha,alpha,alpha-trifluoro-m-nitro- (8CI)",360.15,1.0,O=[N+]([O-])c1cccc(C(F)(F)F)c1,le15
9149,"2-Nitro-alpha,alpha,alpha-trifluorotoluene",368.75,1.0,O=[N+]([O-])c1ccccc1C(F)(F)F,le15
9150,2-bromoethylcyclohexane,354.75,1.0,BrCCC1CCCCC1,le15
9151,"Glycine, N,N-bis(carboxymethyl)-",528.25,1.0,O=C(O)CN(CC(=O)O)CC(=O)O,le15
9152,"1H-Indole-3-acetic acid, 5-hydroxy-",527.55,1.0,O=C(O)Cc1c[nH]c2ccc(O)cc12,le15
9153,"Butanamide, N-(2-methylphenyl)-3-oxo-",416.15,1.0,CC(=O)CC(=O)Nc1ccccc1C,le15
9154,"6-methyl-7,8-dihydro-5H-[1,3]dioxolo[4,5-g]isoquinoline",396.15,1.0,CN1CCc2cc3c(cc2C1)OCO3,le15
9155,"2-Propenamide, N-(2-hydroxyethyl)-3-phenyl-",492.65,1.0,O=C(C=Cc1ccccc1)NCCO,le15
9156,"Pyridine, 3-(1-nitroso-2-piperidinyl)-, (S)- (9CI)",456.95,1.0,O=NN1CCCC[C@H]1c1cccnc1,le15
9157,"Imidodicarbonimidic diamide, N-(2-methylphenyl)-",475.75,1.0,Cc1ccccc1NC(=N)NC(=N)N,le15
9158,N-butyl-N-phenylacetamide,414.15,1.0,CCCCN(C(C)=O)c1ccccc1,le15
9159,"Benzamide, N,N-diethyl-3-methyl-",428.15,1.0,CCN(CC)C(=O)c1cccc(C)c1,le15
9160,"Benzeneacetamide, N,N-diethyl- (9CI)",407.45,1.0,CCN(CC)C(=O)Cc1ccccc1,le15
9161,"Benzamide, N,N-diethyl-2-methyl-",412.95,1.0,CCN(CC)C(=O)c1ccccc1C,le15
9162,"Benzamide, N,N-diethyl-4-methyl-",413.95,1.0,CCN(CC)C(=O)c1ccc(C)cc1,le15
9163,"2-Propanol, 1,1',1''-nitrilotris-",440.15,1.0,CC(O)CN(CC(C)O)CC(C)O,le15
9164,2-amino-4-butylsulfanylbutanoic acid,429.95,1.0,CCCCSCCC(N)C(=O)O,le15
9165,"1-Propanamine, 3-(diethoxymethylsilyl)-",348.75,1.0,CCOC(OCC)[SiH2]CCCN,le15
9166,"ethyl 2,2,2-trichloroacetate",338.15,1.0,CCOC(=O)C(Cl)(Cl)Cl,le15
9167,"Benzene, 1-bromo-4-chloro-",351.54999999999984,1.0,Clc1ccc(Br)cc1,le15
9168,"Benzene, 1-bromo-3-chloro-",353.75,1.0,Clc1cccc(Br)c1,le15
9169,1-bromo-2-chlorobenzene,352.54999999999984,1.0,Clc1ccccc1Br,le15
9170,trichloro(2-methylpropyl)silane,321.25,1.0,CC(C)C[Si](Cl)(Cl)Cl,le15
9171,"1,3-Butadiene, 1,1,2,3-tetrachloro-",348.95,1.0,C=C(Cl)C(Cl)=C(Cl)Cl,le15
9172,"(1Z,3Z)-1,2,3,4-tetrachlorobuta-1,3-diene",355.85,1.0,Cl/C=C(Cl)/C(Cl)=C/Cl,le15
9173,"Benzene, 1,4-dichloro-2-nitro-",382.55,1.0,O=[N+]([O-])c1cc(Cl)ccc1Cl,le15
9174,"Benzene, 1,2-dichloro-4-nitro-",396.15,1.0,O=[N+]([O-])c1ccc(Cl)c(Cl)c1,le15
9175,"Benzene, 2,4-dichloro-1-nitro-",390.05,1.0,O=[N+]([O-])c1ccc(Cl)cc1Cl,le15
9176,"Benzene, 1,3-dichloro-5-nitro-",376.55,1.0,O=[N+]([O-])c1cc(Cl)cc(Cl)c1,le15
9177,"Benzene, 1,2-dichloro-3-nitro-",397.05,1.0,O=[N+]([O-])c1cccc(Cl)c1Cl,le15
9178,"2-Pyridinecarboxylic acid, 3,6-dichloro-",422.729,1.0,O=C(O)c1nc(Cl)ccc1Cl,le15
9179,"1,2,3-Propanetricarboxylic acid, 2-hydroxy-",428.35,1.0,O=C(O)CC(O)(CC(=O)O)C(=O)O,le15
9180,"2H-1-Benzopyran-2-one, 5,7-dihydroxy-4-methyl-",470.95,1.0,Cc1cc(=O)oc2cc(O)cc(O)c12,le15
9181,"2H-1-Benzopyran-2-one, 7-hydroxy-6-methoxy- (9CI)",445.55,1.0,COc1cc2ccc(=O)oc2cc1O,le15
9182,ethyl 3-oxo-3-phenylpropanoate,386.25,1.0,CCOC(=O)CC(=O)c1ccccc1,le15
9183,"Oxiranecarboxylic acid, 3-phenyl-, ethyl ester",386.15,1.0,CCOC(=O)C1OC1c1ccccc1,le15
9184,"Acetic acid, phenoxy-, 2-propenyl ester",408.15,1.0,C=CCOC(=O)COc1ccccc1,le15
9185,"1,3-Benzodioxole, 4-methoxy-6-(2-propenyl)- (9CI)",362.95,1.0,C=CCc1cc(OC)c2c(c1)OCO2,le15
9186,"Anthracene, 1-methyl- (8CI)(9CI)",430.65,1.0,Cc1cccc2cc3ccccc3cc12,le15
9187,"Anthracene, 9-methyl-",430.65,1.0,Cc1c2ccccc2cc2ccccc12,le15
9188,"Phenanthrene, 1-methyl-",430.65,1.0,Cc1cccc2c1ccc1ccccc12,le15
9189,"Phenanthrene, 9-methyl-",430.65,1.0,Cc1cc2ccccc2c2ccccc12,le15
9190,"Phenanthrene, 2-methyl-",430.65,1.0,Cc1ccc2c(ccc3ccccc32)c1,le15
9191,"Isopentyl alcohol, benzoate (6CI,8CI)",382.55,1.0,CC(C)CCOC(=O)c1ccccc1,le15
9192,"Butanoic acid, 3-methyl-, phenylmethyl ester",372.05,1.0,CC(C)CC(=O)OCc1ccccc1,le15
9193,"Propanoic acid, 2-methyl-, 2-phenylethyl ester",378.95,1.0,CC(C)C(=O)OCCc1ccccc1,le15
9194,"Acetic acid, phenyl-, butyl ester",377.85,1.0,CCCCOC(=O)Cc1ccccc1,le15
9195,"Phenethyl alcohol, alpha,alpha-dimethyl-, acetate",374.95,1.0,CC(=O)OC(C)(C)Cc1ccccc1,le15
9196,(5-methyl-2-propan-2-ylphenyl) acetate,367.35,1.0,CC(=O)Oc1cc(C)ccc1C(C)C,le15
9197,"Benzeneacetic acid, 4-(2-methylpropyl)-",482.45,1.0,CC(C)Cc1ccc(CC(=O)O)cc1,le15
9198,"Benzaldehyde, 4-(pentyloxy)-",402.15,1.0,CCCCCOc1ccc(C=O)cc1,le15
9199,(2-methyl-5-propan-2-ylphenyl) acetate,367.75,1.0,CC(=O)Oc1cc(C(C)C)ccc1C,le15
9200,"Butanoic acid, 2-phenylethyl ester",383.05,1.0,CCCC(=O)OCCc1ccccc1,le15
9201,"1-Propanol, 3-phenyl-, propionate",390.05,1.0,CCC(=O)OCCCc1ccccc1,le15
9202,"Benzoic acid, pentyl ester",386.35,1.0,CCCCCOC(=O)c1ccccc1,le15
9203,"Propanol, ((1-methyl-1,2-ethanediyl)bis(oxy))bis-",404.35,1.0,CC(COCCCO)OCCCO,le15
9204,triethoxymethoxyethane,325.95,1.0,CCOC(OCC)(OCC)OCC,le15
9205,"Thiourea, N-phenyl-N'-2-propenyl-",397.55,1.0,C=CCNC(=S)Nc1ccccc1,le15
9206,"3-Buten-2-one, 4-(2,6,6-trimethyl-2-cyclohexen-1-yl)-, (3E)-",388.15,1.0,CC(=O)/C=C/C1C(C)=CCCC1(C)C,le15
9207,"3,5,9-Undecatrien-2-one, 6,10-dimethyl-",402.15,1.0,CC(=O)C=CC=C(C)CCC=C(C)C,le15
9208,"Phenol, 2-heptyl- (9CI)",426.15,1.0,CCCCCCCc1ccccc1O,le15
9209,"Silane, pentyltrimethoxy-",325.35,1.0,CCCCC[Si](OC)(OC)OC,le15
9210,"Nonanoic acid, 9-chloro-",409.05,1.0,O=C(O)CCCCCCCCCl,le15
9211,"Carbonochloridic acid, 2-ethylhexyl ester",354.85,1.0,CCCCC(CC)COC(=O)Cl,le15
9212,"Phenol, 4,5-dichloro-2-methoxy-",394.95,1.0,COc1cc(Cl)c(Cl)cc1O,le15
9213,"2,3,4,5,6-pentafluorobenzonitrile",302.15,1.0,N#Cc1c(F)c(F)c(F)c(F)c1F,le15
9214,"1,3-Isobenzofurandione, 5-nitro-",500.65,1.0,O=C1OC(=O)c2cc([N+](=O)[O-])ccc21,le15
9215,"Benzonitrile, 3,5-dinitro-",410.05,1.0,N#Cc1cc([N+](=O)[O-])cc([N+](=O)[O-])c1,le15
9216,"2-Propenoic acid, 3-(3-nitrophenyl)-",439.65,1.0,O=C(O)C=Cc1cccc([N+](=O)[O-])c1,le15
9217,"Cinnamic acid, o-nitro- (6CI,7CI,8CI)",444.95,1.0,O=C(O)C=Cc1ccccc1[N+](=O)[O-],le15
9218,"2-Propenoic acid, 3-(4-nitrophenyl)-",427.05,1.0,O=C(O)C=Cc1ccc([N+](=O)[O-])cc1,le15
9219,"Carbamic acid, methyl-, 2,3-dihydro-7-benzofuranyl ester",412.55,1.0,CNC(=O)Oc1cccc2c1OCC2,le15
9220,"Benzeneacetonitrile, alpha-phenyl-",424.75,1.0,N#CC(c1ccccc1)c1ccccc1,le15
9221,9-Anthracenamine,493.05,1.0,Nc1c2ccccc2cc2ccccc12,le15
9222,9-Aminophenanthrene,497.55,1.0,Nc1cc2ccccc2c2ccccc12,le15
9223,"1H-Indole, 2-phenyl-",449.75,1.0,c1ccc(-c2cc3ccccc3[nH]2)cc1,le15
9224,"9H-Carbazole, 9-ethenyl-",425.65,1.0,C=Cn1c2ccccc2c2ccccc21,le15
9225,3-Aminophenanthrene,502.15,1.0,Nc1ccc2ccc3ccccc3c2c1,le15
9226,2-Phenanthrenamine (9CI),502.15,1.0,Nc1ccc2c(ccc3ccccc32)c1,le15
9227,1-Phenanthrenamine (9CI),497.55,1.0,Nc1cccc2c1ccc1ccccc12,le15
9228,"Phenol, 2-(1-methylethyl)-, methylcarbamate",387.15,1.0,CNC(=O)Oc1ccccc1C(C)C,le15
9229,"Carbamic acid, methyl-, 2,3,4-trimethylphenyl ester",403.45,1.0,CNC(=O)Oc1ccc(C)c(C)c1C,le15
9230,"Benzoic acid, 4-amino-, butyl ester",457.75,1.0,CCCCOC(=O)c1ccc(N)cc1,le15
9231,"Anthranilic acid, butyl ester (6CI,7CI,8CI)",426.35,1.0,CCCCOC(=O)c1ccccc1N,le15
9232,"Benzoic acid, 2-amino-, 2-methylpropyl ester",421.05,1.0,CC(C)COC(=O)c1ccccc1N,le15
9233,"3-ethoxy-N,N-diethylaniline",352.25,1.0,CCOc1cccc(N(CC)CC)c1,le15
9234,"Ethanol, 2,2,2-trichloro-1-ethoxy-",322.0499999999999,1.0,CCOC(O)C(Cl)(Cl)Cl,le15
9235,"2,3,3-trichloroprop-2-enoyl chloride",305.95,1.0,O=C(Cl)C(Cl)=C(Cl)Cl,le15
9236,"Benzene, (1,1,2,2-tetrafluoroethoxy)-",318.95,1.0,FC(F)C(F)(F)Oc1ccccc1,le15
9237,"1,4-Benzenedicarboxylic acid, dimethyl ester",421.15,1.0,COC(=O)c1ccc(C(=O)OC)cc1,le15
9238,"Acetic acid, (3,4-methylenedioxy)benzyl ester",386.15,1.0,CC(=O)OCc1ccc2c(c1)OCO2,le15
9239,"2-Propenoic acid, 3-(3-hydroxy-4-methoxyphenyl)-",440.75,1.0,COc1ccc(C=CC(=O)O)cc1O,le15
9240,"2-Propenoic acid, 3-(4-hydroxy-3-methoxyphenyl)-",423.65,1.0,COc1cc(C=CC(=O)O)ccc1O,le15
9241,"dimethyl benzene-1,3-dicarboxylate",411.15,1.0,COC(=O)c1cccc(C(=O)OC)c1,le15
9242,"1,2-Benzenedicarboxylic acid, dimethyl ester",423.15,1.0,COC(=O)c1ccccc1C(=O)OC,le15
9243,"ethyl 1,3-benzodioxole-5-carboxylate",397.25,1.0,CCOC(=O)c1ccc2c(c1)OCO2,le15
9244,"Benzoic acid, 2-acetamido-6-amino-",509.25,1.0,CC(=O)Nc1cccc(N)c1C(=O)O,le15
9245,"1H-Purine-2,6-dione, 3,7-dihydro-1,3,7-trimethyl-",479.017,1.0,Cn1c(=O)c2c(ncn2C)n(C)c1=O,le15
9246,"9,10-Dihydro-9-oxoanthracene",423.45,1.0,O=C1c2ccccc2Cc2ccccc21,le15
9247,"Phosphonic acid, dibutyl ester",394.15,1.0,CCCCO[PH](=O)OCCCC,le15
9248,"Benzoic acid, 2-hydroxy-, 2-methylpropyl ester",383.15,1.0,CC(C)COC(=O)c1ccccc1O,le15
9249,"Benzoic acid, 4-hydroxy-, butyl ester",402.35,1.0,CCCCOC(=O)c1ccc(O)cc1,le15
9250,acridin-4-amine,510.35,1.0,Nc1cccc2cc3ccccc3nc12,le15
9251,2-Acridinamine (9CI),514.3499999999998,1.0,Nc1ccc2nc3ccccc3cc2c1,le15
9252,"Benzenecarboperoxoic acid, 1,1-dimethylethyl ester",382.85,1.0,CC(C)(C)OOC(=O)c1ccccc1,le15
9253,"N,N'-diphenylmethanediimine",419.25,1.0,C(=Nc1ccccc1)=Nc1ccccc1,le15
9254,"Benzoic acid, 2-hydroxy-, butyl ester",380.15,1.0,CCCCOC(=O)c1ccccc1O,le15
9255,"3,5-Cyclohexadiene-1,2-dione, 3-(1,1-dimethylethyl)-5-methoxy-",401.65,1.0,COC1=CC(=O)C(=O)C(C(C)(C)C)=C1,le15
9256,"Benzoic acid, 4-hydroxy-, 2-methylpropyl ester (9CI)",398.55,1.0,CC(C)COC(=O)c1ccc(O)cc1,le15
9257,3-Acridinamine (9CI),514.3499999999998,1.0,Nc1ccc2cc3ccccc3nc2c1,le15
9258,"3,4-diethoxybenzaldehyde",402.15,1.0,CCOc1ccc(C=O)cc1OCC,le15
9259,"1,3-Dioxolane-4-methanol, 2-(phenylmethyl)-",429.65,1.0,OCC1COC(Cc2ccccc2)O1,le15
9260,ethyl 4-ethoxybenzoate,387.15,1.0,CCOC(=O)c1ccc(OCC)cc1,le15
9261,"Ethanol, 2,2'-(oxybis(2,1-ethanediyloxy))bis-",449.85,1.0,OCCOCCOCCOCCO,le15
9262,"Benzenamine, N,N-diethyl-4-nitro-",418.05,1.0,CCN(CC)c1ccc([N+](=O)[O-])cc1,le15
9263,"Benzothiazole, 2-amino-6-ethoxy- (8CI)",442.25,1.0,CCOc1ccc2nc(N)sc2c1,le15
9264,dithiophen-2-ylmethanone,422.25,1.0,O=C(c1cccs1)c1cccs1,le15
9265,[(E)-1-phenylprop-1-en-2-yl]benzene,397.65,1.0,C/C(=C\c1ccccc1)c1ccccc1,le15
9266,"1,3-Benzenediol, 4-hexyl-",428.35,1.0,CCCCCCc1ccc(O)cc1O,le15
9267,"Benzene, (2-(1-ethoxyethoxy)ethyl)-",350.85,1.0,CCOC(C)OCCc1ccccc1,le15
9268,1-(2-hydroperoxypropan-2-yl)-4-propan-2-ylbenzene,410.15,1.0,CC(C)c1ccc(C(C)(C)OO)cc1,le15
9269,1-Cyclohexyl-3-cyclopentylpropane,379.05,1.0,C1CCC(CCCC2CCCC2)CC1,le15
9270,2-cyclohexylethylcyclohexane,379.85,1.0,C1CCC(CCC2CCCCC2)CC1,le15
9271,p-Trifluoromethylbenzyl chloride,347.04999999999984,1.0,FC(F)(F)c1ccc(CCl)cc1,le15
9272,"Propanedioic acid, chloro-, diethyl ester",376.45,1.0,CCOC(=O)C(Cl)C(=O)OCC,le15
9273,dichlorophosphorylbenzene,382.95,1.0,O=P(Cl)(Cl)c1ccccc1,le15
9274,"Butyric acid, 2-bromo-, ethyl ester (8CI)",342.65,1.0,CCOC(=O)C(Br)CC,le15
9275,"Butanoic acid, 4-bromo-, ethyl ester (9CI)",363.75,1.0,CCOC(=O)CCCBr,le15
9276,"1-Butanol, 4-bromo-, acetate",382.15,1.0,CC(=O)OCCCCBr,le15
9277,"Valeric acid, 5-bromo-, methyl ester (8CI)",372.55,1.0,COC(=O)CCCCBr,le15
9278,"Propanoic acid, 2-bromo-2-methyl-, ethyl ester",333.15,1.0,CCOC(=O)C(C)(C)Br,le15
9279,"Hexanoic acid, 6-bromo-",340.15,1.0,O=C(O)CCCCCBr,le15
9280,"Benzoic acid, 4-nitro-, ethyl ester",421.35,1.0,CCOC(=O)c1ccc([N+](=O)[O-])cc1,le15
9281,ethyl 2-nitrobenzoate,399.25,1.0,CCOC(=O)c1ccccc1[N+](=O)[O-],le15
9282,"Propane, 1,2-epoxy-3-(p-nitrophenoxy)-",450.35,1.0,O=[N+]([O-])c1ccc(OCC2CO2)cc1,le15
9283,ethyl 3-nitrobenzoate,410.15,1.0,CCOC(=O)c1cccc([N+](=O)[O-])c1,le15
9284,"Dibenz(b,f)(1,4)oxazepine",398.15,1.0,C1=Nc2ccccc2Oc2ccccc21,le15
9285,"7H-Dibenz(a,j)acrid-14-one",428.199,1.0,O=C1C=CC23C=CC=CC2Nc2ccc4ccccc4c2C3=C1,le15
9286,"Benzoxazole, 2-phenyl-",391.85,1.0,c1ccc(-c2nc3ccccc3o2)cc1,le15
9287,"9H-Fluorene, 2-nitroso-",428.25,1.0,O=Nc1ccc2c(c1)Cc1ccccc1-2,le15
9288,1-Phenazinamine (9CI),518.55,1.0,Nc1cccc2nc3ccccc3nc12,le15
9289,2-Phenazinamine (9CI),522.8499999999998,1.0,Nc1ccc2nc3ccccc3nc2c1,le15
9290,N-(4-methylphenyl)-1-phenylmethanimine,418.151,1.0,Cc1ccc(N=Cc2ccccc2)cc1,le15
9291,"Benzenamine, 4-(2-phenylethenyl)-, (E)- (9CI)",460.05,1.0,Nc1ccc(/C=C/c2ccccc2)cc1,le15
9292,N-(2-methylphenyl)-1-phenylmethanimine,613.3499999999998,1.0,Cc1ccccc1N=Cc1ccccc1,le15
9293,N-(3-methylphenyl)-1-phenylmethanimine,421.55,1.0,Cc1cccc(N=Cc2ccccc2)c1,le15
9294,"Ethanol, 2,2'-((3-methylphenyl)imino)bis-",474.95,1.0,Cc1cccc(N(CCO)CCO)c1,le15
9295,"Cyclohexanamine, N-cyclohexyl-N-methyl-",383.15,1.0,CN(C1CCCCC1)C1CCCCC1,le15
9296,"Toluene, alpha,alpha,alpha-trichloro-",370.15,1.0,ClC(Cl)(Cl)c1ccccc1,le15
9297,"1,2-dichloro-4-(chloromethyl)benzene",433.35,1.0,ClCc1ccc(Cl)c(Cl)c1,le15
9298,"2,4-dichloro-1-(chloromethyl)benzene",463.15,1.0,ClCc1ccc(Cl)cc1Cl,le15
9299,"m-Toluidine, 6-chloro-alpha,alpha,alpha-trifluoro-",352.75,1.0,Nc1cc(C(F)(F)F)ccc1Cl,le15
9300,"1,1,1,3-tetrachloropropan-2-one",336.95,1.0,O=C(CCl)C(Cl)(Cl)Cl,le15
9301,"2-(Chloromethyl)-1,2,3-trichloropropane",355.04999999999984,1.0,ClCC(Cl)(CCl)CCl,le15
9302,iodocyclopentane,339.85,1.0,IC1CCCC1,le15
9303,"2,2,2-trifluoroethyl 2,2,2-trifluoroacetate",273.15,1.0,O=C(OCC(F)(F)F)C(F)(F)F,le15
9304,"Benzaldehyde, pentafluoro- (8CI)(9CI)",350.95,1.0,O=Cc1c(F)c(F)c(F)c(F)c1F,le15
9305,"1,1,1,2,3,3-hexafluoro-4-methoxybutane",275.15,1.0,COCC(F)(F)C(F)C(F)(F)F,le15
9306,"Benzaldehyde, 2,4-dinitro-",475.65,1.0,O=Cc1ccc([N+](=O)[O-])cc1[N+](=O)[O-],le15
9307,"Benzaldehyde, 2,6-dinitro-",465.25,1.0,O=Cc1c([N+](=O)[O-])cccc1[N+](=O)[O-],le15
9308,"1,3,4-Oxadiazole, 2-amino-5-(5-nitro-2-furyl)-",478.05,1.0,Nc1nnc(-c2ccc([N+](=O)[O-])o2)o1,le15
9309,"m-Xylene, 2,4-dinitro-",414.35,1.0,Cc1ccc([N+](=O)[O-])c(C)c1[N+](=O)[O-],le15
9310,"Benzene, 1,2-dimethyl-3,5-dinitro-",438.75,1.0,Cc1cc([N+](=O)[O-])cc([N+](=O)[O-])c1C,le15
9311,"1H-Purine-2,6,8(3H)-trione, 7,9-dihydro-1,3-dimethyl-",541.55,1.0,Cn1c(=O)c2[nH]c(=O)[nH]c2n(C)c1=O,le15
9312,ethyl 4-hydroxy-3-methoxybenzoate,395.55,1.0,CCOC(=O)c1ccc(O)c(OC)c1,le15
9313,"methyl 3,4-dimethoxybenzoate",395.35,1.0,COC(=O)c1ccc(OC)c(OC)c1,le15
9314,"Benzaldehyde, 2,4,5-trimethoxy-",422.15,1.0,COc1cc(OC)c(OC)cc1C=O,le15
9315,"Phenazine, 5-oxide",471.45,1.0,[O-][n+]1c2ccccc2nc2ccccc21,le15
9316,"1-Butanone, 1-(2,4,5-trihydroxyphenyl)-",488.55,1.0,CCCC(=O)c1cc(O)c(O)cc1O,le15
9317,"Ethanone, 1-(4-hydroxy-3,5-dimethoxyphenyl)- (9CI)",404.85,1.0,COc1cc(C(C)=O)cc(OC)c1O,le15
9318,1-(4-phenylphenyl)ethanone,413.05,1.0,CC(=O)c1ccc(-c2ccccc2)cc1,le15
9319,(2-methylphenyl)-phenylmethanone,392.15,1.0,Cc1ccccc1C(=O)c1ccccc1,le15
9320,"1,2-diphenylethanone",410.15,1.0,O=C(Cc1ccccc1)c1ccccc1,le15
9321,"Oxirane, 2,3-diphenyl-, cis- (9CI)",382.15,1.0,c1ccc([C@@H]2O[C@@H]2c2ccccc2)cc1,le15
9322,"9H-Fluorene-2,7-diamine (9CI)",556.75,1.0,Nc1ccc2c(c1)Cc1cc(N)ccc1-2,le15