,compound,flashpoint,pure substance,smiles,source
6892,"Benzenamine, 3-chloro-4-methyl-",373.95,1.0,Cc1ccc(N)cc1Cl,le15
6893,"Benzenamine, 5-chloro-2-methyl-",433.15,1.0,Cc1ccc(Cl)cc1N,le15
6894,2-Chloro-5-methylaniline,380.15,1.0,Cc1ccc(Cl)c(N)c1,le15
6895,"Benzylamine, p-chloro- (8CI)",365.75,1.0,NCc1ccc(Cl)cc1,le15
6896,"Benzenamine, 2-chloro-4-methyl-",372.15,1.0,Cc1ccc(N)c(Cl)c1,le15
6897,4-chloro-N-methylaniline,372.55,1.0,CNc1ccc(Cl)cc1,le15
6898,4-chloro-3-methylaniline,372.95,1.0,Cc1cc(N)ccc1Cl,le15
6899,"Methane, iodo-",280.948,1.0,CI,le15
6900,"Ethanamine, 2-chloro-N-(2-chloroethyl)- (9CI)",350.45,1.0,ClCCNCCCl,le15
6901,"Acetic acid, trifluoro-, ethyl ester",272.15,1.0,CCOC(=O)C(F)(F)F,le15
6902,"Phosphinic acid, phenyl-",399.381,1.0,O=[PH](O)c1ccccc1,le15
6903,"4H-Pyran-4-one, 5-hydroxy-2-(hydroxymethyl)-",453.05,1.0,O=c1cc(CO)occ1O,le15
6904,"Hexa-2,4-dienedioic acid",450.05,1.0,O=C(O)C=CC=CC(=O)O,le15
6905,"Phosphorothioic acid, O,O-dimethyl ester",331.25,1.0,COP([O-])(=S)OC,le15
6906,"2-Propenoic acid, 2-methyl-, oxiranylmethyl ester",349.26099999999997,1.0,C=C(C)C(=O)OCC1CO1,le15
6907,prop-2-enyl 3-oxobutanoate,348.15,1.0,C=CCOC(=O)CC(C)=O,le15
6908,bis(prop-2-enyl) carbonate,332.0499999999999,1.0,C=CCOC(=O)OCC=C,le15
6909,"4(1H)-Pyrimidinone, 2,3-dihydro-6-methyl-2-thioxo-",433.95,1.0,Cc1cc(=O)[nH]c(=S)[nH]1,le15
6910,1methylnaphthalene,355.0,1.0,Cc1cccc2ccccc12,le15
6911,2methylnaphthalene,370.0,1.0,Cc1ccc2ccccc2c1,le15
6912,"2-Propenoic acid, 2-methyl-, 2-methylpropyl ester",319.15,1.0,C=C(C)C(=O)OCC(C)C,le15
6913,"2-Propenoic acid, 2-methyl-, butyl ester",323.75,1.0,C=C(C)C(=O)OCCCC,le15
6914,"2(3H)-Furanone, dihydro-5-butyl-",365.05,1.0,CCCCC1CCC(=O)O1,le15
6915,"3-Hexyne-2,5-diol, 2,5-dimethyl-",359.15,1.0,CC(C)(O)C#CC(C)(C)O,le15
6916,"2-Propenoic acid, 2-methyl-, 1,1-dimethylethyl ester",314.25,1.0,C=C(C)C(=O)OC(C)(C)C,le15
6917,"2H-Pyran-2-one, tetrahydro-6-propyl-",398.15,1.0,CCCC1CCCC(=O)O1,le15
6918,1-methylcyclohexane-1-carboxylic acid,387.15,1.0,CC1(C(=O)O)CCCCC1,le15
6919,1-(1-hydroxycyclohexyl)ethanone,369.05,1.0,CC(=O)C1(O)CCCCC1,le15
6920,ethyl (E)-hex-2-enoate,335.45,1.0,CCC/C=C/C(=O)OCC,le15
6921,"Cyclohex-2-ene-1,1-dimethanol",378.15,1.0,OCC1(CO)C=CCCC1,le15
6922,"Oxirane, 2,2'-(1,4-butanediyl)bis- (9CI)",370.95,1.0,C(CCC1CO1)CC1CO1,le15
6923,"2-Hexen-1-ol, acetate, (2E)-",331.15,1.0,CCC/C=C/COC(C)=O,le15
6924,"2-Propenoic acid, pentyl ester",321.35,1.0,C=CC(=O)OCCCCC,le15
6925,"3-Hexen-1-ol, acetate, (3Z)-",330.35,1.0,CC/C=C\CCOC(C)=O,le15
6926,"Cyclohexanecarboxylic acid, methyl ester",331.85,1.0,COC(=O)C1CCCCC1,le15
6927,2-cyclohexylacetic acid,397.05,1.0,O=C(O)CC1CCCCC1,le15
6928,"2-Hexenoic acid, 2-ethyl-",594.05,1.0,CCCC=C(CC)C(=O)O,le15
6929,"octane-4,5-dione",329.65,1.0,CCCC(=O)C(=O)CCC,le15
6930,"2-Butenoic acid, 2-methyl-, 1-methylethyl ester, (E)- (9CI)",328.0499999999999,1.0,C/C=C(\C)C(=O)OC(C)C,le15
6931,ethyl (E)-hex-3-enoate,332.5499999999999,1.0,CC/C=C/CC(=O)OCC,le15
6932,"2,5-dimethylhexane-3,4-dione",323.65,1.0,CC(C)C(=O)C(=O)C(C)C,le15
6933,"Urea, (1-methylcyclopentyl)-",360.95,1.0,CC1(NC(N)=O)CCCC1,le15
6934,"benzene-1,2-dithiol",385.85,1.0,Sc1ccccc1S,le15
6935,"benzene-1,2-dithiol",381.75,1.0,Sc1ccccc1S,le15
6936,"4-Heptanone, 2,6-dimethyl-",317.85,1.0,CC(C)CC(=O)CC(C)C,le15
6937,"Cyclohexanol, 3,3,5-trimethyl-",354.15,1.0,CC1CC(O)CC(C)(C)C1,le15
6938,"2,2,4,4-tetramethylpentan-3-one",305.95,1.0,CC(C)(C)C(=O)C(C)(C)C,le15
6939,nonan-3-one,340.95,1.0,CCCCCCC(=O)CC,le15
6940,nonan-4-one,334.5499999999999,1.0,CCCCCC(=O)CCC,le15
6941,"Cyclohexanol, 4-(1-methylethyl)-",353.95,1.0,CC(C)C1CCC(O)CC1,le15
6942,"Hexanal, 3,5,5-trimethyl-",319.85,1.0,CC(CC=O)CC(C)(C)C,le15
6943,"5-Hepten-2-ol, 2,6-dimethyl-",363.25,1.0,CC(C)=CCCC(C)(C)O,le15
6944,"(3S,5S)-3,5-dimethylheptan-4-one",317.85,1.0,CC[C@H](C)C(=O)[C@@H](C)CC,le15
6945,7-methyloctan-4-one,330.75,1.0,CCCC(=O)CCC(C)C,le15
6946,non-1-en-3-ol,342.65,1.0,C=CC(O)CCCCCC,le15
6947,"3,3,5-trimethylcyclohexan-1-ol",346.35,1.0,CC1CC(O)CC(C)(C)C1,le15
6948,"Cyclohexanol, 3,3,5-trimethyl-, (1R,5R)-rel-",361.15,1.0,C[C@H]1C[C@@H](O)CC(C)(C)C1,le15
6949,5nonanone,333.0,1.0,CCCCC(=O)CCCC,le15
6950,Diisobutylketone,322.0,1.0,CC(C)CC(=O)CC(C)C,le15
6951,"1,3-Cyclohexanebis(methylamine) (8CI)",379.15,1.0,NCC1CCCC(CN)C1,le15
6952,"Octane, 2,7-dimethyl-",354.45,1.0,CC(C)CCCCC(C)C,le15
6953,"2,5,5-trimethylheptane",312.85,1.0,CCC(C)(C)CCC(C)C,le15
6954,"2,4,6-trimethylheptane",310.25,1.0,CC(C)CC(C)CC(C)C,le15
6955,4-propylheptane,308.35,1.0,CCCC(CCC)CCC,le15
6956,"2,4,4-trimethylheptane",311.65,1.0,CCCC(C)(C)CC(C)C,le15
6957,"2,4-dimethyloctane",351.65,1.0,CCCCC(C)CC(C)C,le15
6958,"3,3-dimethyloctane",316.65,1.0,CCCCCC(C)(C)CC,le15
6959,5-ethyl-2-methylheptane,355.15,1.0,CCC(CC)CCC(C)C,le15
6960,"2,2,3,3-tetramethylhexane",316.85,1.0,CCCC(C)(C)C(C)(C)C,le15
6961,3-ethyl-2-methylheptane,358.04999999999984,1.0,CCCCC(CC)C(C)C,le15
6962,5-methylnonane,310.35,1.0,CCCCC(C)CCCC,le15
6963,"2,2-Dimethyloctane",314.0499999999999,1.0,CCCCCCC(C)(C)C,le15
6964,"3,4-dimethyloctane",359.65,1.0,CCCCC(C)C(C)CC,le15
6965,"3,5-dimethyloctane",354.15,1.0,CCCC(C)CC(C)CC,le15
6966,"3,6-dimethyloctane",356.65,1.0,CCC(C)CCC(C)CC,le15
6967,"4,5-dimethyloctane",359.04999999999984,1.0,CCCC(C)C(C)CCC,le15
6968,"2,2,4,5-tetramethylhexane",309.5499999999999,1.0,CC(C)C(C)CC(C)(C)C,le15
6969,3-ethyl-3-methylheptane,318.35,1.0,CCCCC(C)(CC)CC,le15
6970,"3,4-diethylhexane",358.95,1.0,CCC(CC)C(CC)CC,le15
6971,"2,4,5-trimethylheptane",313.85,1.0,CCC(C)C(C)CC(C)C,le15
6972,"3,3,4-trimethylheptane",317.5499999999999,1.0,CCCC(C)C(C)(C)CC,le15
6973,3-ethyl-5-methylheptane,355.85,1.0,CCC(C)CC(CC)CC,le15
6974,"2,2,5,5-tetramethylhexane",304.75,1.0,CC(C)(C)CCC(C)(C)C,le15
6975,"2,6-dimethyloctane",355.54999999999984,1.0,CCC(C)CCCC(C)C,le15
6976,"4,4-dimethyloctane",314.95,1.0,CCCCC(C)(C)CCC,le15
6977,4methylnonane,311.0,1.0,CCCCCC(C)CCC,le15
6978,"p-Benzoquinone, 2-chloro- (8CI)",356.35,1.0,O=C1C=CC(=O)C(Cl)=C1,le15
6979,"Phenol, 4-chloro-3-methyl-",366.55,1.0,Cc1cc(O)ccc1Cl,le15
6980,2-chloro-6-methylphenol,348.15,1.0,Cc1cccc(Cl)c1O,le15
6981,"Phenol, 2-chloro-5-methyl-",354.15,1.0,Cc1ccc(Cl)c(O)c1,le15
6982,"Anisole, p-chloro- (8CI)",345.45,1.0,COc1ccc(Cl)cc1,le15
6983,1-chloro-2-methoxybenzene,349.15,1.0,COc1ccccc1Cl,le15
6984,"Benzenemethanol, 4-chloro- (9CI)",343.15,1.0,OCc1ccc(Cl)cc1,le15
6985,"Phenol, 4-chloro-2-methyl-",363.25,1.0,Cc1cc(Cl)ccc1O,le15
6986,3-chloro-2-methylphenol,357.95,1.0,Cc1c(O)cccc1Cl,le15
6987,(2-chlorophenyl)methanol,368.55,1.0,OCc1ccccc1Cl,le15
6988,2-chloro-3-methylphenol,351.25,1.0,Cc1cccc(O)c1Cl,le15
6989,3-chloro-4-methylphenol,361.65,1.0,Cc1ccc(O)cc1Cl,le15
6990,3-Chlorobenzyl alcohol,368.55,1.0,OCc1cccc(Cl)c1,le15
6991,1-chloro-3-methoxybenzene,346.45,1.0,COc1cccc(Cl)c1,le15
6992,2-chloro-4-methylphenol,359.25,1.0,Cc1ccc(O)c(Cl)c1,le15
6993,"1,2-Benzenediamine, 4-chloro-",408.55,1.0,Nc1ccc(Cl)cc1N,le15
6994,"1,3-Benzenediamine, 4-chloro-",407.55,1.0,Nc1ccc(Cl)c(N)c1,le15
6995,chloro(phenyl)silicon,327.0499999999999,1.0,Cl[Si]c1ccccc1,le15
6996,"Carbonochloridic acid, 2-chloroethyl ester",343.15,1.0,O=C(Cl)OCCCl,le15
6997,"Propanoic acid, 2,3-dichloro- (9CI)",358.95,1.0,O=C(O)C(Cl)CCl,le15
6998,"1,2-dichloro-1-ethoxyethane",316.45,1.0,CCOC(Cl)CCl,le15
6999,chloro-(chloromethyl)-dimethylsilane,295.15,1.0,C[Si](C)(Cl)CCl,le15
7000,"2,4-Oxazolidinedione, 3,5,5-trimethyl-",321.15,1.0,CN1C(=O)OC(C)(C)C1=O,le15
7001,2-Naphthalenamine,430.25,1.0,Nc1ccc2ccccc2c1,le15
7002,"Quinoline, 6-methyl-",382.15,1.0,Cc1ccc2ncccc2c1,le15
7003,"Quinoline, 8-methyl-",377.15,1.0,Cc1cccc2cccnc12,le15
7004,"Quinoline, 7-methyl-",383.15,1.0,Cc1ccc2cccnc2c1,le15
7005,1-phenylpyrrole,368.45,1.0,c1ccc(-n2cccc2)cc1,le15
7006,3-methylisoquinoline,379.85,1.0,Cc1cc2ccccc2cn1,le15
7007,1-methylisoquinoline,379.85,1.0,Cc1nccc2ccccc12,le15
7008,2-phenyl-1H-pyrrole,397.75,1.0,c1ccc(-c2ccc[nH]2)cc1,le15
7009,"Quinoline, 5-methyl-",377.55,1.0,Cc1cccc2ncccc12,le15
7010,6-methylisoquinoline,385.45,1.0,Cc1ccc2cnccc2c1,le15
7011,"Quinoline, 2-methyl-",352.54999999999984,1.0,Cc1ccc2ccccc2n1,le15
7012,1-Naphthalenamine,425.25,1.0,Nc1cccc2ccccc12,le15
7013,"Quinoline, 4-methyl-",379.25,1.0,Cc1ccnc2ccccc12,le15
7014,"Acrylic acid, 3-(dimethylamino)-, ethyl ester, (E)-",342.0499999999999,1.0,CCOC(=O)/C=C/N(C)C,le15
7015,"2-Propenoic acid, 2-(dimethylamino)ethyl ester",302.15,1.0,C=CC(=O)OCCN(C)C,le15
7016,"N,N-diethylbutanamide",351.35,1.0,CCCC(=O)N(CC)CC,le15
7017,"N,N-dipropylacetamide",351.35,1.0,CCCN(CCC)C(C)=O,le15
7018,"Ethanol, 2-(cyclohexylamino)-",390.75,1.0,OCCNC1CCCCC1,le15
7019,"Pentanamide, 2-ethyl-3-methyl-",392.95,1.0,CCC(C)C(CC)C(N)=O,le15
7020,4-Isobutylmorpholine,322.95,1.0,CC(C)CN1CCOCC1,le15
7021,1-piperidin-2-ylpropan-1-ol,355.45,1.0,CCC(O)C1CCCCN1,le15
7022,"Morpholine, 4-butyl-",325.0499999999999,1.0,CCCCN1CCOCC1,le15
7023,"Valeramide, 2-propyl-",393.05,1.0,CCCC(CCC)C(N)=O,le15
7024,"Hexane, 1-isothiocyanato-",363.75,1.0,CCCCCCN=C=S,le15
7025,"1-Propanamine, N,N-dipropyl-",309.85,1.0,CCCN(CCC)CCC,le15
7026,"1-Butanamine, N-butyl-N-methyl-",315.35,1.0,CCCCN(C)CCCC,le15
7027,"Ethane, 1-bromo-2-chloro-",282.65,1.0,ClCCBr,le15
7028,"Hydroxylamine, N-(p-chlorophenyl)- (8CI)",379.15,1.0,ONc1ccc(Cl)cc1,le15
7029,2-chloro-6-methoxypyridine,349.25,1.0,COc1cccc(Cl)n1,le15
7030,"2-Pyrimidinamine, 4-chloro-6-methyl- (9CI)",424.15,1.0,Cc1cc(Cl)nc(N)n1,le15
7031,"Ethane, 1,1-dichloro-1-nitro-",304.85,1.0,CC(Cl)(Cl)[N+](=O)[O-],le15
7032,"p-Dioxane-2,5-dione, 3,6-dimethyl- (8CI)",423.75,1.0,CC1OC(=O)C(C)OC1=O,le15
7033,"Piperazine, 1,4-dinitroso-",472.55,1.0,O=NN1CCN(N=O)CC1,le15
7034,"4,6(1H,5H)-Pyrimidinedione, dihydro-2-thioxo-",507.15,1.0,O=C1CC(=O)NC(=S)N1,le15
7035,1-Naphthalenol,417.15,1.0,Oc1cccc2ccccc12,le15
7036,"2-Propenoic acid, 2-ethoxyethyl ester",325.95,1.0,C=CC(=O)OCCOCC,le15
7037,"Pentanoic acid, 4-oxo-, ethyl ester",351.04999999999984,1.0,CCOC(=O)CCC(C)=O,le15
7038,propan-2-yl 3-oxobutanoate,342.0499999999999,1.0,CC(=O)CC(=O)OC(C)C,le15
7039,"Quinoline, 8-amino-",444.65,1.0,Nc1cccc2cccnc12,le15
7040,"Quinoline, 6-amino- (8CI)",455.05,1.0,Nc1ccc2ncccc2c1,le15
7041,"Quinoline, 3-amino-",440.95,1.0,Nc1cnc2ccccc2c1,le15
7042,7-Quinolinamine (9CI),449.25,1.0,Nc1ccc2cccnc2c1,le15
7043,"Quinoline, 2-amino-",436.75,1.0,Nc1ccc2ccccc2n1,le15
7044,ethyl 2-methyl-3-oxobutanoate,335.15,1.0,CCOC(=O)C(C)C(C)=O,le15
7045,quinolin-5-amine,444.65,1.0,Nc1cccc2ncccc12,le15
7046,oxolan-2-ylmethyl acetate,357.54999999999984,1.0,CC(=O)OCC1CCCO1,le15
7047,2-phenyl-1H-imidazole,453.55,1.0,c1ccc(-c2ncc[nH]2)cc1,le15
7048,"2-Pentanone, 5-(acetyloxy)- (9CI)",358.54999999999984,1.0,CC(=O)CCCOC(C)=O,le15
7049,ethyl 2-oxopentanoate,344.54999999999984,1.0,CCCC(=O)C(=O)OCC,le15
7050,4-Aminoquinoline,454.35,1.0,Nc1ccnc2ccccc12,le15
7051,2-hydroxypropyl 2-methylprop-2-enoate,360.04999999999984,1.0,C=C(C)C(=O)OCC(C)O,le15
7052,1-phenylimidazole,393.85,1.0,c1ccc(-n2ccnc2)cc1,le15
7053,"Quinoxaline, 2-methyl-",380.15,1.0,Cc1cnc2ccccc2n1,le15
7054,methyl 2-ethyl-3-oxobutanoate,369.25,1.0,CCC(C(C)=O)C(=O)OC,le15
7055,"1-Hexanol, 2,3-epoxy-2-ethyl-",347.04999999999984,1.0,CCCC1OC1(CC)CO,le15
7056,"Isobutyric acid, butyl ester (6CI,7CI,8CI)",319.85,1.0,CCCCOC(=O)C(C)C,le15
7057,"Pentanoic acid, 2-propyl-",384.15,1.0,CCCC(CCC)C(=O)O,le15
7058,"Heptanoic acid, methyl ester",325.15,1.0,CCCCCCC(=O)OC,le15
7059,"2-Pentanol, 4-methyl-, acetate",318.15,1.0,CC(=O)OC(C)CC(C)C,le15
7060,"Butanoic acid, butyl ester",322.5499999999999,1.0,CCCCOC(=O)CCC,le15
7061,heptyl formate,333.15,1.0,CCCCCCCOC=O,le15
7062,"Hexanoic acid, ethyl ester",322.5499999999999,1.0,CCCCCC(=O)OCC,le15
7063,Octanoic acid,380.529,1.0,CCCCCCCC(=O)O,le15
7064,"Hexanoic acid, 2-ethyl-",389.75,1.0,CCCCC(CC)C(=O)O,le15
7065,propyl 3-methylbutanoate,319.85,1.0,CCCOC(=O)CC(C)C,le15
7066,2-Ethoxycyclohexan-1-ol,353.54999999999984,1.0,CCOC1CCCCC1O,le15
7067,"Ethane, 1,2-diisothiocyanato- (9CI)",395.15,1.0,S=C=NCCN=C=S,le15
7068,[3-(hydroxymethyl)cyclohexyl]methanol,404.65,1.0,OCC1CCCC(CO)C1,le15
7069,"Butane, 1-(2-(ethenyloxy)ethoxy)- (9CI)",315.0499999999999,1.0,C=COCCOCCCC,le15
7070,"1,1-diethoxybut-2-ene",312.0499999999999,1.0,CC=CC(OCC)OCC,le15
7071,propan-2-yl 3-methylbutanoate,307.85,1.0,CC(C)CC(=O)OC(C)C,le15
7072,"Propanoic acid, 2-methyl-, 2-methylpropyl ester",307.85,1.0,CC(C)COC(=O)C(C)C,le15
7073,"Valeric acid, propyl ester (8CI)",325.5499999999999,1.0,CCCCC(=O)OCCC,le15
7074,"Acetic acid, hexyl ester",310.35,1.0,CCCCCCOC(C)=O,le15
7075,"Butanoic acid, 2-methylpropyl ester",318.75,1.0,CCCC(=O)OCC(C)C,le15
7076,"Acetic acid, 2-ethylbutyl ester",325.95,1.0,CCC(CC)COC(C)=O,le15
7077,ethyl 4-methylpentanoate,319.85,1.0,CCOC(=O)CCC(C)C,le15
7078,Methylheptanoate,325.0,1.0,CCCCCCC(=O)OC,le15
7079,"Morpholine, 4-(3-aminopropyl)- (8CI)",371.15,1.0,NCCCN1CCOCC1,le15
7080,"1,3-dipropylurea",395.45,1.0,CCCNC(=O)NCCC,le15
7081,4-ethylheptan-4-ol,344.25,1.0,CCCC(O)(CC)CCC,le15
7082,nonan-5-ol,352.65,1.0,CCCCC(O)CCCC,le15
7083,2-methyloctan-2-ol,344.25,1.0,CCCCCCC(C)(C)O,le15
7084,"3,6-dimethylheptan-3-ol",343.15,1.0,CCC(C)(O)CCC(C)C,le15
7085,"3,5,5-trimethylhexan-1-ol",353.15,1.0,CC(CCO)CC(C)(C)C,le15
7086,3-ethylheptan-1-ol,352.65,1.0,CCCCC(CC)CCO,le15
7087,"3-Octanol, 3-methyl-",344.25,1.0,CCCCCC(C)(O)CC,le15
7088,"2,2,3-trimethylhexan-3-ol",331.0499999999999,1.0,CCCC(C)(O)C(C)(C)C,le15
7089,"2-Heptanol, 2,6-dimethyl-",336.15,1.0,CC(C)CCCC(C)(C)O,le15
7090,"2,6-dimethylheptan-3-ol",342.95,1.0,CC(C)CCC(O)C(C)C,le15
7091,"2,4-dimethylheptan-4-ol",343.15,1.0,CCCC(C)(O)CC(C)C,le15
7092,"3,5-dimethylheptan-4-ol",342.95,1.0,CCC(C)C(O)C(C)CC,le15
7093,4-methyloctan-4-ol,344.25,1.0,CCCCC(C)(O)CCC,le15
7094,"4-Heptanol, 2,6-dimethyl-",339.15,1.0,CC(C)CC(O)CC(C)C,le15
7095,Nonyl alcohol,370.92800000000005,1.0,CCCCCCCCCO,le15
7096,"1-Octanol, 7-methyl-",352.65,1.0,CC(C)CCCCCCO,le15
7097,"N,N,N',N',1-Pentamethyltrimethylenediamine",313.75,1.0,CC(CCN(C)C)N(C)C,le15
7098,"octane-1,8-diamine",438.15,1.0,NCCCCCCCCN,le15
7099,"Hydrazine, 1-(1,5-dimethylhexyl)-",373.35,1.0,CC(C)CCCC(C)NN,le15
7100,tetraethylsilane,299.25,1.0,CC[Si](CC)(CC)CC,le15
7101,"Acetonitrile, trichloro-",283.65,1.0,N#CC(Cl)(Cl)Cl,le15
7102,"1,3-Benzenediol, 4-chloro-",394.75,1.0,Oc1ccc(Cl)c(O)c1,le15
7103,"1,4-Benzenediol, 2-chloro-",392.85,1.0,Oc1ccc(O)c(Cl)c1,le15
7104,"1,2-Benzenediol, 4-chloro-",388.45,1.0,Oc1ccc(Cl)cc1O,le15
7105,"Toluene, alpha-chloro-p-fluoro- (8CI)",338.15,1.0,Fc1ccc(CCl)cc1,le15
7106,1-chloro-3-fluoro-2-methylbenzene,320.85,1.0,Cc1c(F)cccc1Cl,le15
7107,(E)-1-chloro-3-ethylpent-1-en-4-yn-3-ol,341.5499999999999,1.0,C#CC(O)(/C=C/Cl)CC,le15
7108,4-chlorobenzenethiol,351.75,1.0,Sc1ccc(Cl)cc1,le15
7109,3-chlorobenzenethiol,363.15,1.0,Sc1cccc(Cl)c1,le15
7110,2-chlorobenzenethiol,361.45,1.0,Sc1ccccc1Cl,le15
7111,"Thiazole, 2-amino-5-nitro-",435.65,1.0,Nc1ncc([N+](=O)[O-])s1,le15
7112,8-Hydroxyquinoline,416.25,1.0,Oc1cccc2cccnc12,le15
7113,5-Hydroxyquinoline,474.85,1.0,Oc1cccc2ncccc12,le15
7114,7-Hydroxyquinoline,416.22,1.0,Oc1ccc2cccnc2c1,le15
7115,4-Hydroxyquinoline,395.45,1.0,Oc1ccnc2ccccc12,le15
7116,"Quinoline, 1-oxide, dihydrate",408.35,1.0,O.O.[O-][n+]1cccc2ccccc21,le15
7117,6-Hydroxyquinoline,416.25,1.0,Oc1ccc2ncccc2c1,le15
7118,"2,3-dimethyl-1H-indole",393.95,1.0,Cc1[nH]c2ccccc2c1C,le15
7119,2-phenylbutanenitrile,378.15,1.0,CCC(C#N)c1ccccc1,le15
7120,"Butyronitrile, 4-phenyl- (8CI)",404.85,1.0,N#CCCCc1ccccc1,le15
7121,ethyl N-butylcarbamate,350.65,1.0,CCCCNC(=O)OCC,le15
7122,"Heptanoic acid, 7-amino-",390.65,1.0,NCCCCCCC(=O)O,le15
7123,"Ethanol, 2-(bis(1-methylethyl)amino)-",343.15,1.0,CC(C)N(CCO)C(C)C,le15
7124,2-(dipropylamino)ethanol,338.75,1.0,CCCN(CCC)CCO,le15
7125,"1,3-Propanediamine, N-(3-aminopropyl)-N-methyl-",375.95,1.0,CN(CCCN)CCCN,le15
7126,"1-Propene, 1,2,3-trichloro-",338.65,1.0,ClC=C(Cl)CCl,le15
7127,"1,1,2-trichloroprop-1-ene",314.95,1.0,CC(Cl)=C(Cl)Cl,le15
7128,"3,3,3-trichloroprop-1-ene",310.85,1.0,C=CC(Cl)(Cl)Cl,le15
7129,"s-Triazine, 2,4-diamino-6-chloro- (8CI)",522.05,1.0,Nc1nc(N)nc(Cl)n1,le15
7130,3-chloro-4-fluoroaniline,422.15,1.0,Nc1ccc(F)c(Cl)c1,le15
7131,"2,2,3,3-tetrafluoropropanoic acid",312.0499999999999,1.0,O=C(O)C(F)(F)C(F)F,le15
7132,"1-ethoxy-1,1,2,2-tetrafluoroethane",330.15,1.0,CCOC(F)(F)C(F)F,le15
7133,"Toluene, alpha,alpha,alpha-trifluoro-",285.15,1.0,FC(F)(F)c1ccccc1,le15
7134,2H-1-Benzopyran-2-one,435.15,1.0,O=c1ccc2ccccc2o1,le15
7135,isochromen-1-one,376.65,1.0,O=c1occc2ccccc12,le15
7136,"Ethanedioic acid, 1,2-diethyl ester",349.15,1.0,CCOC(=O)C(=O)OCC,le15
7137,"Butanedioic acid, dimethyl ester",361.55,1.0,COC(=O)CCC(=O)OC,le15
7138,"Ethylene glycol, diacetate",355.15,1.0,CC(=O)OCCOC(C)=O,le15
7139,1(2H)-Phthalazinone,483.05,1.0,O=c1[nH]ncc2ccccc12,le15
7140,Hexanedioic acid,445.895,1.0,O=C(O)CCCCC(=O)O,le15
7141,4-Hydroxyquinazoline,410.45,1.0,Oc1ncnc2ccccc12,le15
7142,1-acetyloxyethyl acetate,351.35,1.0,CC(=O)OC(C)OC(C)=O,le15
7143,dimethyl 2-methylpropanedioate,349.25,1.0,COC(=O)C(C)C(=O)OC,le15
7144,"1,3,4-Oxadiazole, 2-phenyl-",384.15,1.0,c1ccc(-c2nnco2)cc1,le15
7145,"Benzamide, p-cyano- (8CI)",438.75,1.0,N#Cc1ccc(C(N)=O)cc1,le15
7146,1-fluoronaphthalene,338.75,1.0,Fc1cccc2ccccc12,le15
7147,2-fluoronaphthalene,338.5499999999999,1.0,Fc1ccc2ccccc2c1,le15
7148,"4-Thiazolecarboxylic acid, 2-amino-4,5-dihydro-",472.45,1.0,NC1=NC(C(=O)O)CS1,le15
7149,"3-Buten-2-one, 4-phenyl-",338.75,1.0,CC(=O)C=Cc1ccccc1,le15
7150,"Benzenemethanol, alpha-ethynyl-alpha-methyl-",369.15,1.0,C#CC(C)(O)c1ccccc1,le15
7151,"1,2,3,4-Tetrahydronaphthalen-1-one",377.75,1.0,O=C1CCCc2ccccc21,le15
7152,(E)-4-phenylbut-3-en-2-one,338.75,1.0,CC(=O)/C=C/c1ccccc1,le15
7153,"4,7-dimethyl-1-benzofuran",359.54999999999984,1.0,Cc1ccc(C)c2occc12,le15
7154,"2-Propenal, 2-methyl-3-phenyl-",363.45,1.0,CC(C=O)=Cc1ccccc1,le15
7155,"5,6-dimethyl-1-benzofuran",361.85,1.0,Cc1cc2ccoc2cc1C,le15
7156,"Propanoic acid, 2-hydroxy-, butyl ester",344.15,1.0,CCCCOC(=O)C(C)O,le15
7157,"Pyridine, 3-(3,4-dihydro-2H-pyrrol-5-yl)- (9CI)",374.95,1.0,c1cncc(C2=NCCC2)c1,le15
7158,dipropyl carbonate,328.15,1.0,CCCOC(=O)OCCC,le15
7159,"Propanoic acid, 3-ethoxy-, ethyl ester",325.35,1.0,CCOCCC(=O)OCC,le15
7160,"Propanenitrile, 3-(phenylamino)-",426.05,1.0,N#CCCNc1ccccc1,le15
7161,4-(dimethylamino)benzonitrile,418.55,1.0,CN(C)c1ccc(C#N)cc1,le15
7162,"m-Dioxane-4-ethanol, 4-methyl-",374.65,1.0,CC1(CCO)CCOCO1,le15
7163,"1-Butanol, 3-methoxy-, acetate",329.0499999999999,1.0,COC(C)CCOC(C)=O,le15
7164,"2-Propenal, phenylhydrazone (9CI)",375.25,1.0,C=CC=NNc1ccccc1,le15
7165,"2,6-dimethyl-1H-benzimidazole",459.764,1.0,Cc1ccc2nc(C)[nH]c2c1,le15
7166,"(2S)-2,6-diaminohexanoic acid",415.35,1.0,NCCCC[C@H](N)C(=O)O,le15
7167,DL-Lysine,415.366,1.0,NCCCCC(N)C(=O)O,le15
7168,"2-Propenoic acid, 2-(methylthio)ethyl ester (9CI)",360.85,1.0,C=CC(=O)OCCSC,le15
7169,"2-ethenyl-1,3,5-trimethylbenzene",344.95,1.0,C=Cc1c(C)cc(C)cc1C,le15
7170,"1-methyl-1,2,3,4-tetrahydronaphthalene",352.25,1.0,CC1CCCc2ccccc21,le15
7171,"6-methyl-1,2,3,4-tetrahydronaphthalene",365.45,1.0,Cc1ccc2c(c1)CCCC2,le15
7172,1-ethenyl-4-propan-2-ylbenzene,343.25,1.0,C=Cc1ccc(C(C)C)cc1,le15
7173,"2-methyl-1,2,3,4-tetrahydronaphthalene",352.85,1.0,CC1CCc2ccccc2C1,le15
7174,"1-ethyl-2,3-dihydro-1H-indene",348.65,1.0,CCC1CCc2ccccc21,le15
7175,"3,3-dimethyl-1,2-dihydroindene",336.75,1.0,CC1(C)CCc2ccccc21,le15
7176,pent-1-en-3-ylbenzene,333.75,1.0,C=CC(CC)c1ccccc1,le15
7177,"5-methyl-1,2,3,4-tetrahydronaphthalene",367.35,1.0,Cc1cccc2c1CCCC2,le15
7178,"1,3-Hexanediol, 2-ethyl-",402.55,1.0,CCCC(O)C(CC)CO,le15
7179,"2,5-dimethylhexane-2,5-diol",399.85,1.0,CC(C)(O)CCC(C)(C)O,le15
7180,"Peroxide, bis(1,1-dimethylethyl)",302.85,1.0,CC(C)(C)OOC(C)(C)C,le15
7181,"Ethanol, 2-(hexyloxy)-",372.05,1.0,CCCCCCOCCO,le15
7182,"Ethanol, 2-(2-ethylbutoxy)-",331.25,1.0,CCC(CC)COCCO,le15
7183,Ditertbutylperoxide,285.0,1.0,CC(C)(C)OOC(C)(C)C,le15
7184,1-amino-3-(diethylamino)propan-2-ol,361.85,1.0,CCN(CC)CC(O)CN,le15
7185,"1,2-Ethanediamine, N,N'-bis(2-aminoethyl)-",422.15,1.0,NCCNCCNCCN,le15
7186,1-fluorononane,358.45,1.0,CCCCCCCCCF,le15