,compound,flashpoint,pure substance,smiles,source
14100,Allylchloride,241.15,1.0,C=CCCl,le15
14101,AllylChloromethylDimethylSilane,300.15,1.0,C=CC[Si](C)(C)CCl,le15
14102,AllylDimethylChloroSilane,278.15,1.0,C=CC[Si](C)(C)Cl,le15
14103,AllylDimethylSilane-,253.15,1.0,C=CC[SiH](C)C,le15
14104,AllylIsothiocyanate,319.25,1.0,C=CCN=C=S,le15
14105,AllylMethylDichloroSilane,300.15,1.0,C=CCC[SiH](Cl)Cl,le15
14106,AllyloxytrimethylSilane,273.15,1.0,C=CCO[Si](C)(C)C,le15
14107,AllylPhenylDichloroSilane,349.15,1.0,C=CC[Si](Cl)(Cl)c1ccccc1,le15
14108,AllylTrichloroSilane,304.15,1.0,C=CC[Si](Cl)(Cl)Cl,le15
14109,AllylTriethoxySilane,320.15,1.0,C=CC[Si](OCC)(OCC)OCC,le15
14110,AllylTrimethoxySilane,319.15,1.0,C=CC[Si](OC)(OC)OC,le15
14111,AllylTrimethylSilane,280.15,1.0,C=CC[Si](C)(C)C,le15
14112,alphaMethylstyrene,327.0499999999999,1.0,C=C(C)c1ccccc1,le15
14113,AminoethylAminopropylTrimethoxySilane,369.15,1.0,CO[Si](CCCNCCN)(OC)OC,le15
14114,Aniline,343.15,1.0,Nc1ccccc1,le15
14115,Anthracene,394.15,1.0,c1ccc2cc3ccccc3cc2c1,le15
14116,Anthraquinone,458.15,1.0,O=C1c2ccccc2C(=O)c2ccccc21,le15
14117,Aziridine,262.04999999999995,1.0,C1CN1,le15
14118,Benzaldehyde,336.15,1.0,O=Cc1ccccc1,le15
14119,Benzene,262.15,1.0,c1ccccc1,le15
14120,BenzoicAcid,394.15,1.0,O=C(O)c1ccccc1,le15
14121,Benzonitrile,344.85,1.0,N#Cc1ccccc1,le15
14122,Benzoylchloride,345.15,1.0,O=C(Cl)c1ccccc1,le15
14123,Benzylacetate,363.75,1.0,O=C([O-])CCc1ccccc1,le15
14124,Benzylbenzoate,421.15,1.0,O=C(OCc1ccccc1)c1ccccc1,le15
14125,Benzylchloride,340.15,1.0,ClCc1ccccc1,le15
14126,BenzylDimethylChloroSilane,346.15,1.0,C[Si](C)(Cl)Cc1ccccc1,le15
14127,BenzylDimethylSilane,338.15,1.0,C[SiH](C)Cc1ccccc1,le15
14128,BenzylTrichloroSilane,360.15,1.0,Cl[Si](Cl)(Cl)Cc1ccccc1,le15
14129,BenzylTrimethylSilane,335.15,1.0,C[Si](C)(C)Cc1ccccc1,le15
14130,Bicyclohexyl,365.0,1.0,C1CCC(C2CCCCC2)CC1,le15
14131,BischloromethylDimethylSilane,319.15,1.0,C[Si](C)(CCl)CCl,le15
14132,bisChloromethylMethylChloroSilane,315.15,1.0,C[Si](Cl)(CCl)CCl,le15
14133,BisDiethylaminoDimethylSilane,308.15,1.0,CCN(CC)[Si](C)(C)N(CC)CC,le15
14134,BisDimethylaminoDimethylSilane-,266.15,1.0,CN(C)[Si](C)(C)N(C)C,le15
14135,BisDimethylaminoMethylSilane-,270.15,1.0,CN(C)C([SiH3])N(C)C,le15
14136,BistrimethylsilylCarbodiimide,315.15,1.0,C[Si](C)(C)N=C=N[Si](C)(C)C,le15
14137,BisTrimethylsilylMethane,285.15,1.0,C[Si](C)(C)C[Si](C)(C)C,le15
14138,Bromobenzene,324.15,1.0,Brc1ccccc1,le15
14139,Bromomethyldimethylchlorosilane,314.15,1.0,C[Si](C)(Cl)CBr,le15
14140,BromomethylTrimethylSilane,289.15,1.0,C[Si](C)(C)CBr,le15
14141,Bromopentafluorobenzene,360.15,1.0,Fc1c(F)c(F)c(Br)c(F)c1F,le15
14142,Butylacetate,297.15,1.0,CCCCOC(C)=O,le15
14143,Butylacrylate,312.0,1.0,C=CC(=O)OCCCC,le15
14144,Butylamine,272.15,1.0,CCCCN,le15
14145,Butylchloride,263.75,1.0,CCCCCl,le15
14146,ButylDimethylAmine-,270.15,1.0,CCCCN(C)C,le15
14147,Butylethylether,277.54999999999995,1.0,CCCCOCC,le15
14148,Butylformate,291.15,1.0,CCCCOC=O,le15
14149,ButylIsocyanate,299.85,1.0,CCCCN=C=O,le15
14150,ButylIsothiocyanate,338.75,1.0,CCCCN=C=S,le15
14151,ButylIsovalerate,326.15,1.0,CCCCOC(=O)CC(C)C,le15
14152,butylnitrate,309.25,1.0,CCCCO[N+](=O)[O-],le15
14153,Butylpropionate,305.15,1.0,CCCCOC(=O)CC,le15
14154,Butyraldehyde,266.45,1.0,CCCC=O,le15
14155,Butyricacid,350.15,1.0,CCCC(=O)O,le15
14156,Butyronitrile,289.85,1.0,CCCC#N,le15
14157,Chlorobenzene,302.15,1.0,Clc1ccccc1,le15
14158,Chlorocyclohexane,305.15,1.0,ClC1CCCCC1,le15
14159,ChloromethylBenzene,333.15,1.0,ClCc1ccccc1,le15
14160,ChloromethylDimethylchlorosilane,294.15,1.0,C[Si](C)(Cl)CCl,le15
14161,ChloromethylDimethylEthoxySilane,299.15,1.0,CCO[Si](C)(C)CCl,le15
14162,ChloromethylDimethylPhenylSilane,326.15,1.0,C[Si](C)(CCl)c1ccccc1,le15
14163,Chloromethylmethyldichlorosilane,293.15,1.0,C[Si](Cl)(Cl)CCl,le15
14164,ChloromethylMethylDiethoxySilane,311.15,1.0,CCO[Si](C)(CCl)OCC,le15
14165,ChloromethylTriethoxySilane,320.15,1.0,CCO[Si](CCl)(OCC)OCC,le15
14166,ChloromethylTrimethoxySilane,299.15,1.0,CO[Si](CCl)(OC)OC,le15
14167,ChloromethylTrimethylSilane-,271.15,1.0,C[Si](C)(C)CCl,le15
14168,cisDecalin,331.15,1.0,C1CC[C@H]2CCCC[C@H]2C1,le15
14169,Crotonaldehyde,286.15,1.0,C/C=C/C=O,le15
14170,Cumene,309.15,1.0,CC(C)c1ccccc1,le15
14171,Cyclohexane,253.15,1.0,C1CCCCC1,le15
14172,Cyclohexanol,341.15,1.0,OC1CCCCC1,le15
14173,Cyclohexanone,317.15,1.0,O=C1CCCCC1,le15
14174,Cyclohexyl ,488.05,1.0,[CH]1CCCCC1,le15
14175,CyclohexylAcetate,331.15,1.0,O=C([O-])CC1CCCCC1,le15
14176,CyclohexylBenzene,372.15,1.0,c1ccc(C2CCCCC2)cc1,le15
14177,CyclohexylDimethylSilane,336.15,1.0,C[SiH](C)C1CCCCC1,le15
14178,CyclohexylIsocyanate,322.0499999999999,1.0,O=C=NC1CCCCC1,le15
14179,CyclohexylMethylDichloroSilane,339.15,1.0,Cl[SiH](Cl)CC1CCCCC1,le15
14180,CyclohexylMethylDimethoxySilane,339.15,1.0,CO[SiH](CC1CCCCC1)OC,le15
14181,CyclohexylTrichloroSilane,364.15,1.0,Cl[Si](Cl)(Cl)C1CCCCC1,le15
14182,CyclopentadienylTrimethylSilane,302.15,1.0,C[Si](C)(C)C1C=CC=C1,le15
14183,Cyclopentane,236.15,1.0,C1CCCC1,le15
14184,Cyclopentanol,324.15,1.0,OC1CCCC1,le15
14185,Cyclopentanone,299.15,1.0,O=C1CCCC1,le15
14186,CyclopentenyloxyTrimethylSilane,311.15,1.0,C[Si](C)(C)OC1=CCCC1,le15
14187,CyclopentylDichloroSilane,316.15,1.0,Cl[SiH](Cl)C1CCCC1,le15
14188,CyclopentylTrichloroSilane,350.15,1.0,Cl[Si](Cl)(Cl)C1CCCC1,le15
14189,Cyclopropanecarbonitrile,305.95,1.0,N#CC1CC1,le15
14190,DecamethylCyclopentasiloxane,350.15,1.0,C[Si]1(C)O[Si](C)(C)O[Si](C)(C)O[Si](C)(C)O[Si](C)(C)O1,le15
14191,DecamethylTetraSiloxane,335.15,1.0,C[Si](C)(C)O[Si](C)(C)O[Si](C)(C)O[Si](C)(C)C,le15
14192,Decane,321.15,1.0,CCCCCCCCCC,le15
14193,Decylamine,372.15,1.0,CCCCCCCCCCN,le15
14194,Diallylphthalate,438.75,1.0,C=CCOC(=O)c1ccccc1C(=O)OCC=C,le15
14195,DiallylSulfide,319.25,1.0,C=CCSCC=C,le15
14196,Dibenzylether,408.15,1.0,c1ccc(COCc2ccccc2)cc1,le15
14197,Dibutoxymethane,333.15,1.0,CCCCOCOCCCC,le15
14198,Dibutylamine,313.15,1.0,CCCCNCCCC,le15
14199,Dibutyldisulfide,366.45,1.0,CCCCSSCCCC,le15
14200,Dibutylether,298.15,1.0,CCCCOCCCC,le15
14201,Dibutylsebacate,440.0,1.0,CCCCOC(=O)CCCCCCCCC(=O)OCCCC,le15
14202,Dibutylsulfide,349.85,1.0,CCCCSCCCC,le15
14203,Dibutylsulfone,416.15,1.0,CCCCS(=O)(=O)CCCC,le15
14204,DichloroAcetaldehyde,333.15,1.0,O=CC(Cl)Cl,le15
14205,Dichloroacetylchloride,339.25,1.0,O=C(Cl)C(Cl)Cl,le15
14206,DichloromethylBenzene,353.15,1.0,ClC(Cl)c1ccccc1,le15
14207,DichloromethylMethylDichloroSilane,301.15,1.0,C[Si](Cl)(Cl)C(Cl)Cl,le15
14208,DichloroSilane-,236.15,1.0,Cl[SiH2]Cl,le15
14209,Diethylamine,250.15,1.0,CCNCC,le15
14210,DiethylaminoTrimethylSilane,283.15,1.0,CCN(CC)[Si](C)(C)C,le15
14211,DiethylDichloroSilane,300.15,1.0,CC[Si](Cl)(Cl)CC,le15
14212,DiethylDiethoxySilane,316.15,1.0,CCO[Si](CC)(CC)OCC,le15
14213,DiethyleneGlycol,397.15,1.0,OCCOCCO,le15
14214,Diethylenetriamine,371.15,1.0,NCCNCCN,le15
14215,Diethylether,228.15,1.0,CCOCC,le15
14216,DiethylMethylChloroSilane,288.15,1.0,CC[Si](C)(Cl)CC,le15
14217,DiethylPhosphate,364.15,1.0,CCOP(=O)([O-])OCC,le15
14218,DiethylSilane-,253.15,1.0,CC[SiH2]CC,le15
14219,Diethylsulfide,263.75,1.0,CCSCC,le15
14220,Dihexylether,350.15,1.0,CCCCCCOCCCCCC,le15
14221,Diisobutylamine,302.15,1.0,CC(C)CNCC(C)C,le15
14222,Diisopropylamine,272.15,1.0,CC(C)NC(C)C,le15
14223,DiisopropylaminoTrimethylSilane,301.15,1.0,CC(C)N(C(C)C)[Si](C)(C)C,le15
14224,Dimethoxymethane,255.0,1.0,COCOC,le15
14225,DimethylChloroSilane-,248.15,1.0,C[SiH](C)Cl,le15
14226,DimethylDiacetoxySilane,310.15,1.0,CC(=O)O[Si](C)(C)OC(C)=O,le15
14227,Dimethyldichlorosilane-,263.15,1.0,C[Si](C)(Cl)Cl,le15
14228,DimethylDiethoxySilane,284.15,1.0,CCO[Si](C)(C)OCC,le15
14229,DimethylDimethoxySilane-,265.15,1.0,CO[Si](C)(C)OC,le15
14230,Dimethylether,232.15,1.0,COC,le15
14231,DimethylolUrea,505.15,1.0,O=C(NCO)NCO,le15
14232,Dimethylsulfide,237.15,1.0,CSC,le15
14233,DimethylVinylChloroSilane-,268.15,1.0,CC(C)=C[SiH2]Cl,le15
14234,Dipentylamine,324.15,1.0,CCCCCNCCCCC,le15
14235,Diphenylamine,425.95,1.0,c1ccc(Nc2ccccc2)cc1,le15
14236,Diphenylether,388.15,1.0,c1ccc(Oc2ccccc2)cc1,le15
14237,DiphenylSilane,371.15,1.0,c1ccc([SiH2]c2ccccc2)cc1,le15
14238,Dipropylamine,290.15,1.0,CCCNCCC,le15
14239,Dipropylether,294.25,1.0,CCCOCCC,le15
14240,DipropylSulfone,399.15,1.0,CCCS(=O)(=O)CCC,le15
14241,Ditertbutylsulfide,321.15,1.0,CC(C)(C)SC(C)(C)C,le15
14242,DivinylDimethylSilane,281.15,1.0,C=C[Si](C)(C)C=C,le15
14243,DodecamethylCyclohexasiloxane,366.15,1.0,C[Si]1(C)O[Si](C)(C)O[Si](C)(C)O[Si](C)(C)O[Si](C)(C)O[Si](C)(C)O1,le15
14244,DodecamethylPentasiloxane,352.15,1.0,C[Si](C)(C)O[Si](C)(C)O[Si](C)(C)O[Si](C)(C)O[Si](C)(C)C,le15
14245,Dodecane,344.15,1.0,CCCCCCCCCCCC,le15
14246,Ethanethiol,256.15,1.0,CCS,le15
14247,ethanol,286.15,1.0,CCO,le15
14248,EthenylBenzene,305.15,1.0,C=Cc1ccccc1,le15
14249,EthoxyBenzene,325.15,1.0,CCOc1ccccc1,le15
14250,EthoxymethylBenzene,332.15,1.0,CCOCc1ccccc1,le15
14251,EthoxyTrimethylSilane-,246.15,1.0,CCO[Si](C)(C)C,le15
14252,Ethyl2trimethylsilylAcetate,308.15,1.0,CCOC(=O)C[Si](C)(C)C,le15
14253,Ethylacetate,270.15,1.0,CCOC(C)=O,le15
14254,Ethylacetoacetate,330.35,1.0,CCOC(=O)CC(C)=O,le15
14255,Ethylacetylglycolate,355.15,1.0,CCCC(=O)C(O)C(=O)[O-],le15
14256,Ethylacrylate,288.75,1.0,C=CC(=O)OCC,le15
14257,Ethylbenzene,288.15,1.0,CCc1ccccc1,le15
14258,Ethylbenzoate,361.15,1.0,CCOC(=O)c1ccccc1,le15
14259,Ethylbromoacetate,320.95,1.0,CCOC(=O)CBr,le15
14260,Ethylbutyrate,297.15,1.0,CCCC(=O)OCC,le15
14261,Ethylchloride,230.15,1.0,CCCl,le15
14262,EthylChloroformate,289.15,1.0,CCOC(=O)Cl,le15
14263,ethylcrotonate,275.35,1.0,C/C=C/C(=O)OCC,le15
14264,Ethylcyanoacetate,383.15,1.0,CCOC(=O)CC#N,le15
14265,ethylcyclohexane,308.15,1.0,CCC1CCCCC1,le15
14266,Ethyldichlorosilane-,264.15,1.0,CC[SiH](Cl)Cl,le15
14267,EthylDimethylChloroSilane-,269.15,1.0,CC[Si](C)(C)Cl,le15
14268,EthylDimethylSilane-,248.15,1.0,CC[SiH](C)C,le15
14269,Ethylformate,253.15,1.0,CCOC=O,le15
14270,EthylIsobutyrate,286.0,1.0,CCOC(=O)C(C)C,le15
14271,Ethyllactate,319.15,1.0,CCOC(=O)C(C)O,le15
14272,Ethylmethyldichlorosilane,275.15,1.0,CC[Si](C)(Cl)Cl,le15
14273,Ethylmethylether,235.95,1.0,CCOC,le15
14274,Ethylnitrate,283.15,1.0,CCO[N+](=O)[O-],le15
14275,Ethylpropionate,285.15,1.0,CCOC(=O)CC,le15
14276,EthylSilane-,213.15,1.0,CC[SiH3],le15
14277,Ethyltrichlorosilane,300.15,1.0,CC[Si](Cl)(Cl)Cl,le15
14278,EthylTriethoxySilane,313.15,1.0,CCO[Si](CC)(OCC)OCC,le15
14279,EthylTrimethoxySilane,300.15,1.0,CC[Si](OC)(OC)OC,le15
14280,EthylTrimethylSilane,300.15,1.0,CC[Si](C)(C)C,le15
14281,Ethylvinylether,255.15,1.0,C=COCC,le15
14282,Ethynylbenzene,304.15,1.0,C#Cc1ccccc1,le15
14283,Fluorobenzene,258.15,1.0,Fc1ccccc1,le15
14284,Furfurylacetate,358.15,1.0,O=C([O-])CCc1ccco1,le15
14285,Heptadecane,421.15,1.0,CCCCCCCCCCCCCCCCC,le15
14286,HeptamethylDisilazane,300.15,1.0,CN([Si](C)(C)C)[Si](C)(C)C,le15
14287,HeptamethylTrisiloxane,296.15,1.0,C[SiH](C)O[Si](C)(C)O[Si](C)(C)C,le15
14288,Heptane,272.15,1.0,CCCCCCC,le15
14289,Heptanoicacid,385.15,1.0,CCCCCCC(=O)O,le15
14290,HeptylAcetate,340.15,1.0,CCCCCCCOC(C)=O,le15
14291,Hexadecane,408.15,1.0,CCCCCCCCCCCCCCCC,le15
14292,HexaethylDisiloxane,349.15,1.0,CC[Si](CC)(CC)O[Si](CC)(CC)CC,le15
14293,HexafluoroBenzene,283.15,1.0,Fc1c(F)c(F)c(F)c(F)c1F,le15
14294,HexamethylCycloTrisiloxane,305.15,1.0,C[Si]1(C)O[Si](C)(C)O[Si](C)(C)O1,le15
14295,HexamethylDisilane-,272.15,1.0,C[Si](C)(C)[Si](C)(C)C,le15
14296,HexamethylDisilaThiane,299.15,1.0,C[Si](C)(C)S[Si](C)(C)C,le15
14297,HexamethylDisilazane,281.15,1.0,C[Si](C)(C)N[Si](C)(C)C,le15
14298,Hexamethyleneimine,291.0,1.0,C1CCCNCC1,le15
14299,HexamethylTrisiloxane,293.15,1.0,C[Si](C)(C)O[SiH2]O[Si](C)(C)C,le15
14300,hexane,250.15,1.0,CCCCCC,le15
14301,Hexanenitrile,316.15,1.0,CCCCCC#N,le15
14302,Hexanoicacid,377.15,1.0,CCCCCC(=O)O,le15
14303,Hexylacetate,318.15,1.0,CCCCCCOC(C)=O,le15
14304,Hexylamine,282.0499999999999,1.0,CCCCCCN,le15
14305,Hexylbenzene,353.15,1.0,CCCCCCc1ccccc1,le15
14306,HexylDichloroSilane,337.15,1.0,CCCCCC[SiH](Cl)Cl,le15
14307,HexylSilane,285.15,1.0,CCCCCC[SiH3],le15
14308,HexylTrifluoroSilane-,266.15,1.0,CCCCCC[Si](F)(F)F,le15
14309,HexylTrimethoxySilane,335.15,1.0,CCCCCC[Si](OC)(OC)OC,le15
14310,hydroxyacetaldehyde,360.15,1.0,O=CCO,le15
14311,Iodobenzene,347.15,1.0,Ic1ccccc1,le15
14312,Isobutenal,273.0,1.0,C=C(C)C=O,le15
14313,Isobutylacetate,291.15,1.0,CC(=O)OCC(C)C,le15
14314,Isobutylalcohol,301.15,1.0,CC(C)CO,le15
14315,Isobutylamine,264.15,1.0,CC(C)CN,le15
14316,Isobutylbenzene,328.15,1.0,CC(C)Cc1ccccc1,le15
14317,IsobutylButyrate,323.15,1.0,CCCC(=O)OCC(C)C,le15
14318,Isobutylformate,283.0,1.0,CC(C)COC=O,le15
14319,Isobutylisobutyrate,313.0,1.0,CC(C)COC(=O)C(C)C,le15
14320,IsobutylTrichloroSilane,310.15,1.0,CC(C)C[Si](Cl)(Cl)Cl,le15
14321,IsobutylTrimethoxySilane,315.15,1.0,CO[Si](CC(C)C)(OC)OC,le15
14322,Isobutylvinylether,264.15,1.0,C=COCC(C)C,le15
14323,Isobutyraldehyde,254.85,1.0,CC(C)C=O,le15
14324,Isobutyricacid,328.75,1.0,CC(C)C(=O)O,le15
14325,Isobutyronitrile,281.0,1.0,CC(C)C#N,le15
14326,Isocyanatobenzene,324.15,1.0,O=C=Nc1ccccc1,le15
14327,Isopentylacetate,298.15,1.0,CC(=O)OCCC(C)C,le15
14328,Isopentylalcohol,316.15,1.0,CC(C)CCO,le15
14329,Isopentylbutyrate,332.15,1.0,CCCC(=O)OCCC(C)C,le15
14330,Isoprene,219.15,1.0,C=CC(=C)C,le15
14331,IsopropenylAcetate,288.75,1.0,C=C(C)CC(=O)[O-],le15
14332,Isopropylacetate,275.15,1.0,CC(=O)OC(C)C,le15
14333,Isopropylamine,256.15,1.0,CC(C)N,le15
14334,Isopropylbenzoate,372.05,1.0,CC(C)OC(=O)c1ccccc1,le15
14335,Isopropylchloride,241.15,1.0,CC(C)Cl,le15
14336,Isopropylether,244.0,1.0,CC(C)OC(C)C,le15
14337,Isopropylformate,267.15,1.0,CC(C)OC=O,le15
14338,IsopropylVinylether,241.15,1.0,C=COC(C)C,le15
14339,IsovalericAcid,343.0,1.0,CC(C)CC(=O)O,le15
14340,Mesitylene,317.0,1.0,Cc1cc(C)cc(C)c1,le15
14341,Methacrolein,258.15,1.0,C=C(C)C=O,le15
14342,MethacryloxymethylTrimethylSilane,318.15,1.0,C=C(C)C(=O)OC[Si](C)(C)C,le15
14343,Methanol,284.15,1.0,CO,le15
14344,Methoxybenzene,324.15,1.0,COc1ccccc1,le15
14345,MethoxyTrimethylSilane-,243.15,1.0,CO[Si](C)(C)C,le15
14346,Methyl2propenoat-,270.15,1.0,C=CC(=O)OC,le15
14347,methylacetate,263.15,1.0,COC(C)=O,le15
14348,Methylacrylate,279.15,1.0,C=CC(=O)OC,le15
14349,Methylbenzene,277.15,1.0,Cc1ccccc1,le15
14350,Methylbenzoate,356.15,1.0,COC(=O)c1ccccc1,le15
14351,Methylbutyrate,287.15,1.0,CCCC(=O)OC,le15
14352,methylcyclohexane,269.15,1.0,CC1CCCCC1,le15
14353,MethyldichloroSilane-,241.15,1.0,C[SiH](Cl)Cl,le15
14354,Methylformate,254.15,1.0,COC=O,le15
14355,MethylIsocyanate,255.15,1.0,CN=C=O,le15
14356,MethylIsopropenylKetone,286.0,1.0,C=C(C)C(C)=O,le15
14357,Methylisothiocyanate,305.35,1.0,CN=C=S,le15
14358,Methylpropionate,271.15,1.0,CCC(=O)OC,le15
14359,methylpropylether,253.15,1.0,CCCOC,le15
14360,Methylsalicylate,369.15,1.0,COc1ccccc1C(=O)[O-],le15
14361,methylsecbutylether,243.0,1.0,CCC(C)OC,le15
14362,MethylthioBenzene,342.15,1.0,CSc1ccccc1,le15
14363,MethylTriacetoxySilane,358.15,1.0,CC(=O)O[Si](C)(OC(C)=O)OC(C)=O,le15
14364,Methyltrichlorosilane,276.15,1.0,C[Si](Cl)(Cl)Cl,le15
14365,MethylTriethoxySilane,297.15,1.0,CCO[Si](C)(OCC)OCC,le15
14366,MethylVinylDimethoxySilane,277.15,1.0,CC=C[SiH](OC)OC,le15
14367,Methylvinylketone,266.15,1.0,C=CC(C)=O,le15
14368,Nitrobenzene,360.95,1.0,O=[N+]([O-])c1ccccc1,le15
14369,Nitroethane,301.15,1.0,CC[N+](=O)[O-],le15
14370,Nonadecane,439.15,1.0,CCCCCCCCCCCCCCCCCCC,le15
14371,Nonane,304.15,1.0,CCCCCCCCC,le15
14372,NonylAcetate,372.15,1.0,CCCCCCCCCOC(C)=O,le15
14373,Nonylbenzene,372.15,1.0,CCCCCCCCCc1ccccc1,le15
14374,Nonylphenol,413.75,1.0,CCCCCCCCCc1ccccc1O,le15
14375,Octadecane,438.15,1.0,CCCCCCCCCCCCCCCCCC,le15
14376,OctamethylCyclotetrasilazane,339.15,1.0,C[Si]1(C)N[Si](C)(C)N[Si](C)(C)N[Si](C)(C)N1,le15
14377,OctamethylCyclotetrasiloxane,330.15,1.0,C[Si]1(C)O[Si](C)(C)O[Si](C)(C)O[Si](C)(C)O1,le15
14378,OctamethylTrisiloxane,303.15,1.0,C[Si](C)(C)O[Si](C)(C)O[Si](C)(C)C,le15
14379,Octane,288.15,1.0,CCCCCCCC,le15
14380,OctanoicAcid,254.15,1.0,CCCCCCCC(=O)O,le15
14381,Octanoylchloride,355.15,1.0,CCCCCCCC(=O)Cl,le15
14382,OctylAcetate,359.15,1.0,CCCCCCCCOC(C)=O,le15
14383,Pentadecane,405.15,1.0,CCCCCCCCCCCCCCC,le15
14384,Pentane,224.15,1.0,CCCCC,le15
14385,Pentanenitrile,313.75,1.0,CCCCC#N,le15
14386,PentanoicAcid,361.15,1.0,CCCCC(=O)O,le15
14387,PentylAcetate,297.0499999999999,1.0,CCCCCOC(C)=O,le15
14388,Pentylbenzene,338.15,1.0,CCCCCc1ccccc1,le15
14389,Pentylformate,299.85,1.0,CCCCCOC=O,le15
14390,Pentylsalicylate,405.15,1.0,CCCCCOc1ccccc1C(=O)[O-],le15
14391,PhenacylChloride,391.15,1.0,O=C(CCl)c1ccccc1,le15
14392,PhenethylDimethylChloroSilane,343.15,1.0,C[Si](C)(Cl)CCc1ccccc1,le15
14393,PhenethylMethylDichloroSilane,353.15,1.0,Cl[SiH](Cl)CCCc1ccccc1,le15
14394,PhenethylTrichloroSilane,364.15,1.0,Cl[Si](Cl)(Cl)CCc1ccccc1,le15
14395,Phenetole,335.95,1.0,CCOc1ccccc1,le15
14396,Phenol,352.15,1.0,Oc1ccccc1,le15
14397,PhenylAcetate,353.15,1.0,O=C([O-])Cc1ccccc1,le15
14398,PhenylDichloroSilane,321.15,1.0,Cl[SiH](Cl)c1ccccc1,le15
14399,PhenylDimethylAcetoxySilane,345.15,1.0,CC(C)C(=O)O[SiH2]c1ccccc1,le15
14400,PhenylDimethylChloroSilane,334.15,1.0,C[Si](C)(Cl)c1ccccc1,le15
14401,PhenylDimethylSilane,311.15,1.0,C[SiH](C)c1ccccc1,le15
14402,PhenylEthylDichloroSilane,365.15,1.0,Cl[SiH](Cl)CCc1ccccc1,le15
14403,PhenylIsothiocyanate,360.95,1.0,S=C=Nc1ccccc1,le15
14404,Phenylmethanethiol,343.15,1.0,SCc1ccccc1,le15
14405,PhenylmethylAcetate,363.15,1.0,CC(=O)OCc1ccccc1,le15
14406,PhenylMethylChloroSilane,335.15,1.0,Cl[SiH2]Cc1ccccc1,le15
14407,PhenylMethylDichloroSilane,355.15,1.0,Cl[SiH](Cl)Cc1ccccc1,le15
14408,PhenylMethylDiethoxySilane,362.15,1.0,CCO[SiH](Cc1ccccc1)OCC,le15
14409,PhenylMethylSilane,298.15,1.0,[SiH3]Cc1ccccc1,le15
14410,PhenylSilane,281.15,1.0,[SiH3]c1ccccc1,le15
14411,PhenylTrichloroSilane,364.15,1.0,Cl[Si](Cl)(Cl)c1ccccc1,le15
14412,PhenylTriethoxySilane,369.15,1.0,CCO[Si](OCC)(OCC)c1ccccc1,le15
14413,PhenylTrifluoroSilane-,283.15,1.0,F[Si](F)(F)c1ccccc1,le15
14414,PhenylTrimethoxySilane,359.15,1.0,CO[Si](OC)(OC)c1ccccc1,le15
14415,Piperidine,289.15,1.0,C1CCNCC1,le15
14416,PropanoicAcid,324.15,1.0,CCC(=O)O,le15
14417,PropargyloxytrimethylSilane,300.15,1.0,C#CCO[Si](C)(C)C,le15
14418,Propionaldehyde,243.15,1.0,CCC=O,le15
14419,Propionitrile,275.15,1.0,CCC#N,le15
14420,Propionylchloride,285.15,1.0,CCC(=O)Cl,le15
14421,Propyl2propenoat,293.15,1.0,C=CC(=O)OCCC,le15
14422,Propylacetate,285.15,1.0,CCCOC(C)=O,le15
14423,Propylbenzene,320.15,1.0,CCCc1ccccc1,le15
14424,Propylbutyrate,310.15,1.0,CCCOC(=O)CCC,le15
14425,Propylformate,270.15,1.0,CCCOC=O,le15
14426,Propylnitrate,293.15,1.0,CCCO[N+](=O)[O-],le15
14427,PropylTrisdimethylsiloxySilane,323.15,1.0,CCC[Si](O[SiH](C)C)(O[SiH](C)C)O[SiH](C)C,le15
14428,Pyridine,293.15,1.0,c1ccncc1,le15
14429,Pyrrolidine,275.95,1.0,C1CCNC1,le15
14430,Quinoline,365.15,1.0,c1ccc2ncccc2c1,le15
14431,Salicylaldehyde,350.95,1.0,O=Cc1ccccc1O,le15
14432,secAmylTrichloroSilane,303.15,1.0,CCCC(C)[Si](Cl)(Cl)Cl,le15
14433,secButylbenzene,325.15,1.0,CCC(C)c1ccccc1,le15
14434,StearicAcid,469.0,1.0,CCCCCCCCCCCCCCCCCC(=O)O,le15
14435,Styrene,305.15,1.0,C=Cc1ccccc1,le15
14436,Succinonitrile,405.35,1.0,N#CCCC#N,le15
14437,tertbutylbenzene,317.0,1.0,CC(C)(C)c1ccccc1,le15
14438,tertbutylmethylether,245.0,1.0,COC(C)(C)C,le15
14439,Tetradecane,373.15,1.0,CCCCCCCCCCCCCC,le15
14440,TetraethoxySilane,323.15,1.0,CCO[Si](OCC)(OCC)OCC,le15
14441,Tetrahydro2furanmethanol,343.15,1.0,OCC1CCCO1,le15
14442,Tetrahydrofuran,259.15,1.0,C1CCOC1,le15
14443,Tetrahydropyran,253.15,1.0,C1CCOCC1,le15
14444,TetraisocyanatoSilane,323.15,1.0,O=C=N[Si](N=C=O)(N=C=O)N=C=O,le15
14445,TetrakisDimethylsiloxySilane,340.15,1.0,C[SiH](C)O[Si](O[SiH](C)C)(O[SiH](C)C)O[SiH](C)C,le15
14446,Tetralin,344.15,1.0,c1ccc2c(c1)CCCC2,le15
14447,TetramethoxySilane,294.15,1.0,CO[Si](OC)(OC)OC,le15
14448,TetramethylDiethoxySiloxane,311.15,1.0,CCO[Si]([O])OC(C)(C)C(C)C,le15
14449,TetramethylDivinylDisiloxane,292.15,1.0,C=C[Si](C)(C=C)O[Si](C)(C)C,le15
14450,TetramethylSilane-,245.15,1.0,C[Si](C)(C)C,le15
14451,TetravinylSilane,291.15,1.0,C=C[Si](C=C)(C=C)C=C,le15
14452,Thiophene,272.04999999999995,1.0,c1ccsc1,le15
14453,Thiophenol,323.75,1.0,Sc1ccccc1,le15