,compound,flashpoint,pure substance,smiles,source
2144,"Acetic acid, 2,2'-oxybis-",474.85,1,O=C(O)COCC(=O)O,le15
2145,"Formic acid, oxydi-, dimethyl ester (7CI,8CI)",353.15,1,COC(=O)OC(=O)OC,le15
2146,2-hydroxybutanedioic acid,426.55,1,O=C(O)CC(O)C(=O)O,le15
2147,"2,2-dinitropropane",348.35,1,CC(C)([N+](=O)[O-])[N+](=O)[O-],le15
2148,3H-1-benzofuran-2-one,370.05,1,O=C1Cc2ccccc2O1,le15
2149,"1,3-Benzenedicarboxaldehyde (9CI)",367.25,1,O=Cc1cccc(C=O)c1,le15
2150,"1,2-Benzenedicarboxaldehyde",371.65,1,O=Cc1ccccc1C=O,le15
2151,"Benzeneacetaldehyde, alpha-oxo- (9CI)",342.95,1,O=CC(=O)c1ccccc1,le15
2152,3H-2-benzofuran-1-one,425.15,1,O=C1OCc2ccccc21,le15
2153,"Benzoxazole, 2-amino-",395.05,1,Nc1nc2ccccc2o1,le15
2154,"Ethanol, 2,2'-(nitrosoimino)bis-",454.25,1,O=NN(CCO)CCO,le15
2155,1-phenylpropan-2-one,360.65,1,CC(=O)Cc1ccccc1,le15
2156,2-(4-methylphenyl)acetaldehyde,375.25,1,Cc1ccc(CC=O)cc1,le15
2157,3-Phenylpropionaldehyde,368.15,1,O=CCCc1ccccc1,le15
2158,"2-Propen-1-ol, 3-phenyl-",397.912,1,OCC=Cc1ccccc1,le15
2159,"Phenol, p-allyl- (8CI)",375.75,1,C=CCc1ccc(O)cc1,le15
2160,1-ethenyl-2-methoxybenzene,343.75,1,C=Cc1ccccc1OC,le15
2161,"Benzene, 1-ethenyl-4-methoxy- (9CI)",350.865,1,C=Cc1ccc(OC)cc1,le15
2162,"1H-Inden-5-ol, 2,3-dihydro-",383.15,1,Oc1ccc2c(c1)CCC2,le15
2163,"3a,7a-Epoxy-1H-indene, 2,3-dihydro-",361.75,1,C1=CC23CCCC2(C=C1)O3,le15
2164,"Phenol, 2-(2-propenyl)-",361.15,1,C=CCc1ccccc1O,le15
2165,"2-methyl-2,3-dihydro-1-benzofuran",338.35,1,CC1Cc2ccccc2O1,le15
2166,prop-2-enoxybenzene,335.95,1,C=CCOc1ccccc1,le15
2167,[(E)-2-methoxyethenyl]benzene,350.45,1,CO/C=C/c1ccccc1,le15
2168,"Benzaldehyde, 4-ethyl-",365.35,1,CCc1ccc(C=O)cc1,le15
2169,"2,3-dihydro-1H-inden-1-ol",418.15,1,OC1CCc2ccccc21,le15
2170,2-(2-methylphenyl)acetaldehyde,377.75,1,Cc1ccccc1CC=O,le15
2171,"Benzeneacetaldehyde, alpha-methyl-",349.26099999999997,1,CC(C=O)c1ccccc1,le15
2172,"1-Propanone, 1-phenyl-",360.54,1,CCC(=O)c1ccccc1,le15
2173,"Oxirane, (phenylmethyl)- (9CI)",354.85,1,c1ccc(CC2CO2)cc1,le15
2174,"2,5-dimethylbenzaldehyde",360.15,1,Cc1ccc(C)c(C=O)c1,le15
2175,"1,3-Propanediol, 2-ethyl-2-(hydroxymethyl)-",420.85,1,CCC(CO)(CO)CO,le15
2176,"1,2,6-Hexanetriol",438.65,1,OCCCCC(O)CO,le15
2177,"2-Propanol, 1,1'-oxybis-",410.95,1,CC(O)COCC(C)O,le15
2178,"Ethanol, 2-(2-ethoxyethoxy)-",369.25,1,CCOCCOCCO,le15
2179,"Ethane, 1,1'-oxybis(2-methoxy-",343.15,1,COCCOCCOC,le15
2180,"1,2,3,4-tetrahydroquinoxaline",449.25,1,c1ccc2c(c1)NCCN2,le15
2181,"1,2,3-trimethoxypropane",315.85,1,COCC(COC)OC,le15
2182,1-benzothiophene,335.15,1,c1ccc2sccc2c1,le15
2183,Benzo(b)thiophene,335.15,1,c1ccc2sccc2c1,le15
2184,"Thiophene, tetrahydro-3-methyl-, 1,1-dioxide",427.55,1,CC1CCS(=O)(=O)C1,le15
2185,"Benzene, 1,2,4,5-tetramethyl-",347.05,1,Cc1cc(C)c(C)cc1C,le15
2186,"Benzene, (1,1-dimethylethyl)-",307.55,1,CC(C)(C)c1ccccc1,le15
2187,"Benzene, 1,4-diethyl-",329.85,1,CCc1ccc(CC)cc1,le15
2188,"Benzene, (1-methylpropyl)-",325.15,1,CCC(C)c1ccccc1,le15
2189,"Benzene, 1-methyl-2-(1-methylethyl)-",323.15,1,Cc1ccccc1C(C)C,le15
2190,2-methylpropylbenzene,323.05,1,CC(C)Cc1ccccc1,le15
2191,1-methyl-4-propylbenzene,329.45,1,CCCc1ccc(C)cc1,le15
2192,"Benzene, 1-methyl-4-(1-methylethyl)-",320.35,1,Cc1ccc(C(C)C)cc1,le15
2193,Butylbenzene,322.0,1,CCCCc1ccccc1,le15
2194,Propyl sulfoxide (8CI),374.45,1,CCCS(=O)CCC,le15
2195,triethyl(fluoro)silane,292.15,1,CC[Si](F)(CC)CC,le15
2196,"2,4-Pentanedione, 3-chloro-",285.35,1,CC(=O)C(Cl)C(C)=O,le15
2197,Hexanoyl chloride,352.15,1,CCCCCC(=O)Cl,le15
2198,"Oxetane, 3-(chloromethyl)-3-ethyl-",322.55,1,CCC1(CCl)COC1,le15
2199,2-ethylbutanoyl chloride,314.25,1,CCC(CC)C(=O)Cl,le15
2200,"3,3-dimethylbutanoyl chloride",303.35,1,CC(C)(C)CC(=O)Cl,le15
2201,"2-Butanone, 1-chloro-3,3-dimethyl-",340.15,1,CC(C)(C)C(=O)CCl,le15
2202,"2,2-dimethylbutanoyl chloride",303.35,1,CCC(C)(C)C(=O)Cl,le15
2203,3-chloroheptane,312.35,1,CCCCC(Cl)CC,le15
2204,1-chloroheptane,314.15,1,CCCCCCCCl,le15
2205,1chloroheptane,314.0,1,CCCCCCCCl,le15
2206,chloro-dimethyl-prop-2-enylsilane,278.75,1,C=CC[Si](C)(C)Cl,le15
2207,(Z)-2-bromobut-2-ene,284.25,1,C/C=C(/C)Br,le15
2208,4-bromobut-1-ene,282.55,1,C=CCCBr,le15
2209,(E)-2-bromobut-2-ene,274.25,1,C/C=C(\C)Br,le15
2210,2-bromobut-1-ene,284.75,1,C=C(Br)CC,le15
2211,(E)-1-bromobut-1-ene,287.65,1,CC/C=C/Br,le15
2212,4bromo1butene,282.0,1,C=CCCBr,le15
2213,"2,4,6-trifluoro-1,3,5-triazine",418.15,1,Fc1nc(F)nc(F)n1,le15
2214,2(3H)-Benzoxazolone,433.15,1,O=c1[nH]c2ccccc2o1,le15
2215,"1H-Benzotriazole, 1-hydroxy-, hydrate",435.35,1,O.On1nnc2ccccc21,le15
2216,1H-Purin-2-amine,636.05,1,Nc1nc2ncnc-2c[nH]1,le15
2217,1H-Purin-6-amine,595.86,1,Nc1[nH]cnc2ncnc1-2,le15
2218,2-(2-fluorophenyl)acetonitrile,316.15,1,N#CCc1ccccc1F,le15
2219,"1H-Pyrazolo(3,4-d)pyrimidine, 4-amino-",517.55,1,Nc1ncnc2[nH]ncc12,le15
2220,N-(2-methylphenyl)formamide,436.95,1,Cc1ccccc1NC=O,le15
2221,"Ethanone, 1-(3-aminophenyl)-",354.55,1,CC(=O)c1cccc(N)c1,le15
2222,"Acetophenone, 4'-amino- (8CI)",367.45,1,CC(=O)c1ccc(N)cc1,le15
2223,2-amino-1-phenylethanone,376.55,1,NCC(=O)c1ccccc1,le15
2224,(NE)-N-(1-phenylethylidene)hydroxylamine,411.25,1,C/C(=N\O)c1ccccc1,le15
2225,N-methyl-N-phenylformamide,399.15,1,CN(C=O)c1ccccc1,le15
2226,"Benzamide, 2-methyl-",380.75,1,Cc1ccccc1C(N)=O,le15
2227,"Benzamide, N-methyl-",449.05,1,CNC(=O)c1ccccc1,le15
2228,N-(3-methylphenyl)formamide,440.95,1,Cc1cccc(NC=O)c1,le15
2229,Benzothiazole,369.75,1,c1ccc2scnc2c1,le15
2230,"1,2-Benzisothiazole",314.75,1,c1ccc2sncc2c1,le15
2231,phenyl thiocyanate,367.55,1,N#CSc1ccccc1,le15
2232,"L-Cysteine, S-methyl- (9CI)",408.55,1,CSC[C@H](N)C(=O)O,le15
2233,"Benzeneethanamine, alpha-methyl-, (alphaS)-",360.55,1,C[C@H](N)Cc1ccccc1,le15
2234,N-ethyl-2-methylaniline,362.05,1,CCNc1ccccc1C,le15
2235,"Benzenamine, N,N,4-trimethyl-",357.35,1,Cc1ccc(N(C)C)cc1,le15
2236,"Benzenamine, N-ethyl-3-methyl-",362.15,1,CCNc1cccc(C)c1,le15
2237,"Benzenemethanamine, N,N-dimethyl-",327.55,1,CN(C)Cc1ccccc1,le15
2238,"N,N,3-trimethylaniline",354.15,1,Cc1cccc(N(C)C)c1,le15
2239,"Benzenamine, 2,4,5-trimethyl- (9CI)",268.15,1,Cc1cc(C)c(N)cc1C,le15
2240,(2R)-1-phenylpropan-2-amine,360.55,1,C[C@@H](N)Cc1ccccc1,le15
2241,"Benzeneethanamine, beta-methyl- (9CI)",357.75,1,CC(CN)c1ccccc1,le15
2242,2-phenylpropan-2-amine,357.2,1,CC(C)(N)c1ccccc1,le15
2243,"Benzeneethanamine, N-methyl- (9CI)",347.05,1,CNCCc1ccccc1,le15
2244,"Aniline, N-ethyl-N-methyl- (8CI)",347.55,1,CCN(C)c1ccccc1,le15
2245,"p-Toluidine, N-ethyl- (8CI)",357.25,1,CCNc1ccc(C)cc1,le15
2246,"Benzenamine, N-propyl-",359.95,1,CCCNc1ccccc1,le15
2247,"2-ethyl-3,5-dimethylpyridine",337.65,1,CCc1ncc(C)cc1C,le15
2248,3-phenylpropan-1-amine,468.15,1,NCCCc1ccccc1,le15
2249,p-Methylphenethylamine,363.15,1,Cc1ccc(CCN)cc1,le15
2250,4-tert-butylpyridine,336.45,1,CC(C)(C)c1ccncc1,le15
2251,4-butylpyridine,354.82099999999997,1,CCCCc1ccncc1,le15
2252,"Benzenemethanamine, N-ethyl-",339.15,1,CCNCc1ccccc1,le15
2253,"2,3,4,6-tetramethylpyridine",347.15,1,Cc1cc(C)c(C)c(C)n1,le15
2254,"Benzenamine, 2-ethyl-6-methyl-",362.55,1,CCc1cccc(C)c1N,le15
2255,"4-ethyl-2,6-dimethylpyridine",330.55,1,CCc1cc(C)nc(C)c1,le15
2256,"Benzenamine, 2,4,6-trimethyl-",369.15,1,Cc1cc(C)c(N)c(C)c1,le15
2257,3-butylpyridine,352.15,1,CCCCc1cccnc1,le15
2258,"Benzenamine, N-(1-methylethyl)-",360.85,1,CC(C)Nc1ccccc1,le15
2259,"Benzenamine, 2-propyl- (9CI)",370.95,1,CCCc1ccccc1N,le15
2260,2-butylpyridine,341.95,1,CCCCc1ccccn1,le15
2261,"Carbamodithioic acid, dimethyl-, methyl ester (9CI)",327.05,1,CSC(=S)N(C)C,le15
2262,"Carbamoyl chloride, diethyl-",348.15,1,CCN(CC)C(=O)Cl,le15
2263,2-Chloroethyldiethylamine,295.95,1,CCN(CC)CCCl,le15
2264,"Arsine oxide, trimethyl-",329.55,1,C[As](C)(C)=O,le15
2265,"Benzene, 1,4-dinitroso-",376.65,1,O=Nc1ccc(N=O)cc1,le15
2266,"1,5-Dihydro-4H-pyrazolo(3,4-d)pyrimidin-4-one (9CI)",402.85,1,O=c1[nH]cnc2[nH]ncc12,le15
2267,"2H-Purin-2-one, 1,3-dihydro-",640.25,1,O=c1[nH]cc2ncnc-2[nH]1,le15
2268,"Benzoic acid, methyl ester",353.35,1,COC(=O)c1ccccc1,le15
2269,"Benzoic acid, 3-methyl-",423.15,1,Cc1cccc(C(=O)O)c1,le15
2270,1-(4-hydroxyphenyl)ethanone,394.35,1,CC(=O)c1ccc(O)cc1,le15
2271,"Benzoic acid, 4-methyl-",397.85,1,Cc1ccc(C(=O)O)cc1,le15
2272,"Acetic acid, phenyl-",429.36300000000006,1,O=C(O)Cc1ccccc1,le15
2273,"Formic acid, phenylmethyl ester",355.15,1,O=COCc1ccccc1,le15
2274,"Acetophenone, 2'-hydroxy- (8CI)",360.65,1,CC(=O)c1ccccc1O,le15
2275,"Benzaldehyde, 4-methoxy-",382.05,1,COc1ccc(C=O)cc1,le15
2276,"Benzaldehyde, 2-methoxy-",390.15,1,COc1ccccc1C=O,le15
2277,"2,5-Cyclohexadiene-1,4-dione, 2,6-dimethyl- (9CI)",344.25,1,CC1=CC(=O)C=C(C)C1=O,le15
2278,"Benzaldehyde, 3-methoxy-",383.15,1,COc1cccc(C=O)c1,le15
2279,2-hydroxy-5-methylbenzaldehyde,358.25,1,Cc1ccc(O)c(C=O)c1,le15
2280,2-hydroxy-4-methylbenzaldehyde,361.15,1,Cc1ccc(C=O)c(O)c1,le15
2281,"2,5-Cyclohexadiene-1,4-dione, 2,5-dimethyl-",344.25,1,CC1=CC(=O)C(C)=CC1=O,le15
2282,"1,3-Propanediol, 2,2-bis(hydroxymethyl)-",473.25,1,OCC(CO)(CO)CO,le15
2283,"Benzenecarboximidamide, N-hydroxy- (9CI)",412.85,1,N=C(NO)c1ccccc1,le15
2284,"Benzoic acid, hydrazide",412.85,1,NNC(=O)c1ccccc1,le15
2285,tetramethoxymethane,279.85,1,COC(OC)(OC)OC,le15
2286,"Benzamide, p-amino- (8CI)",438.05,1,NC(=O)c1ccc(N)cc1,le15
2287,"Acetamide, N-4-pyridinyl- (9CI)",435.15,1,CC(=O)Nc1ccncc1,le15
2288,N-pyridin-3-ylacetamide,424.95,1,CC(=O)Nc1cccnc1,le15
2289,"1,2-Oxathiane, 2,2-dioxide",408.35,1,O=S1(=O)CCCCO1,le15
2290,"4-methyl-1,3,2-dioxathiane 2-oxide",342.45,1,CC1CCOS(=O)O1,le15
2291,"2,1,3-benzothiadiazole",368.15,1,c1ccc2nsnc2c1,le15
2292,"Phenol, 2-(1-methylethyl)-",380.15,1,CC(C)c1ccccc1O,le15
2293,"Phenol, 4-(1-methylethyl)-",368.45,1,CC(C)c1ccc(O)cc1,le15
2294,"1-Propanol, 3-phenyl-",382.15,1,OCCCc1ccccc1,le15
2295,"2,4,5-trimethylphenol",375.45,1,Cc1cc(C)c(O)cc1C,le15
2296,"2,3,4-trimethylphenol",378.45,1,Cc1ccc(O)c(C)c1C,le15
2297,"Phenol, 3,4,5-trimethyl-",382.25,1,Cc1cc(O)cc(C)c1C,le15
2298,"Phenol, 2,4,6-trimethyl-",369.85,1,Cc1cc(C)c(O)c(C)c1,le15
2299,1-(4-methylphenyl)ethanol,375.15,1,Cc1ccc(C(C)O)cc1,le15
2300,ethoxymethylbenzene,326.05,1,CCOCc1ccccc1,le15
2301,"Benzene, 1-ethoxy-2-methyl-",337.35,1,CCOc1ccccc1C,le15
2302,"Benzenemethanol, alpha,alpha-dimethyl-",360.95,1,CC(C)(O)c1ccccc1,le15
2303,"Phenetole, p-methyl- (8CI)",343.15,1,CCOc1ccc(C)cc1,le15
2304,"Phenol, 4-propyl-",379.25,1,CCCc1ccc(O)cc1,le15
2305,"Phenol, 2,3,5-trimethyl-",376.75,1,Cc1cc(C)c(C)c(O)c1,le15
2306,"Phenethyl alcohol, p-methyl- (8CI)",380.35,1,Cc1ccc(CCO)cc1,le15
2307,"Benzenemethanol, 4-ethyl-",377.55,1,CCc1ccc(CO)cc1,le15
2308,"1-methoxy-3,5-dimethylbenzene",338.15,1,COc1cc(C)cc(C)c1,le15
2309,"2-methoxy-1,3-dimethylbenzene",340.15,1,COc1c(C)cccc1C,le15
2310,"Phenethyl alcohol, beta-methyl-",381.15,1,CC(CO)c1ccccc1,le15
2311,1-ethyl-4-methoxybenzene,341.65,1,CCc1ccc(OC)cc1,le15
2312,"m-Cresol, 6-ethyl-",368.55,1,CCc1ccc(C)cc1O,le15
2313,"2-methoxy-1,4-dimethylbenzene",339.25,1,COc1cc(C)ccc1C,le15
2314,propan-2-yloxybenzene,335.05,1,CC(C)Oc1ccccc1,le15
2315,"1-methoxy-2,3-dimethylbenzene",342.95,1,COc1cccc(C)c1C,le15
2316,"Benzene, (2-methoxyethyl)-",325.65,1,COCCc1ccccc1,le15
2317,"4-methoxy-1,2-dimethylbenzene",348.75,1,COc1ccc(C)c(C)c1,le15
2318,"1-methoxy-2,4-dimethylbenzene",338.25,1,COc1ccc(C)cc1C,le15
2319,1-ethyl-2-methoxybenzene,333.75,1,CCc1ccccc1OC,le15
2320,2-(2-methylphenyl)ethanol,381.45,1,Cc1ccccc1CCO,le15
2321,"(3,5-dimethylphenyl)methanol",379.85,1,Cc1cc(C)cc(CO)c1,le15
2322,"Benzenemethanol, alpha-ethyl- (9CI)",363.15,1,CCC(O)c1ccccc1,le15
2323,3-propylphenol,381.95,1,CCCc1cccc(O)c1,le15
2324,3-ethyl-5-methylphenol,376.65,1,CCc1cc(C)cc(O)c1,le15
2325,"Phenol, 2,3,6-trimethyl-",373.15,1,Cc1ccc(C)c(O)c1C,le15
2326,"(2,4-dimethylphenyl)methanol",374.85,1,Cc1ccc(CO)c(C)c1,le15
2327,"1,4-Benzenediamine, N,N-dimethyl-",361.75,1,CN(C)c1ccc(N)cc1,le15
2328,"2,3,5,6-Tetramethylpyrazine",344.75,1,Cc1nc(C)c(C)nc1C,le15
2329,"m-Xylene-alpha,alpha'-diamine (8CI)",403.55,1,NCc1cccc(CN)c1,le15
2330,"2-N,2-N-dimethylbenzene-1,2-diamine",355.45,1,CN(C)c1ccccc1N,le15
2331,"3-N,3-N-dimethylbenzene-1,3-diamine",361.95,1,CN(C)c1cccc(N)c1,le15
2332,"Butanedinitrile, tetramethyl- (9CI)",389.55,1,CC(C)(C#N)C(C)(C)C#N,le15
2333,"p-Phenylenediamine, 2,3-dimethyl-",424.65,1,Cc1c(N)ccc(N)c1C,le15
2334,"Pyridine, 2-(2-(methylamino)ethyl)-",369.85,1,CNCCc1ccccn1,le15
2335,"3-ethyl-2,5-dimethylpyrazine",342.55,1,CCc1nc(C)cnc1C,le15
2336,"2,3-diethylpyrazine",337.15,1,CCc1nccnc1CC,le15
2337,Octanedinitrile,419.35,1,N#CCCCCCCC#N,le15
2338,Phenyl vinyl sulphide,318.75,1,C=CSc1ccccc1,le15
2339,"2,3-dihydro-1-benzothiophene",357.05,1,c1ccc2c(c1)CCS2,le15
2340,"Silane, methyltrimethoxy-",284.25,1,CO[Si](C)(OC)OC,le15
2341,N-dimethylsulfinamoyl-N-methylmethanamine,353.35,1,CN(C)S(=O)N(C)C,le15
2342,"Bicyclo(3.1.1)hept-2-ene, 2,6,6-trimethyl-",305.372,1,CC1=CCC2CC1C2(C)C,le15
2343,"1,3-Cyclohexadiene, 2-methyl-5-(1-methylethyl)-",320.35,1,CC1=CCC(C(C)C)C=C1,le15
2344,4-methylidene-1-propan-2-ylcyclohexene,319.65,1,C=C1CC=C(C(C)C)CC1,le15
2345,"1,4-Cyclohexadiene, 1-methyl-4-(1-methylethyl)-",324.85,1,CC1=CCC(C(C)C)=CC1,le15
2346,"1,3-Cyclohexadiene, 1-methyl-4-(1-methylethyl)-",319.25,1,CC1=CC=C(C(C)C)CC1,le15
2347,"1,6-Octadiene, 7-methyl-3-methylene-",317.55,1,C=CC(=C)CCC=C(C)C,le15
2348,"Cyclohexene, 1-methyl-4-(1-methylethenyl)-",319.15,1,C=C(C)C1CC=C(C)CC1,le15
2349,"Tricyclo(3.3.1.13,7)decane",322.05,1,C1C2CC3CC1CC(C2)C3,le15
2350,"4,7,7-trimethylbicyclo[2.2.1]hept-2-ene",298.05,1,CC12C=CC(CC1)C2(C)C,le15
2351,"2,2-dimethyl-5-methylidenebicyclo[2.2.1]heptane",308.05,1,C=C1CC2CC1CC2(C)C,le15
2352,"4,7,7-trimethylbicyclo[4.1.0]hept-4-ene",311.45,1,CC1=CC2C(CC1)C2(C)C,le15
2353,"Cyclohexene, 3-methyl-6-(1-methylethylidene)- (9CI)",337.55,1,CC(C)=C1C=CC(C)CC1,le15
2354,2-methyl-5-propan-2-ylbicyclo[3.1.0]hex-2-ene,306.75,1,CC1=CCC2(C(C)C)CC12,le15
2355,"2,4,6-Octatriene, 2,6-dimethyl-, (4E,6E)-",324.95,1,C/C=C(C)/C=C/C=C(C)C,le15
2356,"(1R,4R)-4,7,7-TRIMETHYLBICYCLO[4.1.0]HEPT-2-ENE",303.25,1,C[C@H]1C=C[C@@H]2C(C1)C2(C)C,le15
2357,"(1S,4R)-3,3-dimethyl-2-methylidenebicyclo[2.2.1]heptane",308.05,1,C=C1[C@H]2CC[C@H](C2)C1(C)C,le15
2358,"Bicyclo(3.1.1)heptane, 6,6-dimethyl-2-methylene-, (1S,5S)-",308.05,1,C=C1CC[C@H]2C[C@@H]1C2(C)C,le15
2359,3-methylidene-6-propan-2-ylcyclohexene,317.15,1,C=C1C=CC(C(C)C)CC1,le15
2360,1-methyl-4-prop-1-en-2-ylcyclohexene,321.15,1,C=C(C)C1CC=C(C)CC1,le15
2361,"4,6,6-trimethylbicyclo[3.1.1]hept-3-ene",305.35,1,CC1=CCC2CC1C2(C)C,le15
2362,"(1R,5R)-4,6,6-trimethylbicyclo[3.1.1]hept-3-ene",305.35,1,CC1=CC[C@@H]2C[C@H]1C2(C)C,le15
2363,2carene,428.15,1,CC1=CC2C(CC1)C2(C)C,le15
2364,"1,3-dithiolane-2-thione",412.65,1,S=C1SCCS1,le15
2365,dimethyl(phenyl)silicon,308.15,1,C[Si](C)c1ccccc1,le15
2366,tetrakis(ethenyl)silane,279.25,1,C=C[Si](C=C)(C=C)C=C,le15
2367,ethyl 2-chloro-2-oxoacetate,314.15,1,CCOC(=O)C(=O)Cl,le15
2368,"Acetic acid, chloro-, isopropyl ester (8CI)",329.15,1,CC(C)OC(=O)CCl,le15
2369,"Propionic acid, 2-chloro-, ethyl ester (8CI)",311.15,1,CCOC(=O)C(C)Cl,le15
2370,butyl carbonochloridate,312.15,1,CCCCOC(=O)Cl,le15
2371,"Propionic acid, 3-chloro-, ethyl ester (8CI)",327.55,1,CCOC(=O)CCCl,le15
2372,3-chloropropyl acetate,340.95,1,CC(=O)OCCCCl,le15
2373,methyl 4-chlorobutanoate,332.55,1,COC(=O)CCCCl,le15
2374,propyl 2-chloroacetate,342.45,1,CCCOC(=O)CCl,le15
2375,butan-2-yl carbonochloridate,308.95,1,CCC(C)OC(=O)Cl,le15
2376,2-methylpropyl carbonochloridate,300.95,1,CC(C)COC(=O)Cl,le15
2377,"1-Hexanol, 6-chloro-",372.05,1,OCCCCCCCl,le15
2378,propanoyl bromide,325.35,1,CCC(=O)Br,le15
2379,1-bromopropan-2-one,348.45,1,CC(=O)CBr,le15
2380,2-(bromomethyl)oxirane,329.25,1,BrCC1CO1,le15
2381,2-bromobutane,294.15,1,CCC(C)Br,le15
2382,"Propane, 1-bromo-2-methyl-",291.15,1,CC(C)CBr,le15
2383,"Butane, 1-bromo-",297.05,1,CCCCBr,le15
2384,"Propane, 2-bromo-2-methyl-",291.15,1,CC(C)(C)Br,le15
2385,2bromobutane,294.0,1,CCC(C)Br,le15
2386,"Benzamide, 2-hydroxy-",419.45,1,NC(=O)c1ccccc1O,le15
2387,"Benzene, 1-methyl-2-nitro-",379.26099999999997,1,Cc1ccccc1[N+](=O)[O-],le15
2388,methyl pyridine-3-carboxylate,368.75,1,COC(=O)c1cccnc1,le15
2389,"Benzaldehyde, 2-hydroxy-, oxime",405.45,1,ON=Cc1ccccc1O,le15
2390,"Benzene, 1-methyl-3-nitro-",374.15,1,Cc1cccc([N+](=O)[O-])c1,le15
2391,"Benzene, 1-methyl-4-nitro-",376.15,1,Cc1ccc([N+](=O)[O-])cc1,le15
2392,"Benzoic acid, 2-amino-",415.55,1,Nc1ccccc1C(=O)O,le15
2393,"Benzoic acid, 4-amino-",432.55,1,Nc1ccc(C(=O)O)cc1,le15
2394,"Benzamide, N-hydroxy-",474.15,1,O=C(NO)c1ccccc1,le15
2395,p-Methoxynitrosobenzene,384.15,1,COc1ccc(N=O)cc1,le15
2396,"Carbamic acid, phenyl ester (8CI)(9CI)",432.45,1,NC(=O)Oc1ccccc1,le15
2397,methyl pyridine-4-carboxylate,350.95,1,COC(=O)c1ccncc1,le15
2398,"Benzenamine, 2-ethoxy-",372.35,1,CCOc1ccccc1N,le15
2399,"Phenol, 3-(dimethylamino)-",405.85,1,CN(C)c1cccc(O)c1,le15
2400,"Benzenamine, 4-methoxy-2-methyl-",386.65,1,COc1ccc(N)c(C)c1,le15
2401,"Benzenamine, 2-methoxy-5-methyl-",384.15,1,COc1ccc(C)cc1N,le15
2402,"Ethanol, 2-(phenylamino)-",421.15,1,OCCNc1ccccc1,le15
2403,"Benzenamine, 4-ethoxy-",383.45,1,CCOc1ccc(N)cc1,le15
2404,"Phenol, 3-(ethylamino)- (9CI)",420.35,1,CCNc1cccc(O)c1,le15
2405,"Benzenamine, 3-ethoxy-",387.95,1,CCOc1cccc(N)c1,le15
2406,"Pyridine, 5-ethyl-2-methyl-, 1-oxide (9CI)",406.05,1,CCc1ccc(C)[n+]([O-])c1,le15
2407,"Benzenemethanol, 3-amino-alpha-methyl- (9CI)",399.25,1,CC(O)c1cccc(N)c1,le15
2408,3-(3-Pyridyl)propan-1-ol,389.55,1,OCCCc1cccnc1,le15
2409,3-pyridin-2-ylpropan-1-ol,376.95,1,OCCCc1ccccn1,le15
2410,"Benzenamine, N-hydroxy-2,6-dimethyl- (9CI)",375.85,1,Cc1cccc(C)c1NO,le15
2411,"2,5-Dimethylphenylhydroxylamine",379.25,1,Cc1ccc(C)c(NO)c1,le15
2412,"Phenol, 4-amino-3,5-dimethyl- (9CI)",406.25,1,Cc1cc(O)cc(C)c1N,le15
2413,"3,4-Xylenol, 6-amino- (8CI)",383.15,1,Cc1cc(N)c(O)cc1C,le15
2414,(2-methoxyphenyl)methanamine,373.15,1,COc1ccccc1CN,le15
2415,"Benzenamine, 3-methoxy-4-methyl-",382.75,1,COc1cc(N)ccc1C,le15
2416,5-methoxy-2-methylaniline,388.87800000000004,1,COc1ccc(C)c(N)c1,le15
2417,2-(2-methoxyethyl)pyridine,336.95,1,COCCc1ccccn1,le15
2418,(4-methoxyphenyl)methanamine,371.95,1,COc1ccc(CN)cc1,le15
2419,"2,3-Dimethylphenylhydroxylamine",384.85,1,Cc1cccc(NO)c1C,le15
2420,"Propanenitrile, 3,3'-(methylimino)bis-",424.55,1,CN(CCC#N)CCC#N,le15
2421,Benzenecarbothioamide,393.15,1,NC(=S)c1ccccc1,le15
2422,"2-Propen-1-amine, N,N-di-2-propenyl-",303.75,1,C=CCN(CC=C)CC=C,le15
2423,"Methane, trichlorofluoro-",275.15,1,FC(Cl)(Cl)Cl,le15
2424,2-chlorobenzonitrile,373.95,1,N#Cc1ccccc1Cl,le15
2425,4-chlorobenzonitrile,381.15,1,N#Cc1ccc(Cl)cc1,le15
2426,"Arsine oxide, hydroxydimethyl- (8CI)",382.55,1,C[As](C)(=O)O,le15
2427,"Phosphorous acid, diethyl ester",355.37199999999996,1,CCOP([O-])OCC,le15
2428,"Benzoic acid, 2-hydroxy-",430.15,1,O=C(O)c1ccccc1O,le15
2429,"Benzaldehyde, 2,4-dihydroxy-",439.05,1,O=Cc1ccc(O)cc1O,le15
2430,"Benzoic acid, 4-hydroxy-",444.45,1,O=C(O)c1ccc(O)cc1,le15
2431,"Phenol, 3,4-(methylenedioxy)-",392.65,1,Oc1ccc2c(c1)OCO2,le15
2432,"2,3-Dihydroxybenzaldehyde",386.35,1,O=Cc1cccc(O)c1O,le15
2433,"Benzaldehyde, 3,4-dihydroxy- (9CI)",419.85,1,O=Cc1ccc(O)c(O)c1,le15
2434,"Benzaldehyde, 2,5-dihydroxy-",408.25,1,O=Cc1cc(O)ccc1O,le15
2435,"Benzenamine, 2-nitro-",399.25,1,Nc1ccccc1[N+](=O)[O-],le15
2436,"Benzenamine, 3-nitro-",412.65,1,Nc1cccc([N+](=O)[O-])c1,le15
2437,"2-Propenoic acid, 3-(1H-imidazol-4-yl)-",503.25,1,O=C(O)C=Cc1c[nH]cn1,le15
2438,"2,5-Cyclohexadiene-1,4-dione, dioxime",407.75,1,ON=C1C=CC(=NO)C=C1,le15
2439,"Hydroxylamine, N-nitroso-N-phenyl-",374.45,1,O=NN(O)c1ccccc1,le15
2440,"Benzenamine, 4-nitro-",438.15,1,Nc1ccc([N+](=O)[O-])cc1,le15
2441,1-(4-fluorophenyl)ethanone,344.15,1,CC(=O)c1ccc(F)cc1,le15
2442,"Benzene, 1,2-dimethoxy-",360.35,1,COc1ccccc1OC,le15
2443,"Phenol, 2-methoxy-4-methyl-",372.55,1,COc1cc(C)ccc1O,le15
2444,2-ethoxyphenol,364.25,1,CCOc1ccccc1O,le15
2445,"Benzenemethanol, 4-methoxy-",383.15,1,COc1ccc(CO)cc1,le15
2446,"Ethanol, 2-phenoxy-",403.15,1,OCCOc1ccccc1,le15
2447,"Benzene, 1,3-dimethoxy-",360.92800000000005,1,COc1cccc(OC)c1,le15
2448,"2,5-dimethylbenzene-1,3-diol",413.95,1,Cc1cc(O)c(C)c(O)c1,le15