,compound,flashpoint,pure substance,smiles,source
9574,"Acetamide, N-(2,5-dichlorophenyl)-",436.35,1.0,CC(=O)Nc1cc(Cl)ccc1Cl,le15
9575,"Benzene, 1,5-difluoro-2,4-dinitro-",412.55,1.0,O=[N+]([O-])c1cc([N+](=O)[O-])c(F)cc1F,le15
9576,"Benzimidazole, 5-fluoro-2-(trifluoromethyl)-",388.85,1.0,Fc1ccc2nc(C(F)(F)F)[nH]c2c1,le15
9577,4H-Cyclopenta(def)phenanthren-4-one,459.05,1.0,O=c1c2cccc3ccc4cccc1c4c32,le15
9578,"2-Oxazolin-4-one, 2-(dimethylamino)-5-phenyl-",405.25,1.0,CN(C)C1=NC(=O)C(c2ccccc2)O1,le15
9579,"1,3,5-Triazine, 2,4,6-tris(1-aziridinyl)-",487.15,1.0,C1CN1c1nc(N2CC2)nc(N2CC2)n1,le15
9580,"Naphthalene, 1-phenyl- (8CI)(9CI)",421.35,1.0,c1ccc(-c2cccc3ccccc23)cc1,le15
9581,"2-Propenoic acid, 3-phenyl-, butyl ester",363.15,1.0,CCCCOC(=O)C=Cc1ccccc1,le15
9582,cyclohexyl benzoate,405.85,1.0,O=C(OC1CCCCC1)c1ccccc1,le15
9583,"4a(4H)-Dibenzofurancarboxaldehyde, 1,5a,6,9,9a,9b-hexahydro-",409.35,1.0,O=CC12CC=CCC1C1CC=CCC1O2,le15
9584,"Ethanol, 2-(2-butoxyethoxy)-, acetate",378.15,1.0,CCCCOCCOCCOC(C)=O,le15
9585,"(3-hydroxy-2,2-dimethylpropyl) 3-hydroxy-2,2-dimethylpropanoate",376.35,1.0,CC(C)(CO)COC(=O)C(C)(C)CO,le15
9586,"Benzenepropanal, 4-(1,1-dimethylethyl)-alpha-methyl-",381.15,1.0,CC(C=O)Cc1ccc(C(C)(C)C)cc1,le15
9587,"1-Octanone, 1-phenyl-",389.85,1.0,CCCCCCCC(=O)c1ccccc1,le15
9588,"1-Heptanol, 2-(phenylmethylene)-",407.25,1.0,CCCCCC(=Cc1ccccc1)CO,le15
9589,"4-Heptanone, 3-(phenylmethyl)-",381.05,1.0,CCCC(=O)C(CC)Cc1ccccc1,le15
9590,"1-Propanamine, 3,3'-(1,4-butanediylbis(oxy))bis-",411.75,1.0,NCCCOCCCCOCCCN,le15
9591,"Ethanamine, 2,2'-(1,2-ethanediylbis(oxy))bis(N,N-dimethyl-",337.45,1.0,CN(C)CCOCCOCCN(C)C,le15
9592,"Acetic acid, mercapto-, 2-ethylhexyl ester",410.55,1.0,CCCCC(CC)COC(=O)CS,le15
9593,"1,3,5-tri(propan-2-yl)benzene",359.85,1.0,CC(C)c1cc(C(C)C)cc(C(C)C)c1,le15
9594,"1,2,4-tri(propan-2-yl)benzene",369.55,1.0,CC(C)c1ccc(C(C)C)c(C(C)C)c1,le15
9595,1-chloro-3-iodopropane,327.85,1.0,ClCCCI,le15
9596,"Silanetetramine, octamethyl-",348.45,1.0,CN(C)[Si](N(C)C)(N(C)C)N(C)C,le15
9597,"Ethanamine, 2-chloro-N,N-bis(2-chloroethyl)-",321.45,1.0,ClCCN(CCCl)CCCl,le15
9598,1-chloro-4-phenoxybenzene,386.15,1.0,Clc1ccc(Oc2ccccc2)cc1,le15
9599,"Dodecane, 1-chloro-",377.65,1.0,CCCCCCCCCCCCCl,le15
9600,"Benzoic acid, 2,5-dichloro-, methyl ester",386.35,1.0,COC(=O)c1cc(Cl)ccc1Cl,le15
9601,"Urea, (3,4-dichlorophenyl)-",409.65,1.0,NC(=O)Nc1ccc(Cl)c(Cl)c1,le15
9602,"2-Quinolinecarboxylic acid, 4,8-dihydroxy- (9CI)",478.95,1.0,O=C(O)c1cc(O)c2cccc(O)c2n1,le15
9603,"Carbamic acid, methyl-, m-(2-propynyloxy)phenyl ester",418.75,1.0,C#CCOc1cccc(OC(=O)NC)c1,le15
9604,"Butanamide, N-(2,4-dimethylphenyl)-3-oxo-",444.15,1.0,CC(=O)CC(=O)Nc1ccc(C)cc1C,le15
9605,"Oxiranemethanamine, N-(oxiranylmethyl)-N-phenyl-",413.25,1.0,c1ccc(N(CC2CO2)CC2CO2)cc1,le15
9606,"Imidodicarbonimidic diamide, N-(2-phenylethyl)-",477.15,1.0,N=C(N)NC(=N)NCCc1ccccc1,le15
9607,"3,5-Di-tert-butylaniline",388.75,1.0,CC(C)(C)c1cc(N)cc(C(C)(C)C)c1,le15
9608,4-Octylaniline,409.35,1.0,CCCCCCCCc1ccc(N)cc1,le15
9609,"1,2-Dithiolane-3-pentanamide (9CI)",468.35,1.0,NC(=O)CCCCC1CCSS1,le15
9610,"1-Butanamine, 4-(diethoxymethylsilyl)-",366.55,1.0,CCOC(OCC)[SiH2]CCCCN,le15
9611,"Acetic acid, trichloro-, isopropyl ester (6CI,7CI,8CI)",336.25,1.0,CC(C)OC(=O)C(Cl)(Cl)Cl,le15
9612,"1,3-Dioxolane, 4-methyl-2-(trichloromethyl)-",351.85,1.0,CC1COC(C(Cl)(Cl)Cl)O1,le15
9613,1-Bromo-4-(chloromethyl)benzene,384.85,1.0,ClCc1ccc(Br)cc1,le15
9614,"Silane, pentyltrichloro-",340.25,1.0,CCCCC[Si](Cl)(Cl)Cl,le15
9615,"Benzoic acid, 3-amino-2,5-dichloro-",452.65,1.0,Nc1cc(Cl)cc(C(=O)O)c1Cl,le15
9616,"Benzoic acid, 2-amino-3,5-dichloro- (9CI)",435.25,1.0,Nc1c(Cl)cc(Cl)cc1C(=O)O,le15
9617,"Benzenecarbothioamide, 2,6-dichloro- (9CI)",420.85,1.0,NC(=S)c1c(Cl)cccc1Cl,le15
9618,"1H-Isoindole-1,3(2H)-dione, 2-methyl-5-nitro-",445.35,1.0,CN1C(=O)c2ccc([N+](=O)[O-])cc2C1=O,le15
9619,"Benzene, 1,1'-oxybis(4-fluoro- (9CI)",384.05,1.0,Fc1ccc(Oc2ccc(F)cc2)cc1,le15
9620,"Benzopyran-2-one, 6,7-dimethoxy- (9CI)",439.95,1.0,COc1cc2ccc(=O)oc2cc1OC,le15
9621,"Tartaric acid, diethyl ester (8CI)",366.15,1.0,CCOC(=O)C(O)C(O)C(=O)OCC,le15
9622,"Peroxydicarbonic acid, bis(1-methylethyl) ester",352.25,1.0,CC(C)OC(=O)OOC(=O)OC(C)C,le15
9623,Phenanthrene-9-carbaldehyde,542.3499999999998,1.0,O=Cc1cc2ccccc2c2ccccc12,le15
9624,"Phenol, 2-methoxy-4-(1-propenyl)-, acetate",387.05,1.0,CC=Cc1ccc(OC(C)=O)c(OC)c1,le15
9625,"Phenol, 2-methoxy-4-(2-propenyl)-, acetate",383.15,1.0,C=CCc1ccc(OC(C)=O)c(OC)c1,le15
9626,"Acetic acid, 2-(2-(2-methoxyethoxy)ethoxy)ethyl ester",378.95,1.0,COCCOCCOCCOC(C)=O,le15
9627,"Ethanol, 2,2'-thiobis-, diacetate",400.35,1.0,CC(=O)O.CC(=O)O.OCCSCCO,le15
9628,"[(1E,3E)-4-phenylbuta-1,3-dienyl]benzene",463.15,1.0,C(/C=C/c1ccccc1)=C\c1ccccc1,le15
9629,"Phenanthrene, 3,6-dimethyl- (8CI)(9CI)",441.55,1.0,Cc1ccc2ccc3ccc(C)cc3c2c1,le15
9630,"Phenanthrene, 9-ethyl- (8CI)(9CI)",438.25,1.0,CCc1cc2ccccc2c2ccccc12,le15
9631,"Acetic acid, (1,1-dimethyl-3-phenylpropyl) ester",383.85,1.0,CC(=O)OC(C)(C)CCc1ccccc1,le15
9632,"Butanoic acid, 3-methyl-, 2-phenylethyl ester",381.15,1.0,CC(C)CC(=O)OCCc1ccccc1,le15
9633,"Ethanol, 2-(2-(2-butoxyethoxy)ethoxy)-",401.05,1.0,CCCCOCCOCCOCCO,le15
9634,"2-Propanol, 1-(2-(2-methoxy-1-methylethoxy)-1-methylethoxy)-",390.75,1.0,COCC(C)OCC(C)OCC(C)O,le15
9635,"2H-1,3,5-Thiadiazine-3(4H)-acetic acid, dihydro-5-methyl-6-thioxo-",445.85,1.0,CN1CN(CC(=O)O)CSC1=S,le15
9636,"Phenol, 2,4-bis(1,1-dimethylethyl)-",388.15,1.0,CC(C)(C)c1ccc(O)c(C(C)(C)C)c1,le15
9637,"Phenol, 4-(1,1,3,3-tetramethylbutyl)-",421.45,1.0,CC(C)(C)CC(C)(C)c1ccc(O)cc1,le15
9638,"Phenol, 2-octyl- (9CI)",438.65,1.0,CCCCCCCCc1ccccc1O,le15
9639,"Phenol, 3,5-di-tert-butyl- (8CI)",400.35,1.0,CC(C)(C)c1cc(O)cc(C(C)(C)C)c1,le15
9640,octoxybenzene,382.15,1.0,CCCCCCCCOc1ccccc1,le15
9641,"Phenol, 2,6-bis(1,1-dimethylethyl)-",391.15,1.0,CC(C)(C)c1cccc(C(C)(C)C)c1O,le15
9642,"Phenol, 4-octyl-",383.15,1.0,CCCCCCCCc1ccc(O)cc1,le15
9643,3-methyl-1-(3-methylbutyldisulfanyl)butane,354.35,1.0,CC(C)CCSSCCC(C)C,le15
9644,"Ethanol, 2-chloro-, phosphite (2:1)",415.35,1.0,OCCCl.OCCCl.OP(O)O,le15
9645,"Benzoic acid, 3,6-dichloro-2-hydroxy-",412.45,1.0,O=C(O)c1c(Cl)ccc(Cl)c1O,le15
9646,"Benzenamine, 2,6-dichloro-4-nitro-",422.25,1.0,Nc1c(Cl)cc([N+](=O)[O-])cc1Cl,le15
9647,"4,5-Dichloro-2-nitroaniline",436.85,1.0,Nc1cc(Cl)c(Cl)cc1[N+](=O)[O-],le15
9648,"Benzene, 1,4-dichloro-2,5-dimethoxy-",378.85,1.0,COc1cc(Cl)c(OC)cc1Cl,le15
9649,2-bromonaphthalene,400.95,1.0,Brc1ccc2ccccc2c1,le15
9650,"1,4-Phthalazinedione, 2,3-dihydro-6-nitro-",606.05,1.0,O=c1[nH][nH]c(=O)c2cc([N+](=O)[O-])ccc12,le15
9651,1-bromononane,363.15,1.0,CCCCCCCCCBr,le15
9652,"Butanamide, N-(2-methoxyphenyl)-3-oxo-",430.15,1.0,COc1ccccc1NC(=O)CC(C)=O,le15
9653,"Butanamide, N-(4-methoxyphenyl)-3-oxo-",474.85,1.0,COc1ccc(NC(=O)CC(C)=O)cc1,le15
9654,"1H-Isoindole-1,3(2H)-dione, 2-butyl-3a,4,7,7a-tetrahydro- (9CI)",421.95,1.0,CCCCN1C(=O)C2CC=CCC2C1=O,le15
9655,"Phenol, 3-methyl-5-(1-methylethyl)-, methylcarbamate (9CI)",397.45,1.0,CNC(=O)Oc1cc(C)cc(C(C)C)c1,le15
9656,"Carbamic acid, methyl-, carvacryl ester",397.35,1.0,CNC(=O)Oc1cc(C(C)C)ccc1C,le15
9657,"Carbamic acid, methyl-, o-sec-butylphenyl ester",397.85,1.0,CCC(C)c1ccccc1OC(=O)NC,le15
9658,"Carbamic acid, N,N-dimethyl-, m-isopropylphenyl ester",395.55,1.0,CC(C)c1cccc(OC(=O)N(C)C)c1,le15
9659,"Arsonous dichloride, (2-chloroethenyl)-",357.54999999999984,1.0,ClC=C[As](Cl)Cl,le15
9660,"1H-Pyrrole-2,5-dione, 1-(4-chlorophenyl)- (9CI)",439.05,1.0,O=C1C=CC(=O)N1c1ccc(Cl)cc1,le15
9661,"1,4-Naphthalenedione, 2-amino-3-chloro- (9CI)",414.55,1.0,NC1=C(Cl)C(=O)c2ccccc2C1=O,le15
9662,"1H-Pyrrole-2,5-dione, 1-(2-chlorophenyl)-",426.25,1.0,O=C1C=CC(=O)N1c1ccccc1Cl,le15
9663,"Phenol, 2,6-dichloro-4-nitro-",399.45,1.0,O=[N+]([O-])c1cc(Cl)c(O)c(Cl)c1,le15
9664,"Phenol, 2,4-dichloro-6-nitro-",373.75,1.0,O=[N+]([O-])c1cc(Cl)cc(Cl)c1O,le15
9665,3-bromoquinoline,393.75,1.0,Brc1cnc2ccccc2c1,le15
9666,6-bromoquinoline,405.95,1.0,Brc1ccc2ncccc2c1,le15
9667,7-Bromoquinoline,405.95,1.0,Brc1ccc2cccnc2c1,le15
9668,"1,1,1,5,5,5-hexafluoropentane-2,4-dione",295.95,1.0,O=C(CC(=O)C(F)(F)F)C(F)(F)F,le15
9669,"9,10-Phenanthrenequinone",518.15,1.0,O=C1C(=O)c2ccccc2-c2ccccc21,le15
9670,[acetyloxy(phenyl)methyl] acetate,378.85,1.0,CC(=O)OC(OC(C)=O)c1ccccc1,le15
9671,"Phosphorous acid, tris(1-methylethyl) ester",335.15,1.0,CC(C)OP(OC(C)C)OC(C)C,le15
9672,tripropyl phosphite,363.15,1.0,CCCOP(OCCC)OCCC,le15
9673,9-(Hydroxymethyl)anthracene,469.45,1.0,OCc1c2ccccc2cc2ccccc12,le15
9674,"2-Propyn-1-ol, 1,1-diphenyl- (8CI)",428.05,1.0,C#CC(O)(c1ccccc1)c1ccccc1,le15
9675,"5H-Dibenzo(a,d)cyclohepten-5-one, 10,11-dihydro-",431.45,1.0,O=C1c2ccccc2CCc2ccccc21,le15
9676,"Benzoic acid, 2-hydroxy-, 3-methylbutyl ester",383.05,1.0,CC(C)CCOC(=O)c1ccccc1O,le15
9677,pentyl 2-hydroxybenzoate,386.45,1.0,CCCCCOC(=O)c1ccccc1O,le15
9678,"Benzene, 1,2,4-trimethoxy-5-(1-propenyl)-, (E)-",380.85,1.0,C/C=C/c1cc(OC)c(OC)cc1OC,le15
9679,"1,3-Dioxane, 4-(4-methoxyphenyl)-5-methyl- (9CI)",375.95,1.0,COc1ccc(C2OCOCC2C)cc1,le15
9680,2-phenoxyethyl butanoate,385.45,1.0,CCCC(=O)OCCOc1ccccc1,le15
9681,[(E)-4-phenylbut-3-en-2-yl]benzene,418.35,1.0,CC(/C=C/c1ccccc1)c1ccccc1,le15
9682,"Bicyclo(3.1.1)hept-2-ene-2-ethanol, 6,6-dimethyl-, acetate",373.85,1.0,CC(=O)OCCC1=CCC2CC1C2(C)C,le15
9683,1-cyclohexylpropan-2-ylcyclohexane,388.75,1.0,CC(CC1CCCCC1)C1CCCCC1,le15
9684,2-cyclohexylpropan-2-ylcyclohexane,385.55,1.0,CC(C)(C1CCCCC1)C1CCCCC1,le15
9685,1-cyclohexylpropylcyclohexane,388.35,1.0,CCC(C1CCCCC1)C1CCCCC1,le15
9686,3-(trifluoromethyl)benzoyl chloride,348.65,1.0,O=C(Cl)c1cccc(C(F)(F)F)c1,le15
9687,"Butanoic acid, 2-bromo-3-methyl-, ethyl ester",345.65,1.0,CCOC(=O)C(Br)C(C)C,le15
9688,"Pentanoic acid, 2-bromo-, ethyl ester",353.75,1.0,CCCC(Br)C(=O)OCC,le15
9689,7-bromoheptanoic acid,396.75,1.0,O=C(O)CCCCCCBr,le15
9690,"1,4-Benzenedicarboxylic acid, 2-amino-, dimethyl ester",445.75,1.0,COC(=O)c1ccc(C(=O)OC)c(N)c1,le15
9691,"Formamide, N-9H-fluoren-2-yl- (9CI)",542.75,1.0,O=CNc1ccc2c(c1)Cc1ccccc1-2,le15
9692,"Benzoxazole, 2-p-tolyl- (8CI)",398.55,1.0,Cc1ccc(-c2nc3ccccc3o2)cc1,le15
9693,"Carbamic acid, methyl-, o-isopropoxyphenyl ester",405.65,1.0,CNC(=O)Oc1ccccc1OC(C)C,le15
9694,"3,9-Acridinediamine (9CI)",557.45,1.0,Nc1ccc2c(N)c3ccccc3nc2c1,le15
9695,"4(1H)-Pyrimidinone, 5-butyl-2-(dimethylamino)-6-methyl- (9CI)",406.05,1.0,CCCCc1c(C)[nH]c(N(C)C)nc1=O,le15
9696,"Benzoyl chloride, 2,4-dichloro-",376.55,1.0,O=C(Cl)c1ccc(Cl)cc1Cl,le15
9697,"3,4-dichlorobenzoyl chloride",415.15,1.0,O=C(Cl)c1ccc(Cl)c(Cl)c1,le15
9698,"2,6-Dichlorobenzoyl chloride",380.55,1.0,O=C(Cl)c1c(Cl)cccc1Cl,le15
9699,"Succinimide, N-(p-chlorophenyl)- (8CI)",499.25,1.0,O=C1CCC(=O)N1c1ccc(Cl)cc1,le15
9700,"Propane, 1,3-dichloro-2,2-bis(chloromethyl)-",367.95,1.0,ClCC(CCl)(CCl)CCl,le15
9701,"1,1,1-trifluoro-2-iodoethane",280.54999999999995,1.0,FC(F)(F)CI,le15
9702,"(2,2,2-trifluoroacetyl) 2,2,2-trifluoroacetate",247.15,1.0,O=C(OC(=O)C(F)(F)F)C(F)(F)F,le15
9703,2-iodothiophene,344.25,1.0,Ic1cccs1,le15
9704,triethyl arsorite,322.5499999999999,1.0,CCO[As](OCC)OCC,le15
9705,"benzene-1,2,4-tricarboxylic acid",546.764,1.0,O=C(O)c1ccc(C(=O)O)c(C(=O)O)c1,le15
9706,"Acetamide, N-(2-methoxy-4-nitrophenyl)-",474.55,1.0,COc1cc([N+](=O)[O-])ccc1NC(C)=O,le15
9707,"2-Furanacrylamide, N-ethyl-5-nitro-",482.05,1.0,CCNC(=O)C=Cc1ccc([N+](=O)[O-])o1,le15
9708,"1H-Purine-2,6,8(3H)-trione, 7,9-dihydro-1,3,7-trimethyl-",515.25,1.0,Cn1c(=O)c2c([nH]c(=O)n2C)n(C)c1=O,le15
9709,"Phosphoric acid, dibutyl ester",393.45,1.0,CCCCOP(=O)([O-])OCCCC,le15
9710,"1,2-Ethanedione, 1,2-diphenyl-",415.75,1.0,O=C(C(=O)c1ccccc1)c1ccccc1,le15
9711,"(1,1'-Biphenyl)-2,2'-dicarboxaldehyde (9CI)",424.25,1.0,O=Cc1ccccc1-c1ccccc1C=O,le15
9712,"ethyl 3,4-dimethoxybenzoate",402.65,1.0,CCOC(=O)c1ccc(OC)c(OC)c1,le15
9713,"Bicyclo(2.2.1)hept-5-ene-2,3-dicarboxylic acid, dimethyl ester (9CI)",402.55,1.0,COC(=O)C1C2C=CC(C2)C1C(=O)OC,le15
9714,"2,3-Phenazinediamine (9CI)",555.8499999999998,1.0,Nc1cc2nc3ccccc3nc2cc1N,le15
9715,"2,8-Diaminophenazine",576.25,1.0,Nc1ccc2nc3ccc(N)cc3nc2c1,le15
9716,"2-Propanone, 1,3-diphenyl-",422.55,1.0,O=C(Cc1ccccc1)Cc1ccccc1,le15
9717,"1,1-diphenylpropan-2-one",406.95,1.0,CC(=O)C(c1ccccc1)c1ccccc1,le15
9718,"(3,4-dimethylphenyl)-phenylmethanone",426.85,1.0,Cc1ccc(C(=O)c2ccccc2)cc1C,le15
9719,"2-phenyl-3,4-dihydro-2H-chromene",430.35,1.0,c1ccc(C2CCc3ccccc3O2)cc1,le15
9720,"Benzenamine, 4,4'-(1,2-ethenediyl)bis- (9CI)",535.65,1.0,Nc1ccc(C=Cc2ccc(N)cc2)cc1,le15
9721,"Benzene, 1,1'-ethylidenebis(4-methyl-",415.25,1.0,Cc1ccc(C(C)c2ccc(C)cc2)cc1,le15
9722,"2,6-Octadien-1-ol, 3,7-dimethyl-, propanoate, (2Z)-",370.85,1.0,CCC(=O)OC/C=C(/C)CCC=C(C)C,le15
9723,"1,6-Octadien-3-ol, 3,7-dimethyl-, propionate (7CI,8CI)",370.15,1.0,C=CC(C)(CCC=C(C)C)OC(=O)CC,le15
9724,"2,6-Octadien-1-ol, 3,7-dimethyl-, propionate, (E)- (8CI)",386.15,1.0,CCC(=O)OC/C=C(\C)CCC=C(C)C,le15
9725,"Cyclohexanamine, N-cyclohexyl-N-nitroso- (9CI)",440.45,1.0,O=NN(C1CCCCC1)C1CCCCC1,le15
9726,4-(3-piperidin-4-ylpropyl)piperidine,405.25,1.0,C(CC1CCNCC1)CC1CCNCC1,le15
9727,decylcyclopentane,388.55,1.0,CCCCCCCCCCC1CCCC1,le15
9728,nonylcyclohexane,389.95,1.0,CCCCCCCCCC1CCCCC1,le15
9729,"2-Propenoic acid, 3-(4-chlorophenyl)-, ethyl ester",425.05,1.0,CCOC(=O)C=Cc1ccc(Cl)cc1,le15
9730,dichloro(iodo)methane,304.35,1.0,ClC(Cl)I,le15
9731,dichlorophosphoryloxybenzene,372.25,1.0,O=P(Cl)(Cl)Oc1ccccc1,le15
9732,"2-Propenal, 2-bromo-3-phenyl- (9CI)",383.35,1.0,O=CC(Br)=Cc1ccccc1,le15
9733,"Benzenesulfonyl chloride, 4-chloro-",380.15,1.0,O=S(=O)(Cl)c1ccc(Cl)cc1,le15
9734,"Benzenesulfonyl chloride, o-chloro- (6CI,7CI,8CI)",402.85,1.0,O=S(=O)(Cl)c1ccccc1Cl,le15
9735,"Phthalic acid, 3-nitro- (8CI)",472.55,1.0,O=C(O)c1cccc([N+](=O)[O-])c1C(=O)O,le15
9736,"Benzamide, 3,5-dinitro-",417.15,1.0,NC(=O)c1cc([N+](=O)[O-])cc([N+](=O)[O-])c1,le15
9737,"Benzimidazole-5-carbonitrile, 2-(trifluoromethyl)-",439.65,1.0,N#Cc1ccc2nc(C(F)(F)F)[nH]c2c1,le15
9738,"9-Thiabicyclo(3.3.1)nonane, 2,6-dichloro-",417.45,1.0,ClC1CCC2SC1CCC2Cl,le15
9739,"9H-Fluorene, 3-nitro- (9CI)",463.75,1.0,O=[N+]([O-])c1ccc2c(c1)-c1ccccc1C2,le15
9740,2-Amino-3-hydroxyphenazine,457.75,1.0,Nc1cc2nc3ccccc3nc2cc1O,le15
9741,"Cytidine, 2',3'-dideoxy-",477.95,1.0,Nc1ccn([C@H]2CC[C@@H](CO)O2)c(=O)n1,le15
9742,N-(2-phenylphenyl)acetamide,498.65,1.0,CC(=O)Nc1ccccc1-c1ccccc1,le15
9743,"Benzeneacetamide, alpha-phenyl- (9CI)",463.45,1.0,NC(=O)C(c1ccccc1)c1ccccc1,le15
9744,"Guanidine, N,N'-diphenyl-",431.65,1.0,N=C(Nc1ccccc1)Nc1ccccc1,le15
9745,"1,3-Benzenediol, 5-(1-hydroxy-2-((1-methylethyl)amino)ethyl)- (9CI)",452.85,1.0,CC(C)NCC(O)c1cc(O)cc(O)c1,le15
9746,"2-phenyl-1,3-benzothiazole",447.55,1.0,c1ccc(-c2nc3ccccc3s2)cc1,le15
9747,"Cyclohexanamine, N-(2-ethylhexyl)- (9CI)",384.95,1.0,CCCCC(CC)CNC1CCCCC1,le15
9748,"Benzene, 1,2,4-trichloro-3-methoxy-",373.55,1.0,COc1c(Cl)ccc(Cl)c1Cl,le15
9749,"2,4,6-trichloro-3-methylphenol",388.35,1.0,Cc1c(Cl)cc(Cl)c(O)c1Cl,le15
9750,"4H-1,3-Benzoxazin-4-one, 2-(2-chloroethyl)-2,3-dihydro-",498.95,1.0,O=C1NC(CCCl)Oc2ccccc21,le15
9751,"Acetamide, N-(4-(chloroacetyl)phenyl)-",383.15,1.0,CC(=O)Nc1ccc(C(=O)CCl)cc1,le15
9752,"Butanamide, N-(2-chlorophenyl)-3-oxo-",449.15,1.0,CC(=O)CC(=O)Nc1ccccc1Cl,le15
9753,"Acetamide, 2-chloro-N-(1-methylethyl)-N-phenyl-",402.55,1.0,CC(C)N(C(=O)CCl)c1ccccc1,le15
9754,trichloro(3-chloropropyl)silane,342.5499999999999,1.0,ClCCC[Si](Cl)(Cl)Cl,le15
9755,"1-Propene, 1,3,3,3-tetrafluoro-1-methoxy-2-(trifluoromethyl)- (9CI)",287.75,1.0,COC(F)=C(C(F)(F)F)C(F)(F)F,le15
9756,"2,3,4,5,6-pentafluorobenzoic acid",360.04999999999984,1.0,O=C(O)c1c(F)c(F)c(F)c(F)c1F,le15
9757,"1-Naphthylamine, 5,8-dichloro-",448.35,1.0,Nc1cccc2c(Cl)ccc(Cl)c12,le15
9758,"1,5-Pentanediol, 2,2,3,3,4,4-hexafluoro-",406.65,1.0,OCC(F)(F)C(F)(F)C(F)(F)CO,le15
9759,"Benzoic acid, 3,5-dinitro-",452.35,1.0,O=C(O)c1cc([N+](=O)[O-])cc([N+](=O)[O-])c1,le15
9760,"Benzoic acid, 3,4-dinitro-",481.55,1.0,O=C(O)c1ccc([N+](=O)[O-])c([N+](=O)[O-])c1,le15
9761,"Benzoic acid, 2,4-dinitro-",460.45,1.0,O=C(O)c1ccc([N+](=O)[O-])cc1[N+](=O)[O-],le15
9762,"9H-Carbazole, 3-nitro-",498.25,1.0,O=[N+]([O-])c1ccc2[nH]c3ccccc3c2c1,le15
9763,"Benzoic acid, 3,4,5-trihydroxy-, propyl ester",454.45,1.0,CCCOC(=O)c1cc(O)c(O)c(O)c1,le15
9764,"2,4,5-trimethoxybenzoic acid",407.15,1.0,COc1cc(OC)c(C(=O)O)cc1OC,le15
9765,"Benzeneacetic acid, alpha-phenyl-",413.55,1.0,O=C(O)C(c1ccccc1)c1ccccc1,le15
9766,"Methanone, (4-methoxyphenyl)phenyl-",428.85,1.0,COc1ccc(C(=O)c2ccccc2)cc1,le15
9767,Benzyl 4-hydroxyphenyl ketone,445.35,1.0,O=C(Cc1ccccc1)c1ccc(O)cc1,le15
9768,"(1,1'-Biphenyl)-4-acetic acid",559.75,1.0,O=C(O)Cc1ccc(-c2ccccc2)cc1,le15
9769,"Benzoic acid, phenylmethyl ester",421.05,1.0,O=C(OCc1ccccc1)c1ccccc1,le15
9770,"2,4,8,10-Tetraoxaspiro(5,5)undecane, 3,9-diethenyl- (9CI)",386.15,1.0,C=CC1OCC2(CO1)COC(C=C)OC2,le15
9771,"Urea, N,N'-diphenyl-",364.25,1.0,O=C(Nc1ccccc1)Nc1ccccc1,le15
9772,N'-phenylbenzohydrazide,394.15,1.0,O=C(NNc1ccccc1)c1ccccc1,le15
9773,"Urea, N,N-diphenyl-",443.85,1.0,NC(=O)N(c1ccccc1)c1ccccc1,le15
9774,(4-methoxyphenyl)-phenyldiazene,423.95,1.0,COc1ccc(N=Nc2ccccc2)cc1,le15
9775,thioxanthen-9-one,476.95,1.0,O=c1c2ccccc2sc2ccccc12,le15
9776,"1,3-Benzenediamine, 4-(phenylazo)-",487.95,1.0,Nc1ccc(N=Nc2ccccc2)c(N)c1,le15
9777,"2,3-diphenylpropan-1-ol",407.55,1.0,OCC(Cc1ccccc1)c1ccccc1,le15
9778,"Benzeneethanol, alpha-methyl-alpha-phenyl-",404.05,1.0,CC(O)(Cc1ccccc1)c1ccccc1,le15
9779,"Hydrazine, 1,1-bis(phenylmethyl)- (9CI)",480.75,1.0,NN(Cc1ccccc1)Cc1ccccc1,le15
9780,"1,8-dimethyldibenzothiophene",403.35,1.0,Cc1ccc2sc3cccc(C)c3c2c1,le15
9781,"Phosphonodithioic acid, methyl-, S,S-dipropyl ester",402.95,1.0,CCCSP(C)(=O)SCCC,le15
9782,"7-Octen-1-ol, 3,7-dimethyl-, propanoate",362.65,1.0,C=C(C)CCCC(C)CCOC(=O)CC,le15
9783,"6-Octen-1-ol, 3,7-dimethyl-, propionate (7CI,8CI)",363.95,1.0,CCC(=O)OCCC(C)CCC=C(C)C,le15
9784,"2-Propenoic acid, decyl ester",367.45,1.0,C=CC(=O)OCCCCCCCCCC,le15
9785,"2-Propenoic acid, isodecyl ester",367.45,1.0,C=CC(=O)OCCCCCCCC(C)C,le15
9786,Myristaldehyde (8CI),394.65,1.0,CCCCCCCCCCCCCC=O,le15
9787,"Anthracene, 9-chloro-",452.35,1.0,Clc1c2ccccc2cc2ccccc12,le15
9788,"Anthracene, 1-chloro- (8CI)(9CI)",452.35,1.0,Clc1cccc2cc3ccccc3cc12,le15
9789,"1-Naphthol, 2,4-dichloro- (8CI)",407.15,1.0,Oc1c(Cl)cc(Cl)c2ccccc12,le15
9790,Pentafluoronitrobenzene,363.75,1.0,O=[N+]([O-])c1c(F)c(F)c(F)c(F)c1F,le15
9791,2-bromo-1-phenylpropan-1-one,348.75,1.0,CC(Br)C(=O)c1ccccc1,le15
9792,"Benzene, 1,3,5-trinitro-",437.25,1.0,O=[N+]([O-])c1cc([N+](=O)[O-])cc([N+](=O)[O-])c1,le15
9793,1-bromo-4-tert-butylbenzene,370.15,1.0,CC(C)(C)c1ccc(Br)cc1,le15
9794,"Dibenzofuran, 3-nitro-",456.55,1.0,O=[N+]([O-])c1ccc2c(c1)oc1ccccc12,le15
9795,"Benzamide, 2-hydroxy-N-phenyl-",404.95,1.0,O=C(Nc1ccccc1)c1ccccc1O,le15
9796,"Phenol, 4-((4-aminophenyl)azo)-",467.05,1.0,Nc1ccc(N=Nc2ccc(O)cc2)cc1,le15
9797,"2,6-Pyridinediamine, 3-(phenylazo)- (9CI)",494.45,1.0,Nc1ccc(N=Nc2ccccc2)c(N)n1,le15
9798,"1,3,5-Triazine-2,4-diamine, N,N'-diethyl-6-(methylthio)- (9CI)",464.75,1.0,CCNc1nc(NCC)nc(SC)n1,le15
9799,"1-Dodecanamine, N,N-dimethyl-",380.05,1.0,CCCCCCCCCCCCN(C)C,le15
9800,Diheptylamine (8CI),381.05,1.0,CCCCCCCNCCCCCCC,le15
9801,"Carbamic acid, (3-chlorophenyl)-, 1-methylethyl ester (9CI)",378.85,1.0,CC(C)OC(=O)Nc1cccc(Cl)c1,le15
9802,"Carbamic acid, o-chloro-alpha-ethylbenzyl ester",440.15,1.0,CCC(OC(N)=O)c1ccccc1Cl,le15
9803,"2-Butene, 1,4-dibromo-, trans-",345.04999999999984,1.0,BrC/C=C/CBr,le15
9804,"2-Butene, 1,4-dibromo-",386.15,1.0,BrCC=CCBr,le15
9805,"Acetic acid, iodo-, ethyl ester",350.15,1.0,CCOC(=O)CI,le15
9806,"2,2,3,3,4,4,4-heptafluorobutanoic acid",291.15,1.0,O=C(O)C(F)(F)C(F)(F)C(F)(F)F,le15
9807,2-Bromo-N-phenylacetamide,440.55,1.0,O=C(CBr)Nc1ccccc1,le15
9808,"Isothiocyanic acid, p-bromophenyl ester",396.35,1.0,S=C=Nc1ccc(Br)cc1,le15
9809,1-bromo-3-isothiocyanatobenzene,402.05,1.0,S=C=Nc1cccc(Br)c1,le15
9810,"1,3-bis(trifluoromethyl)benzene",299.15,1.0,FC(F)(F)c1cccc(C(F)(F)F)c1,le15
9811,"1,4-bis(trifluoromethyl)benzene",294.85,1.0,FC(F)(F)c1ccc(C(F)(F)F)cc1,le15