,compound,flashpoint,pure substance,smiles,source
15192,HexylTrimethoxySilane,335.15,1.0,CCCCCC[Si](OC)(OC)OC,le15
15193,Anthraquinone,458.15,1.0,O=C1c2ccccc2C(=O)c2ccccc21,le15
15194,Pentylsalicylate,405.15,1.0,CCCCCOc1ccccc1C(=O)[O-],le15
15195,TetraethoxySilane,323.15,1.0,CCO[Si](OCC)(OCC)OCC,le15
15196,HexamethylTrisiloxane,293.15,1.0,C[Si](C)(C)O[SiH2]O[Si](C)(C)C,le15
15197,Anthracene ,409.45,1.0,c1ccc2cc3ccccc3cc2c1,le15
15198,PhenylMethylDiethoxySilane,362.15,1.0,CCO[SiH](Cc1ccccc1)OCC,le15
15199,1tetradecene,383.15,1.0,C=CCCCCCCCCCCCC,le15
15200,PhenylTrichloroSilane,364.15,1.0,Cl[Si](Cl)(Cl)c1ccccc1,le15
15201,1iodohexane,334.15,1.0,CCCCCCI,le15
15202,Benzylbenzoate,421.15,1.0,O=C(OCc1ccccc1)c1ccccc1,le15
15203,Pentadecane,405.15,1.0,CCCCCCCCCCCCCCC,le15
15204,ChloromethylTriethoxySilane,320.15,1.0,CCO[Si](CCl)(OCC)OCC,le15
15205,AllylPhenylDichloroSilane,349.15,1.0,C=CC[Si](Cl)(Cl)c1ccccc1,le15
15206,2cyanoethylTriethoxySilane,359.15,1.0,CCO[Si](CCC#N)(OCC)OCC,le15
15207,1hexenylTrichloroSilane,333.15,1.0,CCCCC=C[Si](Cl)(Cl)Cl,le15
15208,CyclohexylTrichloroSilane,364.15,1.0,Cl[Si](Cl)(Cl)C1CCCCC1,le15
15209,2iodotoluene,363.15,1.0,Cc1ccccc1I,le15
15210,3iodotoluene,355.35,1.0,Cc1cccc(I)c1,le15
15211,PhenethylMethylDichloroSilane,353.15,1.0,Cl[SiH](Cl)CCCc1ccccc1,le15
15212,MethylTriacetoxySilane,358.15,1.0,CC(=O)O[Si](C)(OC(C)=O)OC(C)=O,le15
15213,Nonylphenol,413.75,1.0,CCCCCCCCCc1ccccc1O,le15
15214,Flavone ,444.25,1.0,O=c1cc(-c2ccccc2)oc2ccccc12,le15
15215,AminoethylAminopropylTrimethoxySilane,369.15,1.0,CO[Si](CCCNCCN)(OC)OC,le15
15216,TetramethylDiethoxySiloxane,311.15,1.0,CCO[Si]([O])OC(C)(C)C(C)C,le15
15217,HexamethylCycloTrisiloxane,305.15,1.0,C[Si]1(C)O[Si](C)(C)O[Si](C)(C)O1,le15
15218,HeptamethylTrisiloxane,296.15,1.0,C[SiH](C)O[Si](C)(C)O[Si](C)(C)C,le15
15219,BenzylTrichloroSilane,360.15,1.0,Cl[Si](Cl)(Cl)Cc1ccccc1,le15
15220,1iodoheptane,352.04999999999984,1.0,CCCCCCCI,le15
15221,Hexadecane,408.15,1.0,CCCCCCCCCCCCCCCC,le15
15222,4bromobiphenyl,417.05,1.0,Brc1ccc(-c2ccccc2)cc1,le15
15223,VinylTriacetoxySilane,361.15,1.0,C=C[Si](OC(C)=O)(OC(C)=O)OC(C)=O,le15
15224,"1,3dibromoBenzene",366.15,1.0,Brc1cccc(Br)c1,le15
15225,OctamethylTrisiloxane,303.15,1.0,C[Si](C)(C)O[Si](C)(C)O[Si](C)(C)C,le15
15226,PhenethylTrichloroSilane,364.15,1.0,Cl[Si](Cl)(Cl)CCc1ccccc1,le15
15227,PhenylTriethoxySilane,369.15,1.0,CCO[Si](OCC)(OCC)c1ccccc1,le15
15228,Heptadecane,421.15,1.0,CCCCCCCCCCCCCCCCC,le15
15229,3chloropropylTriethoxySilane,335.15,1.0,CCO[Si](CCCCl)(OCC)OCC,le15
15230,2bromoethyltrichlorosilane,313.15,1.0,Cl[Si](Cl)(Cl)CCBr,le15
15231,3bromopropylTrimethoxySilane,355.15,1.0,CO[Si](CCCBr)(OC)OC,le15
15232,Diallylphthalate,438.75,1.0,C=CCOC(=O)c1ccccc1C(=O)OCC=C,le15
15233,HexaethylDisiloxane,349.15,1.0,CC[Si](CC)(CC)O[Si](CC)(CC)CC,le15
15234,Bromopentafluorobenzene,360.15,1.0,Fc1c(F)c(F)c(Br)c(F)c1F,le15
15235,3methacryloxyPropylTrimethoxySilane,365.15,1.0,C=C(C)C(=O)OCCC[Si](OC)(OC)OC,le15
15236,Octadecane,438.15,1.0,CCCCCCCCCCCCCCCCCC,le15
15237,3bromopropyltrichlorosilane,361.15,1.0,Cl[Si](Cl)(Cl)CCCBr,le15
15238,TrisTrimethylSiloxyMethylSilane,336.15,1.0,C[Si](C)(C)OC([SiH3])(O[Si](C)(C)C)O[Si](C)(C)C,le15
15239,Nonadecane,439.15,1.0,CCCCCCCCCCCCCCCCCCC,le15
15240,methyl-,350.95,1.0,[CH3],le15
15241,StearicAcid,469.0,1.0,CCCCCCCCCCCCCCCCCC(=O)O,le15
15242,OctamethylCyclotetrasilazane,339.15,1.0,C[Si]1(C)N[Si](C)(C)N[Si](C)(C)N[Si](C)(C)N1,le15
15243,OctamethylCyclotetrasiloxane,330.15,1.0,C[Si]1(C)O[Si](C)(C)O[Si](C)(C)O[Si](C)(C)O1,le15
15244,PropylTrisdimethylsiloxySilane,323.15,1.0,CCC[Si](O[SiH](C)C)(O[SiH](C)C)O[SiH](C)C,le15
15245,DecamethylTetraSiloxane,335.15,1.0,C[Si](C)(C)O[Si](C)(C)O[Si](C)(C)O[Si](C)(C)C,le15
15246,Dibutylsebacate,440.0,1.0,CCCCOC(=O)CCCCCCCCC(=O)OCCCC,le15
15247,"1,2dibromoethyltrichlorosilane",338.15,1.0,Cl[Si](Cl)(Cl)C(Br)CBr,le15
15248,TetrakisDimethylsiloxySilane,340.15,1.0,C[SiH](C)O[Si](O[SiH](C)C)(O[SiH](C)C)O[SiH](C)C,le15
15249,1chlorononamethylTetrasiloxane,347.15,1.0,C[Si](C)(C)O[Si](C)(C)O[Si](C)(C)O[Si](C)(C)Cl,le15
15250,Cyclohexyl ,488.05,1.0,[CH]1CCCCC1,le15
15251,DecamethylCyclopentasiloxane,350.15,1.0,C[Si]1(C)O[Si](C)(C)O[Si](C)(C)O[Si](C)(C)O[Si](C)(C)O1,le15
15252,DodecamethylPentasiloxane,352.15,1.0,C[Si](C)(C)O[Si](C)(C)O[Si](C)(C)O[Si](C)(C)O[Si](C)(C)C,le15
15253,Ethyl ,545.25,1.0,[CH2]C,le15
15254,DodecamethylCyclohexasiloxane,366.15,1.0,C[Si]1(C)O[Si](C)(C)O[Si](C)(C)O[Si](C)(C)O[Si](C)(C)O[Si](C)(C)O1,le15