,compound,flashpoint,pure substance,smiles,source
6302,"1,3-Propanediamine, N,N-diethyl-",326.15,1.0,CCN(CC)CCCN,le15
6303,"heptane-1,7-diamine",360.95,1.0,NCCCCCCCN,le15
6304,Butyltrimethylsilane,281.65,1.0,CCCC[Si](C)(C)C,le15
6305,"2-chloro-2,2-difluoroacetic acid",299.0499999999999,1.0,O=C(O)C(F)(F)Cl,le15
6306,furan-2-carbonyl chloride,330.25,1.0,O=C(Cl)c1ccco1,le15
6307,1-chloro-2-fluorobenzene,310.15,1.0,Fc1ccccc1Cl,le15
6308,1-chloro-4-fluorobenzene,302.15,1.0,Fc1ccc(Cl)cc1,le15
6309,1-chloro-2-fluorobenzene,293.15,1.0,Fc1ccccc1Cl,le15
6310,chlorosulfonyloxymethane,306.95,1.0,COS(=O)(=O)Cl,le15
6311,"5-Chloro-1,3-dimethyl-1H-pyrazole",335.85,1.0,Cc1cc(Cl)n(C)n1,le15
6312,dichloro(ethyl)phosphane,305.95,1.0,CCP(Cl)Cl,le15
6313,"1,2-dichloro-2-fluoropropane",276.75,1.0,CC(F)(Cl)CCl,le15
6314,"Glyoxylonitrile, phenyl- (8CI)",357.15,1.0,N#CC(=O)c1ccccc1,le15
6315,m-Formylbenzonitrile,354.45,1.0,N#Cc1cccc(C=O)c1,le15
6316,"Pentanoic acid, 5-amino-4-oxo-",407.45,1.0,NCC(=O)CCC(=O)O,le15
6317,"Pyrido(2,3-d)pyridazine",452.45,1.0,c1cnc2cnncc2c1,le15
6318,"Pyrido(3,4-d)pyridazine",467.05,1.0,c1cc2cnncc2cn1,le15
6319,"Urea, 1,1,3-trimethyl-3-nitroso-",316.85,1.0,CN(C)C(=O)N(C)N=O,le15
6320,2-methyl-1H-indole,385.65,1.0,Cc1cc2ccccc2[nH]1,le15
6321,5-methyl-1H-indole,387.85,1.0,Cc1ccc2[nH]ccc2c1,le15
6322,7-methyl-1H-indole,383.65,1.0,Cc1cccc2cc[nH]c12,le15
6323,2-(3-methylphenyl)acetonitrile,381.55,1.0,Cc1cccc(CC#N)c1,le15
6324,2-(4-methylphenyl)acetonitrile,379.25,1.0,Cc1ccc(CC#N)cc1,le15
6325,"Benzonitrile, 2,3-dimethyl-",373.15,1.0,Cc1cccc(C#N)c1C,le15
6326,2-(2-methylphenyl)acetonitrile,384.45,1.0,Cc1ccccc1CC#N,le15
6327,"1H-Indole, 3-methyl-",405.15,1.0,Cc1c[nH]c2ccccc12,le15
6328,"Benzeneacetonitrile, alpha-methyl-",367.05,1.0,CC(C#N)c1ccccc1,le15
6329,4-methyl-1H-indole,387.25,1.0,Cc1cccc2[nH]ccc12,le15
6330,"Carbamic acid, 1-methylbutyl ester",367.35,1.0,CCCC(C)OC(N)=O,le15
6331,2-Morpholinoethanol,372.55,1.0,OCCN1CCOCC1,le15
6332,"Hexane, 1-nitro-",345.15,1.0,CCCCCC[N+](=O)[O-],le15
6333,2-dimethylaminoethyl acetate,529.95,1.0,CC(=O)OCCN(C)C,le15
6334,"Hexanoic acid, 6-amino-",381.55,1.0,NCCCCCC(=O)O,le15
6335,"Hydrazinecarbothioamide, 2-(1-methylethylidene)-",356.25,1.0,CC(C)=NNC(N)=S,le15
6336,3butoxypropylamine,336.0,1.0,CCCCOCCCN,le15
6337,"1,3-Propanediamine, N-(3-aminopropyl)-",391.15,1.0,NCCCNCCCN,le15
6338,"1,1,2-Trichloroethylene",285.25,1.0,ClC=C(Cl)Cl,le15
6339,"2,2,3,3-tetrafluoropropan-1-ol",316.15,1.0,OCC(F)(F)C(F)F,le15
6340,"1,2,4-trifluorobenzene",277.15,1.0,Fc1ccc(F)c(F)c1,le15
6341,"1,3,5-trifluorobenzene",333.65,1.0,Fc1cc(F)cc(F)c1,le15
6342,"Propanedioic acid, dimethyl ester",363.15,1.0,COC(=O)CC(=O)OC,le15
6343,Pentanedioic acid,424.35,1.0,O=C(O)CCCC(=O)O,le15
6344,"2,3-dihydroinden-1-one",384.85,1.0,O=C1CCc2ccccc21,le15
6345,2-methyl-1-benzofuran,340.15,1.0,Cc1cc2ccccc2o1,le15
6346,"2-Propenal, 3-phenyl-, (E)- (9CI)",344.15,1.0,O=C/C=C/c1ccccc1,le15
6347,7-methyl-1-benzofuran,344.54999999999984,1.0,Cc1cccc2ccoc12,le15
6348,5-methyl-1-benzofuran,362.55,1.0,Cc1ccc2occc2c1,le15
6349,3-methyl-1-benzofuran,346.35,1.0,Cc1coc2ccccc12,le15
6350,Cinnamaldehyde,344.0,1.0,O=CC=Cc1ccccc1,le15
6351,ethyl 2-hydroxy-2-methylpropanoate,317.15,1.0,CCOC(=O)C(C)(C)O,le15
6352,"Ethaneperoxoic acid, 1,1-dimethylethyl ester",312.95,1.0,CC(=O)OOC(C)(C)C,le15
6353,"Acetic acid, 2-methoxy-1-methylethyl ester",321.0499999999999,1.0,COCC(C)OC(C)=O,le15
6354,"Ethanol, 2-ethoxy-, acetate",323.75,1.0,CCOCCOC(C)=O,le15
6355,"1,3,5-Trioxane, 2,4,6-trimethyl-",312.35,1.0,CC1OC(C)OC(C)O1,le15
6356,"2,5-dimethoxyoxolane",308.15,1.0,COC1CCC(OC)O1,le15
6357,ethyl 2-ethoxyacetate,321.45,1.0,CCOCC(=O)OCC,le15
6358,"Ethanol, 2-(2-(ethenyloxy)ethoxy)- (9CI)",351.54999999999984,1.0,C=COCCOCCO,le15
6359,6-hydroxyhexanoic acid,406.05,1.0,O=C(O)CCCCCO,le15
6360,"Acetic acid, butoxy-",370.65,1.0,CCCCOCC(=O)O,le15
6361,4-Aminophenylacetonitrile,409.45,1.0,N#CCc1ccc(N)cc1,le15
6362,"Butanoic acid, 3-hydroxy-, ethyl ester",337.15,1.0,CCOC(=O)CC(C)O,le15
6363,"1,3-Dioxolane-4-methanol, 2,2-dimethyl-",353.15,1.0,CC1(C)OCC(CO)O1,le15
6364,[5-(hydroxymethyl)oxolan-2-yl]methanol,385.15,1.0,OCC1CCC(CO)O1,le15
6365,propan-2-yl 2-hydroxypropanoate,330.35,1.0,CC(C)OC(=O)C(C)O,le15
6366,"4,7-Methano-1H-indene, 3a,4,7,7a-tetrahydro-",319.949,1.0,C1=CC2C3C=CC(C3)C2C1,le15
6367,"Naphthalene, 1,2,3,4-tetrahydro-",350.15,1.0,c1ccc2c(c1)CCCC2,le15
6368,but-3-enylbenzene,333.15,1.0,C=CCCc1ccccc1,le15
6369,[(E)-but-1-enyl]benzene,336.75,1.0,CC/C=C/c1ccccc1,le15
6370,1-methyl-3-prop-1-en-2-ylbenzene,331.35,1.0,C=C(C)c1cccc(C)c1,le15
6371,[(E)-but-2-enyl]benzene,329.35,1.0,C/C=C/Cc1ccccc1,le15
6372,1-ethenyl-4-ethylbenzene,335.25,1.0,C=Cc1ccc(CC)cc1,le15
6373,1-methyl-2-prop-1-en-2-ylbenzene,328.75,1.0,C=C(C)c1ccccc1C,le15
6374,1-methyl-4-prop-1-en-2-ylbenzene,332.5499999999999,1.0,C=C(C)c1ccc(C)cc1,le15
6375,1-methyl-2-prop-2-enylbenzene,330.45,1.0,C=CCc1ccccc1C,le15
6376,but-1-en-2-ylbenzene,330.25,1.0,C=C(CC)c1ccccc1,le15
6377,"1,3-Propanediol, 2,2-diethyl-",374.25,1.0,CCC(CC)(CO)CO,le15
6378,1-(propoxymethoxy)propane,298.5499999999999,1.0,CCCOCOCCC,le15
6379,"heptane-1,7-diol",394.05,1.0,OCCCCCCCO,le15
6380,"1,1-diethoxypropane",285.95,1.0,CCOC(CC)OCC,le15
6381,"2-Propanol, 1-butoxy-",327.65,1.0,CCCCOCC(C)O,le15
6382,"2,2-diethoxypropane",275.15,1.0,CCOC(C)(C)OCC,le15
6383,1-fluorooctane,337.25,1.0,CCCCCCCCF,le15
6384,"Urea, 1,3-diethyl-2-thio-",329.35,1.0,CCNC(=S)NCC,le15
6385,"Urea, 1-butyl-2-thio-",349.25,1.0,CCCCNC(N)=S,le15
6386,"Acetic acid, (trimethylsilyl)-",334.65,1.0,C[Si](C)(C)CC(=O)O,le15
6387,"Urea, 1,1,3,3-tetramethyl-2-thio-",463.15,1.0,CN(C)C(=S)N(C)C,le15
6388,triethyl(hydroxy)silane,330.37199999999996,1.0,CC[Si](O)(CC)CC,le15
6389,3-trimethylsilylpropan-1-ol,325.95,1.0,C[Si](C)(C)CCCO,le15
6390,"3-chlorofuran-2,5-dione",368.65,1.0,O=C1C=C(Cl)C(=O)O1,le15
6391,"2,4,6-Trifluoropyridine",300.65,1.0,Fc1cc(F)nc(F)c1,le15
6392,"2-methyl-1,3-benzoxazole",348.15,1.0,Cc1nc2ccccc2o1,le15
6393,"2,3-dihydroisoindol-1-one",493.35,1.0,O=C1NCc2ccccc21,le15
6394,"Isocyanic acid, p-tolyl ester (7CI,8CI)",337.0499999999999,1.0,Cc1ccc(N=C=O)cc1,le15
6395,p-Cyanobenzyl alcohol,406.75,1.0,N#Cc1ccc(CO)cc1,le15
6396,m-Anisonitrile (8CI),378.15,1.0,COc1cccc(C#N)c1,le15
6397,"Benzeneacetonitrile, 4-hydroxy- (9CI)",410.35,1.0,N#CCc1ccc(O)cc1,le15
6398,"Isocyanic acid, o-tolyl ester (7CI,8CI)",365.15,1.0,Cc1ccccc1N=C=O,le15
6399,p-Anisonitrile (8CI),529.65,1.0,COc1ccc(C#N)cc1,le15
6400,1H-Indol-5-ol (9CI),434.55,1.0,Oc1ccc2[nH]ccc2c1,le15
6401,2-methoxybenzonitrile,376.55,1.0,COc1ccccc1C#N,le15
6402,"1H-Benzotriazole, 5-methyl-",410.55,1.0,Cc1ccc2[nH]nnc2c1,le15
6403,pentyl nitrate,329.95,1.0,CCCCCO[N+](=O)[O-],le15
6404,"Propanamide, 2-hydroxy-N-(2-hydroxyethyl)-",456.95,1.0,CC(O)C(=O)NCCO,le15
6405,1-methylbenzotriazole,390.55,1.0,Cn1nnc2ccccc21,le15
6406,1H-Benzimidazol-2-amine,477.75,1.0,Nc1nc2ccccc2[nH]1,le15
6407,3-Nitropentan-2-ol,363.75,1.0,CCC(C(C)O)[N+](=O)[O-],le15
6408,"Acetamide, 2-fluoro-N-isobutyl-",367.65,1.0,CC(C)CNC(=O)CF,le15
6409,4-Thiazolidinecarboxylic acid,438.85,1.0,O=C(O)C1CSCN1,le15
6410,"4-Thiazolidinone, 2-thioxo-",358.85,1.0,O=C1CSC(=S)N1,le15
6411,"Benzenamine, N-2-propenyl-",362.55,1.0,C=CCNc1ccccc1,le15
6412,"1,2,3,4-tetrahydroquinoline",373.75,1.0,c1ccc2c(c1)CCCN2,le15
6413,"Pyridine, 2-ethenyl-5-ethyl- (9CI)",349.35,1.0,C=Cc1ccc(CC)cn1,le15
6414,"5,6,7,8-tetrahydroquinoline",359.26099999999997,1.0,c1cnc2c(c1)CCCC2,le15
6415,"2,3-dihydro-1H-inden-5-amine",383.15,1.0,Nc1ccc2c(c1)CCC2,le15
6416,"Isoquinoline, 1,2,3,4-tetrahydro-",372.05,1.0,c1ccc2c(c1)CCNC2,le15
6417,"5,6,7,8-tetrahydroisoquinoline",373.15,1.0,c1cc2c(cn1)CCCC2,le15
6418,"Ethanol, 2,2'-(ethylimino)bis-",397.05,1.0,CCN(CCO)CCO,le15
6419,"2,2-diethoxyethanamine",318.15,1.0,CCOC(CN)OCC,le15
6420,"Ethanol, 2-(2-(dimethylamino)ethoxy)-",344.75,1.0,CN(C)CCOCCO,le15
6421,"1,3,4-Thiadiazole-2(3H)-thione, 5-amino-",373.45,1.0,Nc1n[nH]c(=S)s1,le15
6422,"Propionaldehyde, 2-methyl-2-(methylthio)-, oxime",354.25,1.0,CSC(C)(C)C=NO,le15
6423,"1-chloropyrrolidine-2,5-dione",348.25,1.0,O=C1CCC(=O)N1Cl,le15
6424,"2,4,6-trifluoropyrimidine",308.85,1.0,Fc1cc(F)nc(F)n1,le15
6425,"Acetic acid, 2,2'-oxybis-",474.85,1.0,O=C(O)COCC(=O)O,le15
6426,"Formic acid, oxydi-, dimethyl ester (7CI,8CI)",353.15,1.0,COC(=O)OC(=O)OC,le15
6427,2-hydroxybutanedioic acid,426.55,1.0,O=C(O)CC(O)C(=O)O,le15
6428,"2,2-dinitropropane",348.35,1.0,CC(C)([N+](=O)[O-])[N+](=O)[O-],le15
6429,3H-1-benzofuran-2-one,370.05,1.0,O=C1Cc2ccccc2O1,le15
6430,"1,3-Benzenedicarboxaldehyde (9CI)",367.25,1.0,O=Cc1cccc(C=O)c1,le15
6431,"1,2-Benzenedicarboxaldehyde",371.65,1.0,O=Cc1ccccc1C=O,le15
6432,"Benzeneacetaldehyde, alpha-oxo- (9CI)",342.95,1.0,O=CC(=O)c1ccccc1,le15
6433,3H-2-benzofuran-1-one,425.15,1.0,O=C1OCc2ccccc21,le15
6434,"Benzoxazole, 2-amino-",395.05,1.0,Nc1nc2ccccc2o1,le15
6435,"Ethanol, 2,2'-(nitrosoimino)bis-",454.25,1.0,O=NN(CCO)CCO,le15
6436,1-phenylpropan-2-one,360.65,1.0,CC(=O)Cc1ccccc1,le15
6437,2-(4-methylphenyl)acetaldehyde,375.25,1.0,Cc1ccc(CC=O)cc1,le15
6438,3-Phenylpropionaldehyde,368.15,1.0,O=CCCc1ccccc1,le15
6439,"2-Propen-1-ol, 3-phenyl-",397.912,1.0,OCC=Cc1ccccc1,le15
6440,"Phenol, p-allyl- (8CI)",375.75,1.0,C=CCc1ccc(O)cc1,le15
6441,1-ethenyl-2-methoxybenzene,343.75,1.0,C=Cc1ccccc1OC,le15
6442,"Benzene, 1-ethenyl-4-methoxy- (9CI)",350.865,1.0,C=Cc1ccc(OC)cc1,le15
6443,"1H-Inden-5-ol, 2,3-dihydro-",383.15,1.0,Oc1ccc2c(c1)CCC2,le15
6444,"3a,7a-Epoxy-1H-indene, 2,3-dihydro-",361.75,1.0,C1=CC23CCCC2(C=C1)O3,le15
6445,"Phenol, 2-(2-propenyl)-",361.15,1.0,C=CCc1ccccc1O,le15
6446,"2-methyl-2,3-dihydro-1-benzofuran",338.35,1.0,CC1Cc2ccccc2O1,le15
6447,prop-2-enoxybenzene,335.95,1.0,C=CCOc1ccccc1,le15
6448,[(E)-2-methoxyethenyl]benzene,350.45,1.0,CO/C=C/c1ccccc1,le15
6449,"Benzaldehyde, 4-ethyl-",365.35,1.0,CCc1ccc(C=O)cc1,le15
6450,"2,3-dihydro-1H-inden-1-ol",418.15,1.0,OC1CCc2ccccc21,le15
6451,2-(2-methylphenyl)acetaldehyde,377.75,1.0,Cc1ccccc1CC=O,le15
6452,"Benzeneacetaldehyde, alpha-methyl-",349.26099999999997,1.0,CC(C=O)c1ccccc1,le15
6453,"1-Propanone, 1-phenyl-",360.54,1.0,CCC(=O)c1ccccc1,le15
6454,"Oxirane, (phenylmethyl)- (9CI)",354.85,1.0,c1ccc(CC2CO2)cc1,le15
6455,"2,5-dimethylbenzaldehyde",360.15,1.0,Cc1ccc(C)c(C=O)c1,le15
6456,"1,3-Propanediol, 2-ethyl-2-(hydroxymethyl)-",420.85,1.0,CCC(CO)(CO)CO,le15
6457,"1,2,6-Hexanetriol",438.65,1.0,OCCCCC(O)CO,le15
6458,"2-Propanol, 1,1'-oxybis-",410.95,1.0,CC(O)COCC(C)O,le15
6459,"Ethanol, 2-(2-ethoxyethoxy)-",369.25,1.0,CCOCCOCCO,le15
6460,"Ethane, 1,1'-oxybis(2-methoxy-",343.15,1.0,COCCOCCOC,le15
6461,"1,2,3,4-tetrahydroquinoxaline",449.25,1.0,c1ccc2c(c1)NCCN2,le15
6462,"1,2,3-trimethoxypropane",315.85,1.0,COCC(COC)OC,le15
6463,1-benzothiophene,335.15,1.0,c1ccc2sccc2c1,le15
6464,Benzo(b)thiophene,335.15,1.0,c1ccc2sccc2c1,le15
6465,"Thiophene, tetrahydro-3-methyl-, 1,1-dioxide",427.55,1.0,CC1CCS(=O)(=O)C1,le15
6466,"Benzene, 1,2,4,5-tetramethyl-",347.04999999999984,1.0,Cc1cc(C)c(C)cc1C,le15
6467,"Benzene, (1,1-dimethylethyl)-",307.5499999999999,1.0,CC(C)(C)c1ccccc1,le15
6468,"Benzene, 1,4-diethyl-",329.85,1.0,CCc1ccc(CC)cc1,le15
6469,"Benzene, (1-methylpropyl)-",325.15,1.0,CCC(C)c1ccccc1,le15
6470,"Benzene, 1-methyl-2-(1-methylethyl)-",323.15,1.0,Cc1ccccc1C(C)C,le15
6471,2-methylpropylbenzene,323.0499999999999,1.0,CC(C)Cc1ccccc1,le15
6472,1-methyl-4-propylbenzene,329.45,1.0,CCCc1ccc(C)cc1,le15
6473,"Benzene, 1-methyl-4-(1-methylethyl)-",320.35,1.0,Cc1ccc(C(C)C)cc1,le15
6474,Butylbenzene,322.0,1.0,CCCCc1ccccc1,le15
6475,Propyl sulfoxide (8CI),374.45,1.0,CCCS(=O)CCC,le15
6476,triethyl(fluoro)silane,292.15,1.0,CC[Si](F)(CC)CC,le15
6477,"2,4-Pentanedione, 3-chloro-",285.35,1.0,CC(=O)C(Cl)C(C)=O,le15
6478,Hexanoyl chloride,352.15,1.0,CCCCCC(=O)Cl,le15
6479,"Oxetane, 3-(chloromethyl)-3-ethyl-",322.5499999999999,1.0,CCC1(CCl)COC1,le15
6480,2-ethylbutanoyl chloride,314.25,1.0,CCC(CC)C(=O)Cl,le15
6481,"3,3-dimethylbutanoyl chloride",303.35,1.0,CC(C)(C)CC(=O)Cl,le15
6482,"2-Butanone, 1-chloro-3,3-dimethyl-",340.15,1.0,CC(C)(C)C(=O)CCl,le15
6483,"2,2-dimethylbutanoyl chloride",303.35,1.0,CCC(C)(C)C(=O)Cl,le15
6484,3-chloroheptane,312.35,1.0,CCCCC(Cl)CC,le15
6485,1-chloroheptane,314.15,1.0,CCCCCCCCl,le15
6486,1chloroheptane,314.0,1.0,CCCCCCCCl,le15
6487,chloro-dimethyl-prop-2-enylsilane,278.75,1.0,C=CC[Si](C)(C)Cl,le15
6488,(Z)-2-bromobut-2-ene,284.25,1.0,C/C=C(/C)Br,le15
6489,4-bromobut-1-ene,282.5499999999999,1.0,C=CCCBr,le15
6490,(E)-2-bromobut-2-ene,274.25,1.0,C/C=C(\C)Br,le15
6491,2-bromobut-1-ene,284.75,1.0,C=C(Br)CC,le15
6492,(E)-1-bromobut-1-ene,287.65,1.0,CC/C=C/Br,le15
6493,4bromo1butene,282.0,1.0,C=CCCBr,le15
6494,"2,4,6-trifluoro-1,3,5-triazine",418.15,1.0,Fc1nc(F)nc(F)n1,le15
6495,2(3H)-Benzoxazolone,433.15,1.0,O=c1[nH]c2ccccc2o1,le15
6496,"1H-Benzotriazole, 1-hydroxy-, hydrate",435.35,1.0,O.On1nnc2ccccc21,le15
6497,1H-Purin-2-amine,636.05,1.0,Nc1nc2ncnc-2c[nH]1,le15
6498,1H-Purin-6-amine,595.8599999999999,1.0,Nc1[nH]cnc2ncnc1-2,le15
6499,2-(2-fluorophenyl)acetonitrile,316.15,1.0,N#CCc1ccccc1F,le15
6500,"1H-Pyrazolo(3,4-d)pyrimidine, 4-amino-",517.55,1.0,Nc1ncnc2[nH]ncc12,le15
6501,N-(2-methylphenyl)formamide,436.95,1.0,Cc1ccccc1NC=O,le15
6502,"Ethanone, 1-(3-aminophenyl)-",354.54999999999984,1.0,CC(=O)c1cccc(N)c1,le15
6503,"Acetophenone, 4'-amino- (8CI)",367.45,1.0,CC(=O)c1ccc(N)cc1,le15
6504,2-amino-1-phenylethanone,376.55,1.0,NCC(=O)c1ccccc1,le15
6505,(NE)-N-(1-phenylethylidene)hydroxylamine,411.25,1.0,C/C(=N\O)c1ccccc1,le15
6506,N-methyl-N-phenylformamide,399.15,1.0,CN(C=O)c1ccccc1,le15
6507,"Benzamide, 2-methyl-",380.75,1.0,Cc1ccccc1C(N)=O,le15
6508,"Benzamide, N-methyl-",449.05,1.0,CNC(=O)c1ccccc1,le15
6509,N-(3-methylphenyl)formamide,440.95,1.0,Cc1cccc(NC=O)c1,le15
6510,Benzothiazole,369.75,1.0,c1ccc2scnc2c1,le15
6511,"1,2-Benzisothiazole",314.75,1.0,c1ccc2sncc2c1,le15
6512,phenyl thiocyanate,367.55,1.0,N#CSc1ccccc1,le15
6513,"L-Cysteine, S-methyl- (9CI)",408.55,1.0,CSC[C@H](N)C(=O)O,le15
6514,"Benzeneethanamine, alpha-methyl-, (alphaS)-",360.55,1.0,C[C@H](N)Cc1ccccc1,le15
6515,N-ethyl-2-methylaniline,362.05,1.0,CCNc1ccccc1C,le15
6516,"Benzenamine, N,N,4-trimethyl-",357.35,1.0,Cc1ccc(N(C)C)cc1,le15
6517,"Benzenamine, N-ethyl-3-methyl-",362.15,1.0,CCNc1cccc(C)c1,le15
6518,"Benzenemethanamine, N,N-dimethyl-",327.5499999999999,1.0,CN(C)Cc1ccccc1,le15
6519,"N,N,3-trimethylaniline",354.15,1.0,Cc1cccc(N(C)C)c1,le15
6520,"Benzenamine, 2,4,5-trimethyl- (9CI)",268.15,1.0,Cc1cc(C)c(N)cc1C,le15
6521,(2R)-1-phenylpropan-2-amine,360.55,1.0,C[C@@H](N)Cc1ccccc1,le15
6522,"Benzeneethanamine, beta-methyl- (9CI)",357.75,1.0,CC(CN)c1ccccc1,le15
6523,2-phenylpropan-2-amine,357.2,1.0,CC(C)(N)c1ccccc1,le15
6524,"Benzeneethanamine, N-methyl- (9CI)",347.04999999999984,1.0,CNCCc1ccccc1,le15
6525,"Aniline, N-ethyl-N-methyl- (8CI)",347.54999999999984,1.0,CCN(C)c1ccccc1,le15
6526,"p-Toluidine, N-ethyl- (8CI)",357.25,1.0,CCNc1ccc(C)cc1,le15
6527,"Benzenamine, N-propyl-",359.95,1.0,CCCNc1ccccc1,le15
6528,"2-ethyl-3,5-dimethylpyridine",337.65,1.0,CCc1ncc(C)cc1C,le15
6529,3-phenylpropan-1-amine,468.15,1.0,NCCCc1ccccc1,le15
6530,p-Methylphenethylamine,363.15,1.0,Cc1ccc(CCN)cc1,le15
6531,4-tert-butylpyridine,336.45,1.0,CC(C)(C)c1ccncc1,le15
6532,4-butylpyridine,354.82099999999997,1.0,CCCCc1ccncc1,le15
6533,"Benzenemethanamine, N-ethyl-",339.15,1.0,CCNCc1ccccc1,le15
6534,"2,3,4,6-tetramethylpyridine",347.15,1.0,Cc1cc(C)c(C)c(C)n1,le15
6535,"Benzenamine, 2-ethyl-6-methyl-",362.55,1.0,CCc1cccc(C)c1N,le15
6536,"4-ethyl-2,6-dimethylpyridine",330.5499999999999,1.0,CCc1cc(C)nc(C)c1,le15
6537,"Benzenamine, 2,4,6-trimethyl-",369.15,1.0,Cc1cc(C)c(N)c(C)c1,le15
6538,3-butylpyridine,352.15,1.0,CCCCc1cccnc1,le15
6539,"Benzenamine, N-(1-methylethyl)-",360.85,1.0,CC(C)Nc1ccccc1,le15
6540,"Benzenamine, 2-propyl- (9CI)",370.95,1.0,CCCc1ccccc1N,le15
6541,2-butylpyridine,341.95,1.0,CCCCc1ccccn1,le15
6542,"Carbamodithioic acid, dimethyl-, methyl ester (9CI)",327.0499999999999,1.0,CSC(=S)N(C)C,le15
6543,"Carbamoyl chloride, diethyl-",348.15,1.0,CCN(CC)C(=O)Cl,le15
6544,2-Chloroethyldiethylamine,295.95,1.0,CCN(CC)CCCl,le15
6545,"Arsine oxide, trimethyl-",329.5499999999999,1.0,C[As](C)(C)=O,le15
6546,"Benzene, 1,4-dinitroso-",376.65,1.0,O=Nc1ccc(N=O)cc1,le15
6547,"1,5-Dihydro-4H-pyrazolo(3,4-d)pyrimidin-4-one (9CI)",402.85,1.0,O=c1[nH]cnc2[nH]ncc12,le15
6548,"2H-Purin-2-one, 1,3-dihydro-",640.25,1.0,O=c1[nH]cc2ncnc-2[nH]1,le15
6549,"Benzoic acid, methyl ester",353.35,1.0,COC(=O)c1ccccc1,le15
6550,"Benzoic acid, 3-methyl-",423.15,1.0,Cc1cccc(C(=O)O)c1,le15
6551,1-(4-hydroxyphenyl)ethanone,394.35,1.0,CC(=O)c1ccc(O)cc1,le15
6552,"Benzoic acid, 4-methyl-",397.85,1.0,Cc1ccc(C(=O)O)cc1,le15
6553,"Acetic acid, phenyl-",429.36300000000006,1.0,O=C(O)Cc1ccccc1,le15
6554,"Formic acid, phenylmethyl ester",355.15,1.0,O=COCc1ccccc1,le15
6555,"Acetophenone, 2'-hydroxy- (8CI)",360.65,1.0,CC(=O)c1ccccc1O,le15
6556,"Benzaldehyde, 4-methoxy-",382.05,1.0,COc1ccc(C=O)cc1,le15
6557,"Benzaldehyde, 2-methoxy-",390.15,1.0,COc1ccccc1C=O,le15
6558,"2,5-Cyclohexadiene-1,4-dione, 2,6-dimethyl- (9CI)",344.25,1.0,CC1=CC(=O)C=C(C)C1=O,le15
6559,"Benzaldehyde, 3-methoxy-",383.15,1.0,COc1cccc(C=O)c1,le15
6560,2-hydroxy-5-methylbenzaldehyde,358.25,1.0,Cc1ccc(O)c(C=O)c1,le15
6561,2-hydroxy-4-methylbenzaldehyde,361.15,1.0,Cc1ccc(C=O)c(O)c1,le15
6562,"2,5-Cyclohexadiene-1,4-dione, 2,5-dimethyl-",344.25,1.0,CC1=CC(=O)C(C)=CC1=O,le15
6563,"1,3-Propanediol, 2,2-bis(hydroxymethyl)-",473.25,1.0,OCC(CO)(CO)CO,le15
6564,"Benzenecarboximidamide, N-hydroxy- (9CI)",412.85,1.0,N=C(NO)c1ccccc1,le15
6565,"Benzoic acid, hydrazide",412.85,1.0,NNC(=O)c1ccccc1,le15
6566,tetramethoxymethane,279.85,1.0,COC(OC)(OC)OC,le15
6567,"Benzamide, p-amino- (8CI)",438.05,1.0,NC(=O)c1ccc(N)cc1,le15
6568,"Acetamide, N-4-pyridinyl- (9CI)",435.15,1.0,CC(=O)Nc1ccncc1,le15
6569,N-pyridin-3-ylacetamide,424.95,1.0,CC(=O)Nc1cccnc1,le15
6570,"1,2-Oxathiane, 2,2-dioxide",408.35,1.0,O=S1(=O)CCCCO1,le15
6571,"4-methyl-1,3,2-dioxathiane 2-oxide",342.45,1.0,CC1CCOS(=O)O1,le15
6572,"2,1,3-benzothiadiazole",368.15,1.0,c1ccc2nsnc2c1,le15
6573,"Phenol, 2-(1-methylethyl)-",380.15,1.0,CC(C)c1ccccc1O,le15
6574,"Phenol, 4-(1-methylethyl)-",368.45,1.0,CC(C)c1ccc(O)cc1,le15
6575,"1-Propanol, 3-phenyl-",382.15,1.0,OCCCc1ccccc1,le15
6576,"2,4,5-trimethylphenol",375.45,1.0,Cc1cc(C)c(O)cc1C,le15
6577,"2,3,4-trimethylphenol",378.45,1.0,Cc1ccc(O)c(C)c1C,le15
6578,"Phenol, 3,4,5-trimethyl-",382.25,1.0,Cc1cc(O)cc(C)c1C,le15
6579,"Phenol, 2,4,6-trimethyl-",369.85,1.0,Cc1cc(C)c(O)c(C)c1,le15
6580,1-(4-methylphenyl)ethanol,375.15,1.0,Cc1ccc(C(C)O)cc1,le15
6581,ethoxymethylbenzene,326.0499999999999,1.0,CCOCc1ccccc1,le15
6582,"Benzene, 1-ethoxy-2-methyl-",337.35,1.0,CCOc1ccccc1C,le15
6583,"Benzenemethanol, alpha,alpha-dimethyl-",360.95,1.0,CC(C)(O)c1ccccc1,le15
6584,"Phenetole, p-methyl- (8CI)",343.15,1.0,CCOc1ccc(C)cc1,le15
6585,"Phenol, 4-propyl-",379.25,1.0,CCCc1ccc(O)cc1,le15
6586,"Phenol, 2,3,5-trimethyl-",376.75,1.0,Cc1cc(C)c(C)c(O)c1,le15
6587,"Phenethyl alcohol, p-methyl- (8CI)",380.35,1.0,Cc1ccc(CCO)cc1,le15
6588,"Benzenemethanol, 4-ethyl-",377.55,1.0,CCc1ccc(CO)cc1,le15
6589,"1-methoxy-3,5-dimethylbenzene",338.15,1.0,COc1cc(C)cc(C)c1,le15
6590,"2-methoxy-1,3-dimethylbenzene",340.15,1.0,COc1c(C)cccc1C,le15
6591,"Phenethyl alcohol, beta-methyl-",381.15,1.0,CC(CO)c1ccccc1,le15
6592,1-ethyl-4-methoxybenzene,341.65,1.0,CCc1ccc(OC)cc1,le15
6593,"m-Cresol, 6-ethyl-",368.55,1.0,CCc1ccc(C)cc1O,le15
6594,"2-methoxy-1,4-dimethylbenzene",339.25,1.0,COc1cc(C)ccc1C,le15
6595,propan-2-yloxybenzene,335.0499999999999,1.0,CC(C)Oc1ccccc1,le15
6596,"1-methoxy-2,3-dimethylbenzene",342.95,1.0,COc1cccc(C)c1C,le15
6597,"Benzene, (2-methoxyethyl)-",325.65,1.0,COCCc1ccccc1,le15
6598,"4-methoxy-1,2-dimethylbenzene",348.75,1.0,COc1ccc(C)c(C)c1,le15
6599,"1-methoxy-2,4-dimethylbenzene",338.25,1.0,COc1ccc(C)cc1C,le15
6600,1-ethyl-2-methoxybenzene,333.75,1.0,CCc1ccccc1OC,le15
6601,2-(2-methylphenyl)ethanol,381.45,1.0,Cc1ccccc1CCO,le15
6602,"(3,5-dimethylphenyl)methanol",379.85,1.0,Cc1cc(C)cc(CO)c1,le15