,compound,flashpoint,pure substance,smiles,source
11601,"1-Propanol, 2,3-dibromo-, phosphate (3:1)",556.05,1.0,O=P(O)(O)O.OCC(Br)CBr.OCC(Br)CBr.OCC(Br)CBr,le15
11602,"2,3-di(tetradecanoyloxy)propyl tetradecanoate",544.05,1.0,CCCCCCCCCCCCCC(=O)OCC(COC(=O)CCCCCCCCCCCCC)OC(=O)CCCCCCCCCCCCC,le15
11603,"Cyclotetrasiloxane, octaphenyl-",473.15,1.0,c1ccc([Si]2(c3ccccc3)O[Si](c3ccccc3)(c3ccccc3)O[Si](c3ccccc3)(c3ccccc3)O[Si](c3ccccc3)(c3ccccc3)O2)cc1,le15
11604,"3,3-Bis(4-hydroxy-3,5-diiodophenyl)-1(3H)-isobenzofuranone",624.95,1.0,O=C1OC(c2cc(I)c(O)c(I)c2)(c2cc(I)c(O)c(I)c2)c2ccccc21,le15
11605,"2,3-bis[[(Z)-octadec-9-enoyl]oxy]propyl (Z)-octadec-9-enoate",575.75,1.0,CCCCCCCC/C=C\CCCCCCCC(=O)OCC(COC(=O)CCCCCCC/C=C\CCCCCCCC)OC(=O)CCCCCCC/C=C\CCCCCCCC,le15
11606,"Benzene, 1,1'-oxybis(2,3,4,5,6-pentabromo-",514.55,1.0,Brc1c(Br)c(Br)c(Oc2c(Br)c(Br)c(Br)c(Br)c2Br)c(Br)c1Br,le15
13738,"1,1bicyclohexyl",347.15,1.0,C1CCC(C2CCCCC2)CC1,le15
13739,"1,1dichloroethane",267.0,1.0,CC(Cl)Cl,le15
13740,"1,1dichloroethylene",248.0,1.0,C=C(Cl)Cl,le15
13741,"1,1dichloropropane",280.0,1.0,CCC(Cl)Cl,le15
13742,"1,1diethoxyethane",252.0,1.0,CCOC(C)OCC,le15
13743,"1,1dimethoxyethane",256.0,1.0,COC(C)OC,le15
13744,"1,1dimethyl1sila2oxacyclohexane",287.15,1.0,C[Si]1(C)CCCCO1,le15
13745,"1,2butanediol",366.0,1.0,CCC(O)CO,le15
13746,"1,2cyclohexanedione",357.0,1.0,O=C1CCCCC1=O,le15
13747,"1,2dibromoethyltrichlorosilane",338.15,1.0,Cl[Si](Cl)(Cl)C(Br)CBr,le15
13748,"1,2dichlorobenzene",340.0,1.0,Clc1ccccc1Cl,le15
13749,"1,2dichlorobutane",299.0,1.0,CCC(Cl)CCl,le15
13750,"1,2dichloroethane",286.0,1.0,ClCCCl,le15
13751,"1,2dichloropropane",289.0,1.0,CC(Cl)CCl,le15
13752,"1,2diethoxyethane",308.15,1.0,CCOCCOCC,le15
13753,"1,2diethylBenzene",330.15,1.0,CCc1ccccc1CC,le15
13754,"1,2dimethoxyethane",271.45,1.0,COCCOC,le15
13755,"1,2dimethyl3propylBenzene",345.15,1.0,CCCc1cccc(C)c1C,le15
13756,"1,2dimethylbenzene",305.0,1.0,Cc1ccccc1C,le15
13757,"1,2dimethylcyclohexane",288.0,1.0,CC1CCCCC1C,le15
13758,"1,2ethanediamine",307.0,1.0,NCCN,le15
13759,"1,2ethanediol",384.0,1.0,OCCO,le15
13760,"1,2ethanedithiol",323.0,1.0,SCCS,le15
13761,"1,2hexadiene-",253.15,1.0,C=C=CCCC,le15
13762,"1,2pentadiene-",233.15,1.0,C=C=CCC,le15
13763,"1,2propadiene",171.99999999999997,1.0,C=C=C,le15
13764,"1,2propanediamine",306.0,1.0,CC(N)CN,le15
13765,"1,2propanediol",380.0,1.0,CC(O)CO,le15
13766,"1,3butadiene",197.0,1.0,C=CC=C,le15
13767,"1,3butanediol",394.0,1.0,CC(O)CCO,le15
13768,"1,3cyclohexadiene",299.0,1.0,C1=CCCC=C1,le15
13769,"1,3cyclopentadiene",298.0,1.0,C1=CCC=C1,le15
13770,"1,3dibromoBenzene",366.15,1.0,Brc1cccc(Br)c1,le15
13771,"1,3dichloro2butene",300.15,1.0,CC(Cl)=CCCl,le15
13772,"1,3dichloro2propanol",358.15,1.0,OC(CCl)CCl,le15
13773,"1,3dichloroBenzene",345.15,1.0,Clc1cccc(Cl)c1,le15
13774,"1,3dichloropropane",293.0,1.0,ClCCCCl,le15
13775,"1,3dichloroTetramethylDisiloxane",288.15,1.0,C[Si](C)(Cl)O[Si](C)(C)Cl,le15
13776,"1,3diethenylBenzene",338.15,1.0,C=Cc1cccc(C=C)c1,le15
13777,"1,3diethylBenzene",329.15,1.0,CCc1cccc(CC)c1,le15
13778,"1,3diisopropylbenzene",349.0,1.0,CC(C)c1cccc(C(C)C)c1,le15
13779,"1,3dimethylBenzene",298.15,1.0,Cc1cccc(C)c1,le15
13780,"1,3dimethylbutylamine",285.95,1.0,CC(C)CC(C)N,le15
13781,"1,3dimethylcyclohexane",278.0,1.0,CC1CCCC(C)C1,le15
13782,"1,3dioxane",274.15,1.0,C1COCOC1,le15
13783,"1,3dioxolane",275.0,1.0,C1COCO1,le15
13784,"1,3divinylTetramethylDisilazane",307.15,1.0,C=C[Si](C)(C)N[Si](C)(C)C=C,le15
13785,"1,3pentadiene-",231.15,1.0,C=CC=CC,le15
13786,"1,3propanediamine",321.0,1.0,NCCCN,le15
13787,"1,3propanediol",404.0,1.0,OCCCO,le15
13788,"1,4butanediol",394.25,1.0,OCCCCO,le15
13789,"1,4cyclohexadiene",267.0,1.0,C1=CCC=CC1,le15
13790,"1,4dichloro2butene",326.15,1.0,ClCC=CCCl,le15
13791,"1,4dichlorobenzene",339.15,1.0,Clc1ccc(Cl)cc1,le15
13792,"1,4dichlorobutane",313.0,1.0,ClCCCCCl,le15
13793,"1,4dicyanobutane",432.0,1.0,N#CCCCCC#N,le15
13794,"1,4diethylbenzene",329.0,1.0,CCc1ccc(CC)cc1,le15
13795,"1,4diisopropylbenzene",349.0,1.0,CC(C)c1ccc(C(C)C)cc1,le15
13796,"1,4dimethylbenzene",298.0,1.0,Cc1ccc(C)cc1,le15
13797,"1,4dimethylcyclohexane",283.0,1.0,CC1CCC(C)CC1,le15
13798,"1,4dioxane",285.15,1.0,C1COCCO1,le15
13799,"1,4hexadiene",252.15,1.0,C=CCC=CC,le15
13800,"1,4pentadiene",277.0,1.0,C=CCC=C,le15
13801,"1,4thioxane",315.35,1.0,C1CSCCO1,le15
13802,"1,5cyclooctadiene",305.0,1.0,C1=CCCC=CCC1,le15
13803,"1,5dichloropentane",299.0,1.0,ClCCCCCCl,le15
13804,"1,5hexadiene",246.0,1.0,C=CCCC=C,le15
13805,"1,5pentanediamine",335.15,1.0,NCCCCCN,le15
13806,"1,5pentanediol",402.0,1.0,OCCCCCO,le15
13807,"1,5pentanedithiol",368.0,1.0,SCCCCCS,le15
13808,"1,6heptadiene",263.0,1.0,C=CCCCC=C,le15
13809,"1,6heptadiyne",282.0,1.0,C#CCCCC#C,le15
13810,"1,6hexanediamine",366.15,1.0,NCCCCCCN,le15
13811,"1,6hexanediol",420.0,1.0,OCCCCCCO,le15
13812,"1,7octadiene",282.0,1.0,C=CCCCCC=C,le15
13813,"1,7octadiyne",296.0,1.0,C#CCCCCC#C,le15
13814,"1,8nonadiene",299.0,1.0,C=CCCCCCC=C,le15
13815,"1,8nonadiyne",314.0,1.0,C#CCCCCCC#C,le15
13816,"1,9decadiene",316.15,1.0,C=CCCCCCCC=C,le15
13817,1amino2propanol,350.35,1.0,CC(O)CN,le15
13818,1bromo4methylBenzene,358.15,1.0,Cc1ccc(Br)cc1,le15
13819,1bromobutane,297.0499999999999,1.0,CCCCBr,le15
13820,1bromoheptane,333.75,1.0,CCCCCCCBr,le15
13821,1bromohexane,330.35,1.0,CCCCCCBr,le15
13822,1bromooctane,351.45,1.0,CCCCCCCCBr,le15
13823,1bromopentane,304.15,1.0,CCCCCBr,le15
13824,1bromopropane,298.15,1.0,CCCBr,le15
13825,1bromovinylTrimethylSilane,288.15,1.0,C=C(Br)[Si](C)(C)C,le15
13826,1butanethiol,274.85,1.0,CCCCS,le15
13827,1butanol,302.15,1.0,CCCCO,le15
13828,1butyne-,210.15,1.0,C#CCC,le15
13829,1chloro2methylBenzene,324.15,1.0,Cc1ccccc1Cl,le15
13830,1chloro4ethylbenzene,337.15,1.0,CCc1ccc(Cl)cc1,le15
13831,1chloro4methylBenzene,325.15,1.0,Cc1ccc(Cl)cc1,le15
13832,1chloroethyltrichlorosilane,288.15,1.0,CC(Cl)[Si](Cl)(Cl)Cl,le15
13833,1chlorohexane,308.15,1.0,CCCCCCCl,le15
13834,1chlorononamethylTetrasiloxane,347.15,1.0,C[Si](C)(C)O[Si](C)(C)O[Si](C)(C)O[Si](C)(C)Cl,le15
13835,1chlorooctane,343.15,1.0,CCCCCCCCCl,le15
13836,1decanol,355.15,1.0,CCCCCCCCCCO,le15
13837,1dodecanethiol,360.95,1.0,CCCCCCCCCCCCS,le15
13838,1ethenyl2ethylBenzene,331.15,1.0,C=Cc1ccccc1CC,le15
13839,1ethenyl3ethylBenzene,333.15,1.0,C=Cc1cccc(CC)c1,le15
13840,1ethenyl3methylBenzene,324.15,1.0,C=Cc1cccc(C)c1,le15
13841,1ethenyl4ethylBenzene,334.15,1.0,C=Cc1ccc(CC)cc1,le15
13842,1ethenyl4methylBenzene,319.15,1.0,C=Cc1ccc(C)cc1,le15
13843,1ethoxy2propanol,315.15,1.0,CCOCC(C)O,le15
13844,1ethyl2methylBenzene,312.15,1.0,CCc1ccccc1C,le15
13845,1ethyl3methylBenzene,311.15,1.0,CCc1cccc(C)c1,le15
13846,1ethyl4methylBenzene,309.15,1.0,CCc1ccc(C)cc1,le15
13847,1heptanamine,308.15,1.0,CCCCCCCN,le15
13848,1heptanethiol,314.15,1.0,CCCCCCCS,le15
13849,1heptanol,346.15,1.0,CCCCCCCO,le15
13850,1heptynylTrimethylSilane,315.15,1.0,CCCCCC#C[Si](C)(C)C,le15
13851,1hexanethiol,293.75,1.0,CCCCCCS,le15
13852,1hexanol,333.15,1.0,CCCCCCO,le15
13853,1hexenylTrichloroSilane,333.15,1.0,CCCCC=C[Si](Cl)(Cl)Cl,le15
13854,1Hindene,328.15,1.0,C1=Cc2ccccc2C1,le15
13855,1Hpyrazole,355.15,1.0,c1cn[nH]c1,le15
13856,1iodobutane,306.15,1.0,CCCCI,le15
13857,1iodoheptane,352.04999999999984,1.0,CCCCCCCI,le15
13858,1iodohexane,334.15,1.0,CCCCCCI,le15
13859,1isopropoxy2propanol,309.15,1.0,CC(O)COC(C)C,le15
13860,1methoxy2propaneamine,281.15,1.0,COCC(C)N,le15
13861,1methoxy2propanol,305.15,1.0,COCC(C)O,le15
13862,1methoxy2propanone,293.15,1.0,COCC(C)=O,le15
13863,1methoxy2propoxyTrimethylSilane,293.15,1.0,COCC(C)O[Si](C)(C)C,le15
13864,1methyl1Hindene,338.15,1.0,CC1C=Cc2ccccc21,le15
13865,1methyl2propylBenzene,326.15,1.0,CCCc1ccccc1C,le15
13866,1methyl3propylBenzene,325.15,1.0,CCCc1cccc(C)c1,le15
13867,1methylethylBenzene,304.15,1.0,CC(C)c1ccccc1,le15
13868,1methylpropylBenzene,325.15,1.0,CCC(C)c1ccccc1,le15
13869,1nitropropane,308.75,1.0,CCC[N+](=O)[O-],le15
13870,1nonanamine,335.15,1.0,CCCCCCCCCN,le15
13871,1nonanethiol,351.15,1.0,CCCCCCCCCS,le15
13872,1nonanol,348.15,1.0,CCCCCCCCCO,le15
13873,1nonyne,306.15,1.0,C#CCCCCCCC,le15
13874,1octanal,325.15,1.0,CCCCCCCC=O,le15
13875,1octanethiol,341.15,1.0,CCCCCCCCS,le15
13876,1octanol,354.15,1.0,CCCCCCCCO,le15
13877,1octyne-,259.15,1.0,C#CCCCCCC,le15
13878,1pentanethiol,291.45,1.0,CCCCCS,le15
13879,1pentanol,306.15,1.0,CCCCCO,le15
13880,1pentene3yne-,243.15,1.0,C=CC#CC,le15
13881,1pentene4yne-,229.15,1.0,C#CCC=C,le15
13882,1phenylheptane,368.15,1.0,CCCCCCCc1ccccc1,le15
13883,1phenylhexane,356.15,1.0,CCCCCCc1ccccc1,le15
13884,1phenyloctane,380.15,1.0,CCCCCCCCc1ccccc1,le15
13885,1piperazineEthanamine,366.15,1.0,NCCN1CCNCC1,le15
13886,1propanesulfonylchloride,353.15,1.0,CCCS(=O)(=O)Cl,le15
13887,1propanethiol,252.55,1.0,CCCS,le15
13888,1propanol,291.15,1.0,CCCO,le15
13889,1propoxy2propanol,321.15,1.0,CCCOCC(C)O,le15
13890,1propyne-,185.15,1.0,C#CC,le15
13891,1tertButyl4ethylBenzene,343.15,1.0,CCc1ccc(C(C)(C)C)cc1,le15
13892,1tetradecene,383.15,1.0,C=CCCCCCCCCCCCC,le15
13893,1trimethylsilylpropyne-,270.15,1.0,CC#C[Si](C)(C)C,le15
13894,1undecene,327.15,1.0,C=CCCCCCCCCC,le15
13895,"2,2dichloropropane",268.0,1.0,CC(C)(Cl)Cl,le15
13896,"2,2dimethyl1propanol",310.15,1.0,CC(C)(C)CO,le15
13897,"2,2dimethyl3ethylpentane",286.15,1.0,CCC(CC)C(C)(C)C,le15
13898,"2,2dimethylbutane",225.15,1.0,CCC(C)(C)C,le15
13899,"2,2dimethylpropane",208.0,1.0,CC(C)(C)C,le15
13900,"2,2dimethylpropanenitrile",277.0,1.0,CC(C)(C)C#N,le15
13901,"2,3butanediol",358.0,1.0,CC(O)C(C)O,le15
13902,"2,3butanedione",299.85,1.0,CC(=O)C(C)=O,le15
13903,"2,3dichloro1propanol",366.45,1.0,OCC(Cl)CCl,le15
13904,"2,3dihydro1Hindene",321.15,1.0,c1ccc2c(c1)CCC2,le15
13905,"2,3dihydro5methylfuran",261.0,1.0,CC1=CCCO1,le15
13906,"2,3dihydrofuran",249.0,1.0,C1=COCC1,le15
13907,"2,3dimethyl1butene",255.0,1.0,C=C(C)C(C)C,le15
13908,"2,3dimethyl2butene",257.0,1.0,CC(C)=C(C)C,le15
13909,"2,3dimethylaniline",370.15,1.0,Cc1cccc(N)c1C,le15
13910,"2,3dimethylbutane",244.15,1.0,CC(C)C(C)C,le15
13911,"2,3dimethylheptane",363.0,1.0,CCCCC(C)C(C)C,le15
13912,"2,3dimethylhexane",270.0,1.0,CCCC(C)C(C)C,le15
13913,"2,3dimethyloxirane",258.15,1.0,CC1OC1C,le15
13914,"2,3dimethylpentane",267.0,1.0,CCC(C)C(C)C,le15
13915,"2,3dimethylphenol",368.0,1.0,Cc1cccc(O)c1C,le15
13916,"2,3pentadiene-",236.15,1.0,CC=C=CC,le15
13917,"2,4dichlorophenol",387.05,1.0,Oc1ccc(Cl)cc1Cl,le15
13918,"2,4dimethyl3ethylpentane",288.15,1.0,CCC(C(C)C)C(C)C,le15
13919,"2,4dimethyl3pentanone",288.15,1.0,CC(C)C(=O)C(C)C,le15
13920,"2,4dimethylpentane",260.95,1.0,CC(C)CC(C)C,le15
13921,"2,4dimethylphenol",367.0,1.0,Cc1ccc(O)c(C)c1,le15
13922,"2,4dimethylpyridine",310.35,1.0,Cc1ccnc(C)c1,le15
13923,"2,4hexadiene-",266.15,1.0,CC=CC=CC,le15
13924,"2,4pentadienylTrimethylSilane",291.15,1.0,C=CC=CC[Si](C)(C)C,le15
13925,"2,4pentanedione",307.15,1.0,CC(=O)CC(C)=O,le15
13926,"2,5dihydrofuran-",257.15,1.0,C1=CCOC1,le15
13927,"2,5dimethoxychlorobenzene",390.35,1.0,COc1ccc(OC)c(Cl)c1,le15
13928,"2,5dimethylphenol",368.0,1.0,Cc1ccc(C)c(O)c1,le15
13929,"2,5hexanediol",383.15,1.0,CC(O)CCC(C)O,le15
13930,"2,5hexanedione",352.15,1.0,CC(=O)CCC(C)=O,le15
13931,"2,5norbornadiene",262.0,1.0,C1=CC2C=CC1C2,le15
13932,"2,6dimethyl4heptanol",339.15,1.0,CC(C)CC(O)CC(C)C,le15
13933,"2,6dimethyl4heptanone",322.15,1.0,CC(C)CC(=O)CC(C)C,le15
13934,"2,6dimethylphenol",346.0,1.0,Cc1cccc(C)c1O,le15
13935,2amino2methyl1propanol,340.35,1.0,CC(C)(N)CO,le15
13936,2bromoethyltrichlorosilane,313.15,1.0,Cl[Si](Cl)(Cl)CCBr,le15
13937,2bromovinylTrimethylSilane,288.15,1.0,C[Si](C)(C)C=CBr,le15
13938,2butanol,297.15,1.0,CCC(C)O,le15
13939,2butanone,264.15,1.0,CCC(C)=O,le15
13940,2butoxyethylacetate,344.15,1.0,CCCCOCCOC(C)=O,le15
13941,2butyl1octanol,383.15,1.0,CCCCCCC(CO)CCCC,le15
13942,2butyne-,224.15,1.0,CC#CC,le15
13943,2chloro1propanol,324.85,1.0,CC(Cl)CO,le15
13944,2chloro1propene-,239.15,1.0,C=C(C)Cl,le15
13945,2chlorobenzenamine,364.15,1.0,Nc1ccccc1Cl,le15
13946,2chlorobutane,258.15,1.0,CCC(C)Cl,le15
13947,2chloroethanol,333.15,1.0,OCCCl,le15
13948,2chloroethylacetate,339.25,1.0,CC(=O)OCCCl,le15
13949,2chloroethyltrichlorosilane,301.15,1.0,ClCC[Si](Cl)(Cl)Cl,le15
13950,2chloromethyl3trimethylsilyl1propene,316.15,1.0,C=C(CCl)C[Si](C)(C)C,le15
13951,2chloropropionicAcid,380.35,1.0,CC(Cl)C(=O)O,le15
13952,2chlorotoluene,316.0,1.0,Cc1ccccc1Cl,le15
13953,2cyanoethylMethylDichloroSilane,333.15,1.0,C[Si](Cl)(Cl)CCC#N,le15
13954,2cyanoethylTriethoxySilane,359.15,1.0,CCO[Si](CCC#N)(OCC)OCC,le15
13955,2cyclohexen1one,307.15,1.0,O=C1C=CCCC1,le15
13956,2decene,320.15,1.0,CC=CCCCCCCC,le15
13957,2dodecene,351.15,1.0,CC=CCCCCCCCCC,le15
13958,2ethoxyethanol,316.45,1.0,CCOCCO,le15
13959,2ethoxyethylacetate,320.35,1.0,CCOCCOC(C)=O,le15
13960,2ethyl1butanol,330.15,1.0,CCC(CC)CO,le15
13961,2ethyl1hexanol,346.15,1.0,CCCCC(CC)CO,le15
13962,2ethyl1pentene-,263.15,1.0,C=C(CC)CCC,le15
13963,2ethyl2hexenal,341.15,1.0,CCCC=C(C=O)CC,le15
13964,2ethylbenzenamine,364.15,1.0,CCc1ccccc1N,le15
13965,2ethylhexanal,317.15,1.0,CCCCC(C=O)CC,le15
13966,2ethylhexylacetate,344.15,1.0,CCCCC(CC)COC(C)=O,le15
13967,2ethylhexylacrylate,359.0,1.0,C=CC(=O)OCC(CC)CCCC,le15
13968,2fluoro2methylpropane,260.95,1.0,CC(C)(C)F,le15
13969,2furancarboxaldehyde,333.15,1.0,O=Cc1ccco1,le15
13970,2heptanone,320.15,1.0,CCCCCC(C)=O,le15
13971,2hexanol,330.95,1.0,CCCCC(C)O,le15
13972,2hexanone,308.15,1.0,CCCCC(C)=O,le15
13973,2hydroxy3butenenitrile,366.15,1.0,C=CC(O)C#N,le15
13974,2iodobutane,301.15,1.0,CCC(C)I,le15
13975,2iodotoluene,363.15,1.0,Cc1ccccc1I,le15
13976,2isopropylbiphenyl,413.75,1.0,CC(C)c1ccccc1-c1ccccc1,le15
13977,2methoxy1propanol,309.15,1.0,COC(C)CO,le15
13978,2methoxyethanol,312.15,1.0,COCCO,le15
13979,2methoxyethylacetate,322.15,1.0,COCCOC(C)=O,le15
13980,2methyl1butene3yne-,221.15,1.0,C#CC(=C)C,le15
13981,2methyl1hexanol,333.15,1.0,CCCCC(C)CO,le15
13982,2methyl1Hindene,344.15,1.0,CC1=Cc2ccccc2C1,le15
13983,2methyl1propanethiol-,264.15,1.0,CC(C)CS,le15
13984,2methyl2pentenal,304.15,1.0,CCC=C(C)C=O,le15
13985,2methyl2propen1ol,306.45,1.0,C=C(C)CO,le15
13986,2methyl2propenoicAcid,340.15,1.0,C=C(C)C(=O)O,le15
13987,2methylallylchloride,261.15,1.0,C=C(C)CCl,le15
13988,2methylaminoEthanol,347.04999999999984,1.0,CNCCO,le15
13989,2methylaziridine-,263.15,1.0,CC1CN1,le15
13990,2methylbenzaldehyde,340.15,1.0,Cc1ccccc1C=O,le15
13991,2methylbenzenamine,358.15,1.0,Cc1ccccc1N,le15
13992,2methylbenzofuran,340.15,1.0,Cc1cc2ccccc2o1,le15
13993,2methylbutylAmine-,257.15,1.0,CCC(C)CN,le15
13994,2methylpropylBenzene,325.15,1.0,CC(C)Cc1ccccc1,le15
13995,2methylpyridine,299.15,1.0,Cc1ccccn1,le15
13996,2methyltetrahydrofuran,262.04999999999995,1.0,CC1CCCO1,le15
13997,2methylvalericacid,364.25,1.0,CCCC(C)C(=O)O,le15
13998,2naphthol,426.15,1.0,Oc1ccc2ccccc2c1,le15
13999,2nitrobiphenyl,452.15,1.0,O=[N+]([O-])c1ccccc1-c1ccccc1,le15
14000,2nitropropane,297.15,1.0,CC(C)[N+](=O)[O-],le15
14001,2nonanol,355.15,1.0,CCCCCCCC(C)O,le15
14002,2nonanone,333.15,1.0,CCCCCCCC(C)=O,le15
14003,2octanol,360.95,1.0,CCCCCCC(C)O,le15
14004,2octanone,335.15,1.0,CCCCCCC(C)=O,le15
14005,2oxolan2yloxolane,362.15,1.0,C1COC(C2CCCO2)C1,le15
14006,2pentaneamine,266.45,1.0,CCCC(C)N,le15
14007,2pentanone,280.35,1.0,CCCC(C)=O,le15
14008,2pentene-,226.15,1.0,CC=CCC,le15
14009,2phenoxyethanol,394.25,1.0,OCCOc1ccccc1,le15
14010,2phenylethanol,375.15,1.0,OCCc1ccccc1,le15
14011,2phenylphenol,397.05,1.0,Oc1ccccc1-c1ccccc1,le15
14012,2propanol,285.15,1.0,CC(C)O,le15
14013,2propenal,254.25,1.0,C=CC=O,le15
14014,2propenenitrile,273.15,1.0,C=CC#N,le15
14015,2propenylAcetate,295.15,1.0,CC=CCC(=O)[O-],le15
14016,"3,3dimethyl1butene",245.0,1.0,C=CC(C)(C)C,le15
14017,"3,3dimethyl2butanone",285.15,1.0,CC(=O)C(C)(C)C,le15
14018,"3,3dimethylbutanoicacid",361.0,1.0,CC(C)(C)CC(=O)O,le15
14019,"3,4dichloro1butene",301.15,1.0,C=CC(Cl)CCl,le15
14020,"3,4dihydro2Hpyran",255.15,1.0,C1=COCCC1,le15
14021,3amino1propanol,352.15,1.0,NCCCO,le15
14022,3bromo1trimethylsilyl1propyne,335.15,1.0,C[Si](C)(C)C#CCBr,le15
14023,3bromopropyltrichlorosilane,361.15,1.0,Cl[Si](Cl)(Cl)CCCBr,le15
14024,3bromopropylTrimethoxySilane,355.15,1.0,CO[Si](CCCBr)(OC)OC,le15
14025,3buten1ol,310.95,1.0,C=CCCO,le15
14026,3butenenitrile,294.15,1.0,C=CCC#N,le15
14027,3chloro1propene-,241.15,1.0,C=CCCl,le15
14028,3chloro2methylpropylMethylDichloroSilane,363.15,1.0,CC(CCl)C[Si](C)(Cl)Cl,le15
14029,3chloropropylDimethylChloroSilane,313.15,1.0,C[Si](C)(Cl)CCCCl,le15
14030,3chloropropylMethylDichloroSilane,359.15,1.0,C[Si](Cl)(Cl)CCCCl,le15
14031,3chloropropylMethylDimethoxySilane,318.15,1.0,CO[Si](C)(CCCCl)OC,le15
14032,3chloropropylTriethoxySilane,335.15,1.0,CCO[Si](CCCCl)(OCC)OCC,le15
14033,3chloropropylTrimethoxySilane,351.15,1.0,CO[Si](CCCCl)(OC)OC,le15
14034,3ethoxypropionaldehyde,311.15,1.0,CCOCCC=O,le15
14035,3ethoxypropionicacid,380.35,1.0,CCOCCC(=O)O,le15
14036,3ethyl1heptanol,363.15,1.0,CCCCC(CC)CCO,le15
14037,3ethyl1hexene,274.15,1.0,C=CC(CC)CCC,le15
14038,3ethyl1pentene-,256.15,1.0,C=CC(CC)CC,le15
14039,3ethyl4methylhexane,297.15,1.0,CCC(C)C(CC)CC,le15
14040,3ethylheptanal,328.15,1.0,CCCCC(CC)CC=O,le15
14041,3ethylheptane,295.15,1.0,CCCCC(CC)CC,le15
14042,3heptanone,310.15,1.0,CCCCC(=O)CC,le15
14043,3hexyne-,256.15,1.0,CCC#CCC,le15
14044,3iodotoluene,355.35,1.0,Cc1cccc(I)c1,le15
14045,3isopropoxypropionitrile,341.45,1.0,CC(C)OCCC#N,le15
14046,3methacryloxyPropylTrimethoxySilane,365.15,1.0,C=C(C)C(=O)OCCC[Si](OC)(OC)OC,le15
14047,3methoxypropylamine,305.35,1.0,COCCCN,le15
14048,3methyl1butyne-,221.15,1.0,C#CC(C)C,le15
14049,3methyl1hexene-,267.15,1.0,C=CC(C)CCC,le15
14050,3methyl3buten2one,294.15,1.0,C=C(C)C(C)=O,le15
14051,3methyl3pentanol,297.15,1.0,CCC(C)(O)CC,le15
14052,3methylbenzaldehyde,351.15,1.0,Cc1cccc(C=O)c1,le15
14053,3methylbenzenamine,359.15,1.0,Cc1cccc(N)c1,le15
14054,3methylbutanal-,268.15,1.0,CC(C)CC=O,le15
14055,3methylbutylAcetate,298.15,1.0,CC(=O)OCCC(C)C,le15
14056,3methylthiophene,284.15,1.0,Cc1ccsc1,le15
14057,3methylthioPropionaldehyde,334.25,1.0,CCCC=S,le15
14058,3nonanone,339.15,1.0,CCCCCCC(=O)CC,le15
14059,3pyridinecarbonitrile,357.15,1.0,N#Cc1cccnc1,le15
14060,3trimethylsilylCyclopentene,299.15,1.0,C[Si](C)(C)C1C=CCC1,le15
14061,4bromobiphenyl,417.05,1.0,Brc1ccc(-c2ccccc2)cc1,le15
14062,4butylalcohol,284.15,1.0,CCCCO,le15
14063,4chlorophenylisocyanate,383.15,1.0,O=C=Nc1ccc(Cl)cc1,le15
14064,4ethylphenol,377.05,1.0,CCc1ccc(O)cc1,le15
14065,4heptanone,322.15,1.0,CCCC(=O)CCC,le15
14066,4hydroxy4methyl2pentanone,331.15,1.0,CC(=O)CC(C)(C)O,le15
14067,4methyl1heptene,275.15,1.0,C=CCC(C)CCC,le15
14068,4methyl1hexene-,258.15,1.0,C=CCC(C)CC,le15
14069,4methyl1octanol,358.15,1.0,CCCCC(C)CCCO,le15
14070,4methyl2pentanone,291.15,1.0,CC(=O)CC(C)C,le15
14071,4methyl2pentene-,238.15,1.0,CC=CC(C)C,le15
14072,4methyl3penten2one,304.15,1.0,CC(=O)C=C(C)C,le15
14073,4methylbenzaldehyde,353.15,1.0,Cc1ccc(C=O)cc1,le15
14074,4methylbenzenamine,360.15,1.0,Cc1ccc(N)cc1,le15
14075,4methylcyclohexanol,343.15,1.0,CC1CCC(O)CC1,le15
14076,4methylene2oxetanone,307.15,1.0,C=C1CC(=O)O1,le15
14077,4methylmorpholine,297.0499999999999,1.0,CN1CCOCC1,le15
14078,4nonanone,335.15,1.0,CCCCCC(=O)CCC,le15
14079,4octanone,318.15,1.0,CCCCC(=O)CCC,le15
14080,4tertButyl2methylphenol,390.95,1.0,Cc1cc(C(C)(C)C)ccc1O,le15
14081,4vinyl1cyclohexene,289.25,1.0,C=CC1CC=CCC1,le15
14082,5hexen2one,296.15,1.0,C=CCCC(C)=O,le15
14083,5methyl2hexanone,309.15,1.0,CC(=O)CCC(C)C,le15
14084,6methyl1octanol,360.15,1.0,CCC(C)CCCCCO,le15
14085,6methyl3heptanone,318.15,1.0,CCC(=O)CCC(C)C,le15
14086,7methyl1octene,291.15,1.0,C=CCCCCC(C)C,le15
14087,8methyl1nonene,316.15,1.0,C=CCCCCCC(C)C,le15
14088,Acetaldehyde,246.15,1.0,CC=O,le15
14089,Acetanilide,446.15,1.0,CC(=O)Nc1ccccc1,le15
14090,Aceticacid,312.15,1.0,CC(=O)O,le15
14091,Acetone,253.15,1.0,CC(C)=O,le15
14092,Acetophenone,350.15,1.0,CC(=O)c1ccccc1,le15
14093,AcetoxymethylTrimethylSilane,293.15,1.0,CC(=O)OC[Si](C)(C)C,le15
14094,AcetoxyTrimethylSilane,277.15,1.0,CC(=O)O[Si](C)(C)C,le15
14095,Acetylchloride,277.15,1.0,CC(=O)Cl,le15
14096,Acrylicacid,327.15,1.0,C=CC(=O)O,le15
14097,AdipicAcid,469.15,1.0,O=C(O)CCCCC(=O)O,le15
14098,Allylalcohol,294.15,1.0,C=CCO,le15
14099,Allylamine,244.15,1.0,C=CCN,le15