,compound,flashpoint,pure substance,smiles,source
5497,"Benzeneethanol, alpha-methyl-alpha-phenyl-",404.05,1,CC(O)(Cc1ccccc1)c1ccccc1,le15
5498,"Hydrazine, 1,1-bis(phenylmethyl)- (9CI)",480.75,1,NN(Cc1ccccc1)Cc1ccccc1,le15
5499,"1,8-dimethyldibenzothiophene",403.35,1,Cc1ccc2sc3cccc(C)c3c2c1,le15
5500,"Phosphonodithioic acid, methyl-, S,S-dipropyl ester",402.95,1,CCCSP(C)(=O)SCCC,le15
5501,"7-Octen-1-ol, 3,7-dimethyl-, propanoate",362.65,1,C=C(C)CCCC(C)CCOC(=O)CC,le15
5502,"6-Octen-1-ol, 3,7-dimethyl-, propionate (7CI,8CI)",363.95,1,CCC(=O)OCCC(C)CCC=C(C)C,le15
5503,"2-Propenoic acid, decyl ester",367.45,1,C=CC(=O)OCCCCCCCCCC,le15
5504,"2-Propenoic acid, isodecyl ester",367.45,1,C=CC(=O)OCCCCCCCC(C)C,le15
5505,Myristaldehyde (8CI),394.65,1,CCCCCCCCCCCCCC=O,le15
5506,"Anthracene, 9-chloro-",452.35,1,Clc1c2ccccc2cc2ccccc12,le15
5507,"Anthracene, 1-chloro- (8CI)(9CI)",452.35,1,Clc1cccc2cc3ccccc3cc12,le15
5508,"1-Naphthol, 2,4-dichloro- (8CI)",407.15,1,Oc1c(Cl)cc(Cl)c2ccccc12,le15
5509,Pentafluoronitrobenzene,363.75,1,O=[N+]([O-])c1c(F)c(F)c(F)c(F)c1F,le15
5510,2-bromo-1-phenylpropan-1-one,348.75,1,CC(Br)C(=O)c1ccccc1,le15
5511,"Benzene, 1,3,5-trinitro-",437.25,1,O=[N+]([O-])c1cc([N+](=O)[O-])cc([N+](=O)[O-])c1,le15
5512,1-bromo-4-tert-butylbenzene,370.15,1,CC(C)(C)c1ccc(Br)cc1,le15
5513,"Dibenzofuran, 3-nitro-",456.55,1,O=[N+]([O-])c1ccc2c(c1)oc1ccccc12,le15
5514,"Benzamide, 2-hydroxy-N-phenyl-",404.95,1,O=C(Nc1ccccc1)c1ccccc1O,le15
5515,"Phenol, 4-((4-aminophenyl)azo)-",467.05,1,Nc1ccc(N=Nc2ccc(O)cc2)cc1,le15
5516,"2,6-Pyridinediamine, 3-(phenylazo)- (9CI)",494.45,1,Nc1ccc(N=Nc2ccccc2)c(N)n1,le15
5517,"1,3,5-Triazine-2,4-diamine, N,N'-diethyl-6-(methylthio)- (9CI)",464.75,1,CCNc1nc(NCC)nc(SC)n1,le15
5518,"1-Dodecanamine, N,N-dimethyl-",380.05,1,CCCCCCCCCCCCN(C)C,le15
5519,Diheptylamine (8CI),381.05,1,CCCCCCCNCCCCCCC,le15
5520,"Carbamic acid, (3-chlorophenyl)-, 1-methylethyl ester (9CI)",378.85,1,CC(C)OC(=O)Nc1cccc(Cl)c1,le15
5521,"Carbamic acid, o-chloro-alpha-ethylbenzyl ester",440.15,1,CCC(OC(N)=O)c1ccccc1Cl,le15
5522,"2-Butene, 1,4-dibromo-, trans-",345.05,1,BrC/C=C/CBr,le15
5523,"2-Butene, 1,4-dibromo-",386.15,1,BrCC=CCBr,le15
5524,"Acetic acid, iodo-, ethyl ester",350.15,1,CCOC(=O)CI,le15
5525,"2,2,3,3,4,4,4-heptafluorobutanoic acid",291.15,1,O=C(O)C(F)(F)C(F)(F)C(F)(F)F,le15
5526,2-Bromo-N-phenylacetamide,440.55,1,O=C(CBr)Nc1ccccc1,le15
5527,"Isothiocyanic acid, p-bromophenyl ester",396.35,1,S=C=Nc1ccc(Br)cc1,le15
5528,1-bromo-3-isothiocyanatobenzene,402.05,1,S=C=Nc1cccc(Br)c1,le15
5529,"1,3-bis(trifluoromethyl)benzene",299.15,1,FC(F)(F)c1cccc(C(F)(F)F)c1,le15
5530,"1,4-bis(trifluoromethyl)benzene",294.85,1,FC(F)(F)c1ccc(C(F)(F)F)cc1,le15
5531,"1H-Benzimidazole, 5,6-dimethyl-2-(trifluoromethyl)- (9CI)",411.55,1,Cc1cc2nc(C(F)(F)F)[nH]c2cc1C,le15
5532,"Carbonic acid, diphenyl ester",392.55,1,O=C(Oc1ccccc1)Oc1ccccc1,le15
5533,"Benzoic acid, 2-hydroxy-, phenyl ester",410.45,1,O=C(Oc1ccccc1)c1ccccc1O,le15
5534,"Methanone, (2,4-dihydroxyphenyl)phenyl-",398.15,1,O=C(c1ccccc1)c1ccc(O)cc1O,le15
5535,"1,3-Benzenediol, monobenzoate",439.35,1,O=C(Oc1cccc(O)c1)c1ccccc1,le15
5536,"2,2'-Dihydroxybenzophenone",439.95,1,O=C(c1ccccc1O)c1ccccc1O,le15
5537,2-phenoxybenzoic acid,405.15,1,O=C(O)c1ccccc1Oc1ccccc1,le15
5538,"Benzenamine, 4-nitro-N-phenyl-",458.35,1,O=[N+]([O-])c1ccc(Nc2ccccc2)cc1,le15
5539,"4-Biphenylamine, 4'-nitro-",462.05,1,Nc1ccc(-c2ccc([N+](=O)[O-])cc2)cc1,le15
5540,"Phosphine, ethyldiphenyl-",412.75,1,CCP(c1ccccc1)c1ccccc1,le15
5541,"Sulfanilamide, N1-amidino- (8CI)",522.35,1,N=C(N)NS(=O)(=O)c1ccc(N)cc1,le15
5542,1-methoxy-3-(3-methoxyphenyl)benzene,402.95,1,COc1cccc(-c2cccc(OC)c2)c1,le15
5543,"Benzenemethanol, alpha-((2-pyridinylamino)methyl)- (9CI)",458.65,1,OC(CNc1ccccn1)c1ccccc1,le15
5544,"1,1,2,3,3-pentachloroprop-1-ene",345.85,1,ClC(Cl)=C(Cl)C(Cl)Cl,le15
5545,"diethyl cyclopentane-1,1-dicarboxylate",383.55,1,CCOC(=O)C1(C(=O)OCC)CCCC1,le15
5546,Isopropyl toluene-4-sulphonate,416.85,1,Cc1ccc(S(=O)(=O)OC(C)C)cc1,le15
5547,"Phosphorodithioic acid, O,O,S-triethyl ester",374.65,1,CCOP(=S)(OCC)SCC,le15
5548,methyl dodecanoate,367.15,1,CCCCCCCCCCCC(=O)OC,le15
5549,"Phosphorotrithious acid, triethyl ester",399.65,1,CCSP(SCC)SCC,le15
5550,"Octanoic acid, 3-methylbutyl ester",377.85,1,CCCCCCCC(=O)OCCC(C)C,le15
5551,octyl pentanoate,382.75,1,CCCCCCCCOC(=O)CCCC,le15
5552,tetradecan-2-ol,379.15,1,CCCCCCCCCCCCC(C)O,le15
5553,"Propanoic acid, 2-(4-chlorophenoxy)-2-methyl-",422.95,1,CC(C)(Oc1ccc(Cl)cc1)C(=O)O,le15
5554,"Toluene, 2,5-dichloro-alpha,alpha,alpha-trifluoro- (6CI,7CI,8CI)",343.85,1,FC(F)(F)c1cc(Cl)ccc1Cl,le15
5555,"Toluene, 2,4-dichloro-alpha,alpha,alpha-trifluoro- (8CI)",345.15,1,FC(F)(F)c1ccc(Cl)cc1Cl,le15
5556,"Toluene, 3,4-dichloro-alpha,alpha,alpha-trifluoro- (6CI,8CI)",338.75,1,FC(F)(F)c1ccc(Cl)c(Cl)c1,le15
5557,2-Bromo-1-(4-hydroxyphenyl)ethan-1-one,431.75,1,O=C(CBr)c1ccc(O)cc1,le15
5558,methyl 2-bromobenzoate,372.75,1,COC(=O)c1ccccc1Br,le15
5559,(4-bromophenyl)urea,402.85,1,NC(=O)Nc1ccc(Br)cc1,le15
5560,"Furo(2,3-b)quinolin-8-ol, 4-methoxy-",476.05,1,COc1c2ccoc2nc2c(O)cccc12,le15
5561,"1,2-Benzenediamine, 4-(4-aminophenoxy)- (9CI)",519.65,1,Nc1ccc(Oc2ccc(N)c(N)c2)cc1,le15
5562,"Butanoic acid, 4-(diethylamino)-4-oxo-, propyl ester (9CI)",415.95,1,CCCOC(=O)CCC(=O)N(CC)CC,le15
5563,"Bicyclo(2.2.1)heptan-2-amine, N-ethyl-3-phenyl-",426.05,1,CCNC1C2CCC(C2)C1c1ccccc1,le15
5564,"2-Propanone, 1,1,3-trichloro-1,3,3-trifluoro-",295.25,1,O=C(C(F)(F)Cl)C(F)(Cl)Cl,le15
5565,"Cyclohexanecarbamic acid, N-ethylthio-, S-ethyl ester",410.25,1,CCSC(=O)N(CC)C1CCCCC1,le15
5566,"Benzoic acid, 2-chloro-5-nitro-, methyl ester",418.45,1,COC(=O)c1cc([N+](=O)[O-])ccc1Cl,le15
5567,"Ethanol, 2,2'-((m-chlorophenyl)imino)di- (8CI)",467.35,1,OCCN(CCO)c1cccc(Cl)c1,le15
5568,"1,3,5-Triazine-2,4-diamine, 6-chloro-N-ethyl-N'-(1-methylethyl)-",449.85,1,CCNc1nc(Cl)nc(NC(C)C)n1,le15
5569,"Propanal, 2,3-dibromo- (9CI)",361.15,1,O=CC(Br)CBr,le15
5570,"Benzene, 1,2,4,5-tetrachloro-",381.35,1,Clc1cc(Cl)c(Cl)cc1Cl,le15
5571,"Benzene, 1,2,3,4-tetrachloro-",385.05,1,Clc1ccc(Cl)c(Cl)c1Cl,le15
5572,"Benzene, 1,2,3,5-tetrachloro-",383.15,1,Clc1cc(Cl)c(Cl)c(Cl)c1,le15
5573,"Butane, 1,4-dibromo-",338.35,1,BrCCCCBr,le15
5574,"1,2-dibromobutane",317.15,1,CCC(Br)CBr,le15
5575,"Propane, 1,2-dibromo-2-methyl-",299.35,1,CC(C)(Br)CBr,le15
5576,"2,3-dibromobutane",306.15,1,CC(Br)C(C)Br,le15
5577,"1,3-dibromobutane",321.95,1,CC(Br)CCBr,le15
5578,"Benzene, 1-(bromomethyl)-4-nitro-",410.95,1,O=[N+]([O-])c1ccc(CBr)cc1,le15
5579,"Benzene, 1-(bromomethyl)-3-nitro-",408.95,1,O=[N+]([O-])c1cccc(CBr)c1,le15
5580,alpha-Bromo-2-nitrotoluene,393.35,1,O=[N+]([O-])c1ccccc1CBr,le15
5581,2-Bromo-5-nitrotoluene,395.05,1,Cc1cc([N+](=O)[O-])ccc1Br,le15
5582,1-bromo-3-methyl-5-nitrobenzene,393.15,1,Cc1cc(Br)cc([N+](=O)[O-])c1,le15
5583,"7H-Furo(3,2-g)(1)benzopyran-7-one, 9-methoxy-",477.811,1,COc1c2occc2cc2ccc(=O)oc12,le15
5584,"7H-Furo(3,2-g)(1)benzopyran-7-one, 4-methoxy-",476.35,1,COc1c2ccoc2cc2oc(=O)ccc12,le15
5585,"2,6-Naphthalenedicarboxylic acid",505.55,1,O=C(O)c1ccc2cc(C(=O)O)ccc2c1,le15
5586,"Acetic acid, naphthyloxy-, methyl ester",413.85,1,COC(=O)COc1cccc2ccccc12,le15
5587,"Propanedioic acid, (ethoxymethylene)-, diethyl ester",380.75,1,CCOC=C(C(=O)OCC)C(=O)OCC,le15
5588,diethyl 2-acetylbutanedioate,399.25,1,CCOC(=O)CC(C(C)=O)C(=O)OCC,le15
5589,"(1,1'-Biphenyl)-3,3'-diol, 4,4'-diamino-",493.45,1,Nc1ccc(-c2ccc(N)c(O)c2)cc1O,le15
5590,"Pyrene, 1-methyl-",452.05,1,Cc1ccc2ccc3cccc4ccc1c2c34,le15
5591,"Phosphorothioic acid, O,O-dimethyl S-(2-(methylthio)ethyl) ester",390.45,1,COP(=O)(OC)SCCSC,le15
5592,11H-benzo[a]fluorene,458.55,1,c1ccc2c(c1)Cc1c-2ccc2ccccc12,le15
5593,"diethyl 2,2-diethylpropanedioate",367.55,1,CCOC(=O)C(CC)(CC)C(=O)OCC,le15
5594,"Propanedioic acid, butyl-, diethyl ester",366.15,1,CCCCC(C(=O)OCC)C(=O)OCC,le15
5595,dibutyl propanedioate,390.55,1,CCCCOC(=O)CC(=O)OCCCC,le15
5596,"Heptanedioic acid, diethyl ester",390.55,1,CCOC(=O)CCCCCC(=O)OCC,le15
5597,"1,1,2,3,3-pentachloropropane",353.05,1,ClC(Cl)C(Cl)C(Cl)Cl,le15
5598,"Quinazoline, 4-((2-(dimethylamino)ethyl)amino)-",452.85,1,CN(C)CCNc1ncnc2ccccc12,le15
5599,thianthrene,443.95,1,c1ccc2c(c1)Sc1ccccc1S2,le15
5600,"Octanal, 2-(phenylmethylene)-",413.65,1,CCCCCCC(C=O)=Cc1ccccc1,le15
5601,tridecane-1-thiol,385.55,1,CCCCCCCCCCCCCS,le15
5602,"Acetic acid, (4-chloro-2-hydroxymethylphenoxy)-",463.65,1,O=C(O)COc1ccc(Cl)cc1CO,le15
5603,3-Chlorobenzophenone,451.45,1,O=C(c1ccccc1)c1cccc(Cl)c1,le15
5604,"Benzophenone, 4-chloro- (8CI)",449.25,1,O=C(c1ccccc1)c1ccc(Cl)cc1,le15
5605,"Urea, 3-(chloro-2-norbornyl)-1,1-dimethyl-",468.05,1,CN(C)C(=O)NC1CC2CCC1(Cl)C2,le15
5606,"Urea, N'-(chlorobicyclo(2.2.1)hept-2-yl)-N,N-dimethyl-",468.05,1,CN(C)C(=O)NC1CC2CCC1(Cl)C2,le15
5607,"2,3,5,6-tetrachloropyridine",461.15,1,Clc1cc(Cl)c(Cl)nc1Cl,le15
5608,"5,6-dichloro-2-benzofuran-1,3-dione",417.95,1,O=C1OC(=O)c2cc(Cl)c(Cl)cc21,le15
5609,"Arsonic acid, (4-aminophenyl)-",546.55,1,Nc1ccc([As](=O)(O)O)cc1,le15
5610,"4-bromo-1,2-dimethoxybenzene",382.15,1,COc1ccc(Br)cc1OC,le15
5611,"Propanedioic acid, (acetylamino)-, diethyl ester",418.35,1,CCOC(=O)C(NC(C)=O)C(=O)OCC,le15
5612,"Acetamide, 2-fluoro-N-methyl-N-1-naphthalenyl- (9CI)",436.65,1,CN(C(=O)CF)c1cccc2ccccc12,le15
5613,Pyren-1-ylamine,519.35,1,Nc1ccc2ccc3cccc4ccc1c2c34,le15
5614,2-Aminopyrene,523.75,1,Nc1cc2ccc3cccc4ccc(c1)c2c34,le15
5615,Fluoranthen-3-ylamine,519.35,1,Nc1ccc2c3c(cccc13)-c1ccccc1-2,le15
5616,8-Aminofluoranthene,523.75,1,Nc1ccc2c(c1)-c1cccc3cccc-2c13,le15
5617,"2,6-Piperidinedione, 3-ethyl-3-phenyl-",434.95,1,CCC1(c2ccccc2)CCC(=O)NC1=O,le15
5618,"Quinoline, 6-ethoxy-1,2-dihydro-2,2,4-trimethyl-",410.95,1,CCOc1ccc2c(c1)C(C)=CC(C)(C)N2,le15
5619,"Propionitrile, 3-(triethoxysilyl)- (8CI)",378.45,1,CCO[Si](CCC#N)(OCC)OCC,le15
5620,"Pyrrolidine, 1-(1-(phenylmethyl)butyl)- (9CI)",396.45,1,CCCC(Cc1ccccc1)N1CCCC1,le15
5621,"Carbamothioic acid, bis(2-methylpropyl)-, S-ethyl ester",396.45,1,CCSC(=O)N(CC(C)C)CC(C)C,le15
5622,"Benzenamine, 2-chloro-4,6-dinitro-",454.55,1,Nc1c(Cl)cc([N+](=O)[O-])cc1[N+](=O)[O-],le15
5623,"Aniline, 4-chloro-2,6-dinitro- (8CI)",444.65,1,Nc1c([N+](=O)[O-])cc(Cl)cc1[N+](=O)[O-],le15
5624,trichloromethanesulfonyl chloride,336.85,1,O=S(=O)(Cl)C(Cl)(Cl)Cl,le15
5625,1-iodo-4-methylbenzene,359.45,1,Cc1ccc(I)cc1,le15
5626,1iodo3methylbenzene,355.0,1,Cc1cccc(I)c1,le15
5627,"Propanamide, N-(3,4-dichlorophenyl)-",450.65,1,CCC(=O)Nc1ccc(Cl)c(Cl)c1,le15
5628,"1,2,4,5-Benzenetetracarboxylic 1,2:4,5-dianhydride (8CI)",456.65,1,O=c1oc(=O)c2cc3c(=O)oc(=O)c3cc12,le15
5629,"Benzenamine, N,N-bis(2-chloroethyl)- (9CI)",410.85,1,ClCCN(CCCl)c1ccccc1,le15
5630,"Phosphoric acid, triallyl ester (8CI)",393.25,1,C=CCOP(=O)(OCC=C)OCC=C,le15
5631,Ethyl .alpha.-acetylcinnamate,385.05,1,CCOC(=O)C(=Cc1ccccc1)C(C)=O,le15
5632,"4,6(1H,5H)-Pyrimidinedione, 5-ethyldihydro-5-phenyl-",501.35,1,CCC1(c2ccccc2)C(=O)NCNC1=O,le15
5633,"1,3-Propanediol, 2-methyl-2-propyl-, dicarbamate",502.85,1,CCCC(C)(COC(N)=O)COC(N)=O,le15
5634,benzenesulfonylbenzene,499.95,1,O=S(=O)(c1ccccc1)c1ccccc1,le15
5635,"Phenol, 4,4'-thiobis-",492.85,1,Oc1ccc(Sc2ccc(O)cc2)cc1,le15
5636,"Phosphonodithioic acid, methyl-, O-methyl S-phenyl ester",403.35,1,COP(C)(=S)Sc1ccccc1,le15
5637,"Butanoic acid, 3-methyl-, 3-phenyl-2-propenyl ester",401.45,1,CC(C)CC(=O)OCC=Cc1ccccc1,le15
5638,trichloro(dichloromethyl)silane,353.05,1,ClC(Cl)[Si](Cl)(Cl)Cl,le15
5639,Diphenyl disulphide,450.95,1,c1ccc(SSc2ccccc2)cc1,le15
5640,"Butane, 1,1'-(oxybis(2,1-ethanediyloxy))bis-",390.35,1,CCCCOCCOCCOCCCC,le15
5641,"Benzhydrol, 4-chloro- (8CI)",439.95,1,OC(c1ccccc1)c1ccc(Cl)cc1,le15
5642,"Phenol, 4-chloro-2-(phenylmethyl)-",432.35,1,Oc1ccc(Cl)cc1Cc1ccccc1,le15
5643,"Methane, dibromonitro-",319.25,1,O=[N+]([O-])C(Br)Br,le15
5644,"1,3-Dichloro-2,4,5,6-tetrafluorobenzene",437.15,1,Fc1c(F)c(Cl)c(F)c(Cl)c1F,le15
5645,"Benzenamine, 4-iodo-",389.45,1,Nc1ccc(I)cc1,le15
5646,"Benzenamine, 2-iodo-",385.45,1,Nc1ccccc1I,le15
5647,"Urea, 1-(3,4-dichlorophenyl)-3-methyl- (6CI,7CI,8CI)",405.55,1,CNC(=O)Nc1ccc(Cl)c(Cl)c1,le15
5648,"Pyrimidine, 4,6-dimethyl-2-(5-nitro-2-furyl)-",388.85,1,Cc1cc(C)nc(-c2ccc([N+](=O)[O-])o2)n1,le15
5649,"beta-Alanine, N-(2,4-dihydroxy-3,3-dimethyl-1-oxobutyl)-, (R)- (9CI)",560.45,1,CC(C)(CO)[C@@H](O)C(=O)NCCC(=O)O,le15
5650,"1-Naphthalenamine, N-phenyl-",463.35,1,c1ccc(Nc2cccc3ccccc23)cc1,le15
5651,"2-Naphthalenamine, N-phenyl-",482.35,1,c1ccc(Nc2ccc3ccccc3c2)cc1,le15
5652,"Carbamic acid, cyclopropyl(phenylmethyl)-, ethyl ester",422.95,1,CCOC(=O)N(Cc1ccccc1)C1CC1,le15
5653,"Benzoic acid, 2-amino-, cyclohexyl ester",465.45,1,Nc1ccccc1C(=O)OC1CCCCC1,le15
5654,"2,2',2''-(Hexahydro-1,3,5-triazine-1,3,5-triyl)triethanol",493.25,1,OCCN1CN(CCO)CN(CCO)C1,le15
5655,2-bromobenzoyl chloride,380.15,1,O=C(Cl)c1ccccc1Br,le15
5656,4-bromobenzoyl chloride,376.15,1,O=C(Cl)c1ccc(Br)cc1,le15
5657,"butyl 2,2,2-trichloroacetate",346.05,1,CCCCOC(=O)C(Cl)(Cl)Cl,le15
5658,"Cyclotrisilazane, 2,2,4,4,6,6-hexamethyl-",332.15,1,C[Si]1(C)N[Si](C)(C)N[Si](C)(C)N1,le15
5659,trichloro(hexyl)silane,353.45,1,CCCCCC[Si](Cl)(Cl)Cl,le15
5660,"Benzenamine, 4-(4-chlorophenoxy)-",438.45,1,Nc1ccc(Oc2ccc(Cl)cc2)cc1,le15
5661,"Phenol, 4-iodo-",385.55,1,Oc1ccc(I)cc1,le15
5662,"Carbanilic acid, 3,4-dichloro-, methyl ester",379.55,1,COC(=O)Nc1ccc(Cl)c(Cl)c1,le15
5663,"Acetamide, 2-(2,4-dichlorophenoxy)-",470.05,1,NC(=O)COc1ccc(Cl)cc1Cl,le15
5664,8-Hydroxy-4-(hydroxyacetyl)-1H-2-benzopyran-1-one,472.05,1,O=C(CO)c1coc(=O)c2c(O)cccc12,le15
5665,"(1,1'-Biphenyl)-4,4'-diamine, 3,3'-difluoro- (9CI)",425.35,1,Nc1ccc(-c2ccc(N)c(F)c2)cc1F,le15
5666,"Pyrimidine, 2-((3,4,4-trifluoro-3-butenyl)thio)-",393.55,1,FC(F)=C(F)CCSc1ncccn1,le15
5667,"Tryptophan, 5-hydroxy-, L-",541.85,1,N[C@@H](Cc1c[nH]c2ccc(O)cc12)C(=O)O,le15
5668,"1,1,1,2,2-pentachloro-2-fluoroethane",313.95,1,FC(Cl)(Cl)C(Cl)(Cl)Cl,le15
5669,"Furan, 2,5-diphenyl-",437.45,1,c1ccc(-c2ccc(-c3ccccc3)o2)cc1,le15
5670,ethyl 3-oxo-5-phenylpentanoate,405.45,1,CCOC(=O)CC(=O)CCc1ccccc1,le15
5671,"Propanoic acid, 2,2-dimethyl-, 2-oxo-2-phenylethyl ester (9CI)",404.65,1,CC(C)(C)C(=O)OCC(=O)c1ccccc1,le15
5672,"Propane, 1,1,3,3-tetraethoxy- (9CI)",315.35,1,CCOC(CC(OCC)OCC)OCC,le15
5673,"4H-1,3-Thiazine-2-amine, N-(2,6-dimethylphenyl)-5,6-dihydro- (9CI)",429.05,1,Cc1cccc(C)c1NC1=NCCCS1,le15
5674,"Phenol, 2,6-bis(1,1-dimethylethyl)-4-methyl-",391.55,1,Cc1cc(C(C)(C)C)c(O)c(C(C)(C)C)c1,le15
5675,"2,4-ditert-butyl-6-methylphenol",396.15,1,Cc1cc(C(C)(C)C)cc(C(C)(C)C)c1O,le15
5676,"1,4-Benzenediamine, N,N'-bis(1-methylpropyl)-",465.75,1,CCC(C)Nc1ccc(NC(C)CC)cc1,le15
5677,"Benzimidazole, 4-chloro-2-(trifluoromethyl)-",409.05,1,FC(F)(F)c1nc2cccc(Cl)c2[nH]1,le15
5678,"Benzimidazole, 5-chloro-2-(trifluoromethyl)-",409.05,1,FC(F)(F)c1nc2ccc(Cl)cc2[nH]1,le15
5679,bromo(iodo)methane,306.95,1,BrCI,le15
5680,"Phosphoric acid, 2,2-dichloroethenyl dimethyl ester",287.85,1,COP(=O)(OC)OC=C(Cl)Cl,le15
5681,"Acetic acid, (2,4-dichlorophenoxy)-",435.95,1,O=C(O)COc1ccc(Cl)cc1Cl,le15
5682,"Benzoic acid, 3,6-dichloro-2-methoxy-",424.15,1,COc1c(Cl)ccc(Cl)c1C(=O)O,le15
5683,"Thiourea, (2,5-dichlorophenyl)- (9CI)",418.95,1,NC(=S)Nc1cc(Cl)ccc1Cl,le15
5684,"Decane, 1-bromo-",367.594,1,CCCCCCCCCCBr,le15
5685,"2,5-diphenyl-1,3-oxazole",435.45,1,c1ccc(-c2cnc(-c3ccccc3)o2)cc1,le15
5686,"Carbamic acid, methyl-, 2,3-dihydro-2,2-dimethyl-7-benzofuranyl ester",416.45,1,CNC(=O)Oc1cccc2c1OC(C)(C)C2,le15
5687,"2-Oxazolidinone, 5-((3,5-dimethylphenoxy)methyl)-",501.35,1,Cc1cc(C)cc(OCC2CNC(=O)O2)c1,le15
5688,"Butanamide, N-(4-ethoxyphenyl)-3-oxo-",479.95,1,CCOc1ccc(NC(=O)CC(C)=O)cc1,le15
5689,"Carbamic acid, dimethyl-, benzo(b)thien-4-yl ester",434.55,1,CN(C)C(=O)Oc1cccc2sccc12,le15
5690,"Benzamide, N-(1-methylethyl)-4-((2-methylhydrazino)methyl)- (9CI)",422.05,1,CNNCc1ccc(C(=O)NC(C)C)cc1,le15
5691,"Propylamine, 3-(triethoxysilyl)- (8CI)",377.55,1,CCO[Si](CCCN)(OCC)OCC,le15
5692,"o-Cresol, 4-bromo-6-chloro-",380.55,1,Cc1cc(Br)cc(Cl)c1O,le15
5693,"1,1,1-trichloro-2,2-diethoxyethane",275.95,1,CCOC(OCC)C(Cl)(Cl)Cl,le15
5694,"Benzenesulfonyl chloride, p-nitro- (8CI)",438.45,1,O=[N+]([O-])c1ccc(S(=O)(=O)Cl)cc1,le15
5695,"3(2H)-Pyridazinone, 5-amino-4-chloro-2-phenyl-",415.75,1,Nc1cnn(-c2ccccc2)c(=O)c1Cl,le15
5696,"Thiophene, 2,3,4,5-tetrachloro-",386.15,1,Clc1sc(Cl)c(Cl)c1Cl,le15
5697,1-fluoro-2-iodobenzene,344.15,1,Fc1ccccc1I,le15
5698,1-fluoro-4-iodobenzene,341.15,1,Fc1ccc(I)cc1,le15
5699,"3,3,4,4,5,5-hexafluorooxane-2,6-dione",276.45,1,O=C1OC(=O)C(F)(F)C(F)(F)C1(F)F,le15
5700,"1,3,5-Triazine, hexahydro-1,3,5-trinitro-",678.75,1,O=[N+]([O-])N1CN([N+](=O)[O-])CN([N+](=O)[O-])C1,le15
5701,"2-Furanacrylic acid, alpha-cyano-5-nitro-, methyl ester",451.75,1,COC(=O)C(C#N)=Cc1ccc([N+](=O)[O-])o1,le15
5702,"1H-Indene-1,3(2H)-dione, 2-phenyl-",481.15,1,O=C1c2ccccc2C(=O)C1c1ccccc1,le15
5703,"Anthraquinone, 2-methyl- (8CI)",482.15,1,Cc1ccc2c(c1)C(=O)c1ccccc1C2=O,le15
5704,"1,2-Benzenedicarboxylic acid, diethyl ester",428.95,1,CCOC(=O)c1ccccc1C(=O)OCC,le15
5705,"Oxirane, 2,2'-(1,3-phenylenebis(oxymethylene))bis-",386.15,1,c1cc(OCC2CO2)cc(OCC2CO2)c1,le15
5706,"4,5-dimethoxy-6-prop-2-enyl-1,3-benzodioxole",378.85,1,C=CCc1cc2c(c(OC)c1OC)OCO2,le15
5707,"4,7-dimethoxy-5-prop-2-enyl-1,3-benzodioxole",390.35,1,C=CCc1cc(OC)c2c(c1OC)OCO2,le15
5708,"diethyl benzene-1,3-dicarboxylate",430.85,1,CCOC(=O)c1cccc(C(=O)OCC)c1,le15
5709,"Hexanedioic acid, di-2-propynyl ester (9CI)",419.75,1,C#CCOC(=O)CCCCC(=O)OCC#C,le15
5710,Diethylphthalate,433.0,1,CCOC(=O)c1ccccc1C(=O)OCC,le15
5711,1-(p-Toluenesulphonyl)imidazole,474.35,1,Cc1ccc(S(=O)(=O)n2ccnc2)cc1,le15
5712,Bis(2-(2-methoxyethoxy)ethyl) ether,413.75,1,COCCOCCOCCOCCOC,le15
5713,"Urea, N,N-dimethyl-N'-(octahydro-4,7-methano-1H-inden-5-yl)-",466.35,1,CN(C)C(=O)NC1CC2CC1C1CCCC21,le15
5714,"1,2-Ethanediamine, N-(3-(trimethoxysilyl)propyl)-",381.25,1,CO[Si](CCCNCCN)(OC)OC,le15
5715,"2,6,10-Dodecatrien-1-ol, 3,7,11-trimethyl-",385.65,1,CC(C)=CCCC(C)=CCCC(C)=CCO,le15
5716,hexadec-1-yne,401.12699999999995,1,C#CCCCCCCCCCCCCCC,le15
5717,(3-cyclohexyl-2-methylpropyl)cyclohexane,399.85,1,CC(CC1CCCCC1)CC1CCCCC1,le15
5718,4-cyclohexylbutylcyclohexane,402.05,1,C1CCC(CCCCC2CCCCC2)CC1,le15
5719,1-cyclohexylbutylcyclohexane,399.25,1,CCCC(C1CCCCC1)C1CCCCC1,le15
5720,1-bromonaphthalen-2-ol,416.65,1,Oc1ccc2ccccc2c1Br,le15
5721,"Biphenyl, 4,4'-dichloro- (8CI)",418.35,1,Clc1ccc(-c2ccc(Cl)cc2)cc1,le15
5722,"1,1'-Biphenyl, 3,3'-dichloro-",423.65,1,Clc1cccc(-c2cccc(Cl)c2)c1,le15
5723,"Butyric acid, 4,4,4-trinitro- (8CI)",429.55,1,O=C(O)CCC([N+](=O)[O-])([N+](=O)[O-])[N+](=O)[O-],le15
5724,2-Bromooctanoic acid,397.15,1,CCCCCCC(Br)C(=O)O,le15
5725,"Hexanoic acid, 2-bromo-, ethyl ester",364.55,1,CCCCC(Br)C(=O)OCC,le15
5726,"9,10-Anthracenedione, 2-amino-",556.15,1,Nc1ccc2c(c1)C(=O)c1ccccc1C2=O,le15
5727,"Phenanthrene, 9-nitro-",480.65,1,O=[N+]([O-])c1cc2ccccc2c2ccccc12,le15
5728,"Anthracene, 2-nitro-",487.85,1,O=[N+]([O-])c1ccc2cc3ccccc3cc2c1,le15
5729,"9,10-Anthracenedione, 1-amino-",508.15,1,Nc1cccc2c1C(=O)c1ccccc1C2=O,le15
5730,"4H-3,1-Benzoxazin-4-one, 2-phenyl-",436.15,1,O=c1oc(-c2ccccc2)nc2ccccc12,le15
5731,"Acetamide, N-9H-fluoren-2-yl-",550.35,1,CC(=O)Nc1ccc2c(c1)Cc1ccccc1-2,le15
5732,"Benzamide, N,N-diethyl-4-hydroxy-3-methoxy-",469.75,1,CCN(CC)C(=O)c1ccc(O)c(OC)c1,le15
5733,"Arsine oxide, dichloro(2-chlorovinyl)-",384.55,1,O=[As](Cl)(Cl)C=CCl,le15
5734,"Benzothiazole, 2-(butylthio)-",432.75,1,CCCCSc1nc2ccccc2s1,le15
5735,"4-bromo-3-chloro-3,4,4-trifluorobut-1-ene",294.25,1,C=CC(F)(Cl)C(F)(F)Br,le15
5736,"Ethanone, 2-chloro-1-(2,4-dichlorophenyl)-",385.15,1,O=C(CCl)c1ccc(Cl)cc1Cl,le15
5737,"Carbamic acid, (3-chlorophenyl)-, 1-methyl-2-propynyl ester (9CI)",390.25,1,C#CC(C)OC(=O)Nc1cccc(Cl)c1,le15
5738,"Carbamodithioic acid, diethyl-, 2-chloro-2-propenyl ester (9CI)",386.75,1,C=C(Cl)CSC(=S)N(CC)CC,le15
5739,"1,2-dibromo-1,1-difluoroethane",282.65,1,FC(F)(Br)CBr,le15
5740,"2-Butenoic acid, 3-((dimethoxyphosphinyl)oxy)-, methyl ester, (E)-",388.25,1,COC(=O)/C=C(\C)OP(=O)(OC)OC,le15
5741,"Glycine, N-(4-nitrobenzoyl)-",548.15,1,O=C(O)CNC(=O)c1ccc([N+](=O)[O-])cc1,le15