,compound,flashpoint,pure substance,smiles,source
4197,"1,3-Propanediol, 2,2-bis(chloromethyl)-",429.45,1,OCC(CO)(CCl)CCl,le15
4198,"Ethane, 1,1'-(methylenebis(oxy))bis(2-chloro-",350.05,1,ClCCOCOCCCl,le15
4199,"Naphthalene, 1-nitro-",437.15,1,O=[N+]([O-])c1cccc2ccccc12,le15
4200,8-Quinolinecarboxylic acid,460.65,1,O=C(O)c1cccc2cccnc12,le15
4201,"2-Naphthalenol, 1-nitroso-",443.25,1,O=Nc1c(O)ccc2ccccc12,le15
4202,"1H-Pyrrole-2,5-dione, 1-phenyl-",409.95,1,O=C1C=CC(=O)N1c1ccccc1,le15
4203,"4-Amino-1,2-naphthoquinone",433.15,1,NC1=CC(=O)C(=O)c2ccccc21,le15
4204,"Naphthalene, 2-nitro-",431.85,1,O=[N+]([O-])c1ccc2ccccc2c1,le15
4205,8-Ethoxyquinoline,381.15,1,CCOc1cccc2cccnc12,le15
4206,"1H-Pyrazole-5-amine, 3-methyl-1-phenyl-",428.35,1,Cc1cc(N)n(-c2ccccc2)n1,le15
4207,"6-Quinoxalinamine, 2,3-dimethyl-",457.05,1,Cc1nc2ccc(N)cc2nc1C,le15
4208,"1,3,3-trimethyl-2-methylideneindole",367.15,1,C=C1N(C)c2ccccc2C1(C)C,le15
4209,"Quinoline, 1,2-dihydro-2,2,4-trimethyl-",388.15,1,CC1=CC(C)(C)Nc2ccccc21,le15
4210,"Carbamic acid, 2-ethylhexyl ester",373.85,1,CCCCC(CC)COC(N)=O,le15
4211,"Ethanol, 2-(dibutylamino)-",364.85,1,CCCCN(CCO)CCCC,le15
4212,"1,2-Ethanediamine, N-(2-(dimethylamino)ethyl)-N,N',N'-trimethyl-",326.45,1,CN(C)CCN(C)CCN(C)C,le15
4213,"Acetic acid, bromochloro-",356.85,1,O=C(O)C(Cl)Br,le15
4214,"Phenol, 4-chloro-3-nitro-",413.65,1,O=[N+]([O-])c1cc(O)ccc1Cl,le15
4215,"Phenol, 4-chloro-2-nitro-",373.55,1,O=[N+]([O-])c1cc(Cl)ccc1O,le15
4216,"Phenol, 2-chloro-4-nitro-",402.75,1,O=[N+]([O-])c1ccc(O)c(Cl)c1,le15
4217,"s-Triazine, 2-amino-4-chloro-6-(ethylamino)- (8CI)",284.15,1,CCNc1nc(N)nc(Cl)n1,le15
4218,"Acetamide, 2-chloro-N,N-di-2-propenyl-",372.95,1,C=CCN(CC=C)C(=O)CCl,le15
4219,"Methane, dibromo-",370.15,1,BrCBr,le15
4220,"3-Pyridinol, 2-bromo-",421.55,1,Oc1cccnc1Br,le15
4221,"2,2,2-trifluoro-1-phenylethanone",314.85,1,O=C(c1ccccc1)C(F)(F)F,le15
4222,"alpha,alpha,alpha-Trifluoro-3-tolualdehyde",341.45,1,O=Cc1cccc(C(F)(F)F)c1,le15
4223,"Ethanediamide, N,N'-dimethyl-N,N'-dinitroso- (9CI)",366.05,1,CN(N=O)C(=O)C(=O)N(C)N=O,le15
4224,"1,4-Naphthoquinone, 5-hydroxy- (8CI)",474.45,1,O=C1C=CC(=O)c2c(O)cccc21,le15
4225,"Quinoline, 8-nitro-",422.35,1,O=[N+]([O-])c1cccc2cccnc12,le15
4226,diethyl 2-oxopropanedioate,363.35,1,CCOC(=O)C(=O)C(=O)OCC,le15
4227,"Quinoline, 4-nitro-",422.35,1,O=[N+]([O-])c1ccnc2ccccc12,le15
4228,"Isocyanic acid, 4-methyl-m-phenylene ester (8CI)",383.65,1,Cc1ccc(N=C=O)cc1N=C=O,le15
4229,"2-Propynoic acid, 3-phenyl-, ethyl ester (9CI)",398.05,1,CCOC(=O)C#Cc1ccccc1,le15
4230,"3H-Pyrazol-3-one, 2,4-dihydro-5-methyl-2-phenyl-",428.35,1,CC1=NN(c2ccccc2)C(=O)C1,le15
4231,"Butanedioic acid, diethyl ester",372.65,1,CCOC(=O)CCC(=O)OCC,le15
4232,"Malonic acid, methyl-, diethyl ester (8CI)",349.85,1,CCOC(=O)C(C)C(=O)OCC,le15
4233,4-acetyloxybutyl acetate,378.35,1,CC(=O)OCCCCOC(C)=O,le15
4234,3-ethyl-3-methylpentanedioic acid,430.45,1,CCC(C)(CC(=O)O)CC(=O)O,le15
4235,"1,3-Dioxolane-2-acetic acid, 2-methyl-, ethyl ester",353.95,1,CCOC(=O)CC1(C)OCCO1,le15
4236,2-propanoyloxyethyl propanoate,371.45,1,CCC(=O)OCCOC(=O)CC,le15
4237,Octanedioic acid,459.65,1,O=C(O)CCCCCCC(=O)O,le15
4238,"Hexanedioic acid, 1,6-dimethyl ester",380.35,1,COC(=O)CCCCC(=O)OC,le15
4239,N-Ethyl-L-glutamine,485.25,1,CCN[C@@H](CCC(N)=O)C(=O)O,le15
4240,"Adipic acid, dihydrazide (8CI)",541.05,1,NNC(=O)CCCCC(=O)NN,le15
4241,"Phenol, p-(1-cyclohexen-1-yl)-",410.25,1,Oc1ccc(C2=CCCCC2)cc1,le15
4242,"Propionitrile, 3-(N-ethylanilino)- (6CI,7CI,8CI)",405.95,1,CCN(CCC#N)c1ccccc1,le15
4243,"1H-Indole-3-ethanamine, alpha-methyl- (9CI)",462.15,1,CC(N)Cc1c[nH]c2ccccc12,le15
4244,"Propaneperoxoic acid, 2,2-dimethyl-, 1,1-dimethylethyl ester",326.65,1,CC(C)(C)OOC(=O)C(C)(C)C,le15
4245,bis(2-methylpropyl) carbonate,344.65,1,CC(C)COC(=O)OCC(C)C,le15
4246,dibutyl carbonate,349.15,1,CCCCOC(=O)OCCCC,le15
4247,"Naphthalene, 1,2,3,4-tetrahydro-1,1,6-trimethyl-",370.95,1,Cc1ccc2c(c1)CCCC2(C)C,le15
4248,"Bicyclo(2.2.1)hept-5-ene, 2-(4-cyclohexenyl)-",352.95,1,C1=CCC(C2CC3C=CC2C3)CC1,le15
4249,"1,7-Octanediol, 3,7-dimethyl-",381.65,1,CC(CCO)CCCC(C)(C)O,le15
4250,"Decane-1,2-diol",386.15,1,CCCCCCCCC(O)CO,le15
4251,"Ethanol, 2-((2-ethylhexyl)oxy)-",337.15,1,CCCCC(CC)COCCO,le15
4252,2-methyl-1-[1-(2-methylpropoxy)ethoxy]propane,309.05,1,CC(C)COC(C)OCC(C)C,le15
4253,diethoxy-methyl-prop-2-enylsilane,315.65,1,C=CC[Si](C)(OCC)OCC,le15
4254,3-methyl-1-(3-methylbutylsulfanyl)butane,349.55,1,CC(C)CCSCCC(C)C,le15
4255,1-ethylsulfanyloctane,370.45,1,CCCCCCCCSCC,le15
4256,1decanethiol,371.0,1,CCCCCCCCCCS,le15
4257,"Benzene, 1-chloro-4-(methylsulfinyl)-",408.65,1,CS(=O)c1ccc(Cl)cc1,le15
4258,"Benzene, 1-bromo-4-fluoro-",326.15,1,Fc1ccc(Br)cc1,le15
4259,1-bromo-3-fluorobenzene,312.05,1,Fc1cccc(Br)c1,le15
4260,"Benzaldehyde, 2,6-dichloro-",370.55,1,O=Cc1c(Cl)cccc1Cl,le15
4261,"Benzoyl chloride, 4-chloro-",378.15,1,O=C(Cl)c1ccc(Cl)cc1,le15
4262,"Benzoyl chloride, m-chloro- (8CI)",383.15,1,O=C(Cl)c1cccc(Cl)c1,le15
4263,"Benzaldehyde, 2,4-dichloro-",373.35,1,O=Cc1ccc(Cl)cc1Cl,le15
4264,"Benzaldehyde, 2,3-dichloro-",372.35,1,O=Cc1cccc(Cl)c1Cl,le15
4265,"2,5-dichlorobenzaldehyde",369.75,1,O=Cc1cc(Cl)ccc1Cl,le15
4266,"3,5-dichlorobenzaldehyde",371.45,1,O=Cc1cc(Cl)cc(Cl)c1,le15
4267,"Benzaldehyde, 3,4-dichloro-",375.15,1,O=Cc1ccc(Cl)c(Cl)c1,le15
4268,"o-Xylene, alpha,alpha'-dichloro-",380.15,1,ClCc1ccccc1CCl,le15
4269,"m-Xylene, alpha,alpha'-dichloro-",385.15,1,ClCc1cccc(CCl)c1,le15
4270,"1,4-dichloro-2,5-dimethylbenzene",359.25,1,Cc1cc(Cl)c(C)cc1Cl,le15
4271,"2,3,4,5-Tetrafluorobenzonitrile",343.15,1,N#Cc1cc(F)c(F)c(F)c1F,le15
4272,"1-phenylpyrrolidine-2,5-dione",476.75,1,O=C1CCC(=O)N1c1ccccc1,le15
4273,Ethyl 4-cyanobenzoate,412.05,1,CCOC(=O)c1ccc(C#N)cc1,le15
4274,Indole-3-acetic acid (8CI),477.95,1,O=C(O)Cc1c[nH]c2ccccc12,le15
4275,"2-ethylisoindole-1,3-dione",394.95,1,CCN1C(=O)c2ccccc2C1=O,le15
4276,"2-Propenal, 3-(4-(dimethylamino)phenyl)-",404.35,1,CN(C)c1ccc(C=CC=O)cc1,le15
4277,N-cyclohexylaniline,408.65,1,c1ccc(NC2CCCCC2)cc1,le15
4278,1-benzylpiperidine,367.15,1,c1ccc(CN2CCCCC2)cc1,le15
4279,4-benzylpiperidine,398.55,1,c1ccc(CC2CCNCC2)cc1,le15
4280,2-benzylpiperidine,389.25,1,c1ccc(CC2CCCCN2)cc1,le15
4281,"2,3,3-trichloroprop-2-enoic acid",397.55,1,O=C(O)C(Cl)=C(Cl)Cl,le15
4282,"Butane, 1,2-epoxy-4,4,4-trichloro-",348.95,1,ClC(Cl)(Cl)CC1CO1,le15
4283,"Benzene, 2-chloro-1-fluoro-4-nitro-",343.15,1,O=[N+]([O-])c1ccc(F)c(Cl)c1,le15
4284,"2-bromo-1,1-dichloroethene",292.55,1,ClC(Cl)=CBr,le15
4285,L-Ascorbic acid,453.55,1,O=C1O[C@H]([C@@H](O)CO)C(O)=C1O,le15
4286,"2,3-Didehydro-D-erythro-hexono-1,4-lactone",511.35,1,O=C1O[C@H]([C@H](O)CO)C(=O)C1=O,le15
4287,"Fumaric acid, dihydroxy-, dimethyl ester",383.95,1,COC(=O)/C(O)=C(\O)C(=O)OC,le15
4288,"Toluene-3,5-diamine, alpha,alpha,alpha-trifluoro- (8CI)",395.65,1,Nc1cc(N)cc(C(F)(F)F)c1,le15
4289,"2H-1-Benzopyran-2-one, 7-methoxy-",411.75,1,COc1ccc2ccc(=O)oc2c1,le15
4290,"4(5H)-Oxazolone, 2-amino-5-phenyl-",416.55,1,NC1=NC(=O)C(c2ccccc2)O1,le15
4291,"Quinoline, 4-(hydroxyamino)-, 1-oxide",433.95,1,[O-][n+]1ccc(NO)c2ccccc21,le15
4292,(2-acetyloxy-3-hydroxypropyl) acetate,373.35,1,CC(=O)OCC(CO)OC(C)=O,le15
4293,"Butane, 2,3-dimethyl-2,3-dinitro-",353.35,1,CC(C)([N+](=O)[O-])C(C)(C)[N+](=O)[O-],le15
4294,"2-Propenoic acid, 3-phenyl-, ethyl ester",421.75,1,CCOC(=O)C=Cc1ccccc1,le15
4295,"2-Propen-1-ol, 3-phenyl-, acetate",403.65,1,CC(=O)OCC=Cc1ccccc1,le15
4296,"3-Buten-2-one, 4-(p-methoxyphenyl)- (8CI)",421.45,1,COc1ccc(C=CC(C)=O)cc1,le15
4297,"Benzeneacetic acid, 2-propenyl ester",386.15,1,C=CCOC(=O)Cc1ccccc1,le15
4298,"Methanone, cyclopropyl(4-methoxyphenyl)-",413.15,1,COc1ccc(C(=O)C2CC2)cc1,le15
4299,"3-Butyne-1,2-diol, 2-methyl-1-phenyl-",436.25,1,C#CC(C)(O)C(O)c1ccccc1,le15
4300,"2-Propenoic acid, 2-methyl-, phenylmethyl ester",380.35,1,C=C(C)C(=O)OCc1ccccc1,le15
4301,"Propane, 1,2-epoxy-3-(p-vinylphenoxy)- (7CI,8CI)",399.65,1,C=Cc1ccc(OCC2CO2)cc1,le15
4302,"2,4,6,8-Tetramethyl-1,3,5,7-tetraoxacyclooctane",323.15,1,CC1OC(C)OC(C)OC(C)O1,le15
4303,"Ethanol, 2-(2-ethoxyethoxy)-, acetate",373.15,1,CCOCCOCCOC(C)=O,le15
4304,"ethyl 2,2-diethoxyacetate",346.15,1,CCOC(=O)C(OCC)OCC,le15
4305,"Phosphine oxide, tripropyl-",404.45,1,CCCP(=O)(CCC)CCC,le15
4306,[acetyloxy(dimethyl)silyl] acetate,317.85,1,CC(=O)O[Si](C)(C)OC(C)=O,le15
4307,"1-Hexanone, 1-phenyl-",378.65,1,CCCCCC(=O)c1ccccc1,le15
4308,"Phenol, p-cyclohexyl- (8CI)",426.15,1,Oc1ccc(C2CCCCC2)cc1,le15
4309,"Cyclohexanol, 2-phenyl-",386.45,1,OC1CCCCC1c1ccccc1,le15
4310,4-methyl-1-phenylpentan-1-one,372.55,1,CC(C)CCC(=O)c1ccccc1,le15
4311,trans-2-Phenylcyclohexanol,386.45,1,O[C@@H]1CCCC[C@H]1c1ccccc1,le15
4312,cyclohexyloxybenzene,372.05,1,c1ccc(OC2CCCCC2)cc1,le15
4313,"1,1,1-triethoxypropane",333.15,1,CCOC(CC)(OCC)OCC,le15
4314,"2-Propanol, 1-(2-butoxyethoxy)-",377.45,1,CCCCOCCOCC(C)O,le15
4315,"2-Propanol, 1-(1-methyl-2-propoxyethoxy)-",373.85,1,CCCOCC(C)OCC(C)O,le15
4316,"Piperazine, 1-(phenylmethyl)-",388.75,1,c1ccc(CN2CCNCC2)cc1,le15
4317,"1-Propanamine, 3,3'-(1,2-ethanediylbis(oxy))bis-",394.65,1,NCCCOCCOCCCN,le15
4318,"2,4-dimethylpentan-3-ylbenzene",353.65,1,CC(C)C(c1ccccc1)C(C)C,le15
4319,Heptylbenzene,368.0,1,CCCCCCCc1ccccc1,le15
4320,chloro(iodo)methane,288.75,1,ClCI,le15
4321,Benzenesulphonyl chloride,379.05,1,O=S(=O)(Cl)c1ccccc1,le15
4322,"Benzenesulfinic acid, 4-chloro-",447.05,1,O=S(O)c1ccc(Cl)cc1,le15
4323,"Naphthalene, 1-(chloromethyl)-",403.05,1,ClCc1cccc2ccccc12,le15
4324,nonanoyl chloride,368.15,1,CCCCCCCCC(=O)Cl,le15
4325,1-chlorodecane,356.45,1,CCCCCCCCCCCl,le15
4326,"2,4-dichloro-5-methylphenol",382.05,1,Cc1cc(O)c(Cl)cc1Cl,le15
4327,"o-Cresol, 4,6-dichloro- (8CI)",381.05,1,Cc1cc(Cl)cc(Cl)c1O,le15
4328,"Benzenemethanol, 3,4-dichloro-",388.95,1,OCc1ccc(Cl)c(Cl)c1,le15
4329,"Phenol, 2,4-dichloro-3-methyl-",381.35,1,Cc1c(Cl)ccc(O)c1Cl,le15
4330,"2,6-dichloro-4-methylphenol",376.05,1,Cc1cc(Cl)c(O)c(Cl)c1,le15
4331,"2,6-dichloro-3-methylphenol",375.55,1,Cc1ccc(Cl)c(O)c1Cl,le15
4332,2-bromo-5-methylthiophene,333.75,1,Cc1ccc(Br)s1,le15
4333,2-bromo-3-methylthiophene,341.45,1,Cc1ccsc1Br,le15
4334,"1,3,5-trifluoro-2-nitrobenzene",354.45,1,O=[N+]([O-])c1c(F)cc(F)cc1F,le15
4335,"1,2,3-Trifluoro-4-nitrobenzene",366.15,1,O=[N+]([O-])c1ccc(F)c(F)c1F,le15
4336,"1,2,4-trifluoro-5-nitrobenzene",358.25,1,O=[N+]([O-])c1cc(F)c(F)cc1F,le15
4337,1-bromo-3-methylcyclohexane,338.65,1,CC1CCCC(Br)C1,le15
4338,2-Nitrocinnamaldehyde,451.25,1,O=CC=Cc1ccccc1[N+](=O)[O-],le15
4339,"2-Propenal, 3-(4-nitrophenyl)-",424.75,1,O=CC=Cc1ccc([N+](=O)[O-])cc1,le15
4340,"2-Furanacrylic acid, alpha-cyano-, methyl ester",401.25,1,COC(=O)C(C#N)=Cc1ccco1,le15
4341,1-N-Methyl-5-nitroindazole,443.85,1,Cn1ncc2cc([N+](=O)[O-])ccc21,le15
4342,"2H-Indazole, 2-methyl-6-nitro-",447.35,1,Cn1cc2ccc([N+](=O)[O-])cc2n1,le15
4343,"Benzimidazole, 1-methyl-6-nitro- (8CI)",443.85,1,Cn1cnc2ccc([N+](=O)[O-])cc21,le15
4344,"Butanamide, 3-oxo-N-phenyl-",435.15,1,CC(=O)CC(=O)Nc1ccccc1,le15
4345,"Anthranilic acid, allyl ester (8CI)",429.25,1,C=CCOC(=O)c1ccccc1N,le15
4346,"1H-Benzimidazol-2-amine, 5-methoxy-1-methyl-",452.35,1,COc1ccc2c(c1)nc(N)n2C,le15
4347,"Imidodicarbonimidic diamide, N-phenyl-",461.85,1,N=C(N)NC(=N)Nc1ccccc1,le15
4348,"Benzamide, N,N-diethyl-",398.65,1,CCN(CC)C(=O)c1ccccc1,le15
4349,N-phenyl-N-propylacetamide,382.55,1,CCCN(C(C)=O)c1ccccc1,le15
4350,"Benzaldehyde, p-(diethylamino)- (8CI)",383.35,1,CCN(CC)c1ccc(C=O)cc1,le15
4351,"Morpholine, 3-methyl-2-phenyl-",385.85,1,CC1NCCOC1c1ccccc1,le15
4352,"Benzamide, N-butyl-",474.75,1,CCCCNC(=O)c1ccccc1,le15
4353,3-Phenylpropyl isothiocyanate,408.25,1,S=C=NCCCc1ccccc1,le15
4354,"1,3,5-Triazine-2,4,6(1H,3H,5H)-trithione",373.65,1,S=c1[nH]c(=S)[nH]c(=S)[nH]1,le15
4355,"N,N-dipropylaniline",375.35,1,CCCN(CCC)c1ccccc1,le15
4356,"Benzenemethanamine, N-butyl-alpha-methyl- (9CI)",364.35,1,CCCCNC(C)c1ccccc1,le15
4357,"Benzenamine, 2,6-bis(1-methylethyl)-",481.35,1,CC(C)c1cccc(C(C)C)c1N,le15
4358,4-hexylaniline,394.51199999999994,1,CCCCCCc1ccc(N)cc1,le15
4359,"Carbamodithioic acid, diethyl-, ethyl ester",365.25,1,CCSC(=S)N(CC)CC,le15
4360,"methyl 2,2,2-trichloroacetate",345.15,1,COC(=O)C(Cl)(Cl)Cl,le15
4361,"Propanoic acid, 2,2,3-trichloro-",361.95,1,O=C(O)C(Cl)(Cl)CCl,le15
4362,"2-Propanol, 1,1,1-trichloro-2-methyl-",334.95,1,CC(C)(O)C(Cl)(Cl)Cl,le15
4363,4-chloro-2-methylquinoline,386.15,1,Cc1cc(Cl)c2ccccc2n1,le15
4364,"Succinimide, N-bromo- (8CI)",360.85,1,O=C1CCC(=O)N1Br,le15
4365,"Phenol, 2-amino-4,6-dichloro-",400.25,1,Nc1cc(Cl)cc(Cl)c1O,le15
4366,"methyl 2,2,3,3,3-pentafluoropropanoate",278.75,1,COC(=O)C(F)(F)C(F)(F)F,le15
4367,"2,3,5,6-Tetrafluorobenzaldehyde",347.05,1,O=Cc1c(F)c(F)cc(F)c1F,le15
4368,"1,2,4,5-tetrafluoro-3,6-dimethylbenzene",320.35,1,Cc1c(F)c(F)c(C)c(F)c1F,le15
4369,ethyl trifluoromethanesulfonate,308.75,1,CCOS(=O)(=O)C(F)(F)F,le15
4370,"1H-Indene-1,3(2H)-dione, 2,2-dihydroxy-",512.85,1,O=C1c2ccccc2C(=O)C1(O)O,le15
4371,ethyl 2-oxo-2-phenylacetate,386.15,1,CCOC(=O)C(=O)c1ccccc1,le15
4372,"1,3-Benzodioxole-5-methanol, alpha-ethenyl-",408.35,1,C=CC(O)c1ccc2c(c1)OCO2,le15
4373,"1,3-Benzodioxole, 5-(oxiranylmethyl)- (9CI)",367.15,1,c1cc2c(cc1CC1CO1)OCO2,le15
4374,"Propanoic acid, 3,3'-thiobis-",401.15,1,O=C(O)CCSCCC(=O)O,le15
4375,2-phenylethynylbenzene,399.19300000000004,1,C(#Cc1ccccc1)c1ccccc1,le15
4376,"Benzene, 1,2-dimethoxy-4-(2-propenyl)-",390.15,1,C=CCc1ccc(OC)c(OC)c1,le15
4377,"Phenol, 2-ethoxy-5-(1-propenyl)-",438.35,1,CC=Cc1ccc(OCC)c(O)c1,le15
4378,"Propanoic acid, 2-methyl-, phenylmethyl ester",368.65,1,CC(C)C(=O)OCc1ccccc1,le15
4379,"Propanoic acid, 2-methyl-, 4-methylphenyl ester",366.95,1,Cc1ccc(OC(=O)C(C)C)cc1,le15
4380,"2-Butanone, 4-(p-methoxyphenyl)- (6CI,7CI,8CI)",385.15,1,COc1ccc(CCC(C)=O)cc1,le15
4381,"Benzenemethanol, alpha-methyl-, propanoate",379.15,1,CCC(=O)OC(C)c1ccccc1,le15
4382,"Benzoic acid, isobutyl ester (6CI,7CI,8CI)",374.55,1,CC(C)COC(=O)c1ccccc1,le15
4383,"Propanoic acid, 2-phenylethyl ester",367.55,1,CCC(=O)OCCc1ccccc1,le15
4384,"Benzoic acid, butyl ester",380.15,1,CCCCOC(=O)c1ccccc1,le15
4385,"4-methyl-4-phenyl-1,3-dioxane",386.95,1,CC1(c2ccccc2)CCOCO1,le15
4386,ethyl 3-phenylpropanoate,381.15,1,CCOC(=O)CCc1ccccc1,le15
4387,"Acetic acid, alpha-methyl-phenethyl ester",376.15,1,CC(=O)OC(C)Cc1ccccc1,le15
4388,methyl 2-phenylbutanoate,366.75,1,CCC(C(=O)OC)c1ccccc1,le15
4389,"Benzene, (3,3-dimethoxy-1-propenyl)-",372.55,1,COC(C=Cc1ccccc1)OC,le15
4390,"Benzaldehyde, 4-butoxy-",396.95,1,CCCCOc1ccc(C=O)cc1,le15
4391,"2-Propenoic acid, bicyclo(2.2.1)hept-5-en-2-ylmethyl ester",395.55,1,C=CC(=O)OCC1CC2C=CC1C2,le15
4392,"Benzoic acid, 4-(1,1-dimethylethyl)-",408.05,1,CC(C)(C)c1ccc(C(=O)O)cc1,le15
4393,"Butanoic acid, phenylmethyl ester",421.722,1,CCCC(=O)OCc1ccccc1,le15
4394,"Benzeneacetic acid, 1-methylethyl ester",370.65,1,CC(C)OC(=O)Cc1ccccc1,le15
4395,"N,N-diethylpyridine-3-carboxamide",414.25,1,CCN(CC)C(=O)c1cccnc1,le15
4396,"1,2-Bis(2-methoxyethoxy)ethane",386.15,1,COCCOCCOCCOC,le15
4397,"Ethanol, 2-(2-(2-ethoxyethoxy)ethoxy)-",405.15,1,CCOCCOCCOCCO,le15
4398,"Benzenamine, N,N-diethyl-4-nitroso-",402.55,1,CCN(CC)c1ccc(N=O)cc1,le15
4399,"Phenol, 5-methyl-2-pentyl- (9CI)",398.45,1,CCCCCc1ccc(C)cc1O,le15
4400,"3,4-Xylenol, 6-tert-butyl-",388.85,1,Cc1cc(O)c(C(C)(C)C)cc1C,le15
4401,2-(1-Cyclohexen-1-yl)cyclohexan-1-one,389.25,1,O=C1CCCCC1C1=CCCCC1,le15
4402,"Phenol, 2-(1,1-dimethylethyl)-4,6-dimethyl-",384.85,1,Cc1cc(C)c(O)c(C(C)(C)C)c1,le15
4403,"Phenol, 2,6-bis(1-methylethyl)-",380.65,1,CC(C)c1cccc(C(C)C)c1O,le15
4404,Benzenehexanol,394.95,1,OCCCCCCc1ccccc1,le15
4405,"Phenol, 2-hexyl- (9CI)",413.05,1,CCCCCCc1ccccc1O,le15
4406,"Benzenemethanol, alpha,alpha-dimethyl-4-(1-methylethyl)- (9CI)",378.65,1,CC(C)c1ccc(C(C)(C)O)cc1,le15
4407,"4-tert-butyl-2,5-dimethylphenol",390.95,1,Cc1cc(C(C)(C)C)c(C)cc1O,le15
4408,3-methylbutoxymethylbenzene,366.85,1,CC(C)CCOCc1ccccc1,le15
4409,"13-Oxabicyclo(10.1.0)trideca-4,8-diene",386.75,1,C1=CCCC2OC2CCC=CCC1,le15
4410,Butyl sulfone (8CI),412.75,1,CCCCS(=O)(=O)CCCC,le15
4411,"1,3,6-Thiadiazepine-2,7-dithione, tetrahydro-",395.05,1,S=C1NCCNC(=S)S1,le15
4412,2-methyl-1-(2-methylpropylsulfonyl)propane,383.35,1,CC(C)CS(=O)(=O)CC(C)C,le15
4413,"Disulfide, bis(1,1-dimethylethyl)",335.35,1,CC(C)(C)SSC(C)(C)C,le15
4414,1-(butyldisulfanyl)butane,366.45,1,CCCCSSCCCC,le15
4415,"Octane-1,8-dithiol",374.256,1,SCCCCCCCCS,le15
4416,Ditertbutyldisulfide,340.0,1,CC(C)(C)SSC(C)(C)C,le15
4417,dimethyl (E)-2-chlorobut-2-enedioate,364.65,1,COC(=O)/C=C(/Cl)C(=O)OC,le15
4418,"Phosphonous dichloride, phenyl-",362.45,1,ClP(Cl)c1ccccc1,le15
4419,"1,2-Benzenediol, 4,5-dichloro-",409.75,1,Oc1cc(Cl)c(Cl)cc1O,le15
4420,"1,2-Benzenediol, 3,4-dichloro-",392.45,1,Oc1ccc(Cl)c(Cl)c1O,le15
4421,"Hydroquinone, 2,5-dichloro- (8CI)",392.65,1,Oc1cc(Cl)c(O)cc1Cl,le15
4422,"Phosphorodichloridothioic acid, O-ethyl ester",336.15,1,CCOP(=S)(Cl)Cl,le15
4423,"2-Propenoic acid, 2-bromoethyl ester (9CI)",340.75,1,C=CC(=O)OCCBr,le15
4424,"2-Butanone, 1-bromo-3,3-dimethyl-",348.15,1,CC(C)(C)C(=O)CBr,le15
4425,6-bromohexan-2-one,351.35,1,CC(=O)CCCCBr,le15
4426,"2H-Pyran, 2-(bromomethyl)tetrahydro-",338.15,1,BrCC1CCCCO1,le15
4427,"Heptane, 1-bromo-",333.75,1,CCCCCCCBr,le15
4428,"alpha,alpha,alpha,4-Tetrafluoro-o-toluidine",345.35,1,Nc1ccc(F)cc1C(F)(F)F,le15
4429,"alpha,alpha,alpha,4-Tetrafluoro-m-toluidine",364.15,1,Nc1ccc(F)c(C(F)(F)F)c1,le15
4430,"Benzamide, N-acetyl-2-hydroxy- (9CI)",454.05,1,CC(=O)NC(=O)c1ccccc1O,le15
4431,"Benzoic acid, p-acetamido- (8CI)",492.85,1,CC(=O)Nc1ccc(C(=O)O)cc1,le15
4432,"Hydrazine, 1-acetyl-2-isonicotinoyl-",504.25,1,CC(=O)NNC(=O)c1ccncc1,le15
4433,phenanthridine,429.05,1,c1ccc2c(c1)cnc1ccccc12,le15
4434,Benzo(h)quinoline,429.05,1,c1ccc2c(c1)ccc1cccnc12,le15
4435,"Carbamic acid, phenyl-, 1-methylethyl ester",284.15,1,CC(C)OC(=O)Nc1ccccc1,le15
4436,"2-Pyridinecarboxylic acid, 5-butyl-",426.05,1,CCCCc1ccc(C(=O)O)nc1,le15
4437,"Phosphoric triamide, hexamethyl-",367.85,1,CN(C)P(=O)(N(C)C)N(C)C,le15
4438,"Carbamic acid, alpha-methylphenethyl ester",445.55,1,CC(Cc1ccccc1)OC(N)=O,le15
4439,ethyl 2-anilinoacetate,392.75,1,CCOC(=O)CNc1ccccc1,le15
4440,"Carbamic acid, methyl-, 3,4-xylyl ester",389.35,1,CNC(=O)Oc1ccc(C)c(C)c1,le15
4441,ethyl N-benzylcarbamate,411.05,1,CCOC(=O)NCc1ccccc1,le15
4442,"Phenol, 3,5-dimethyl-, methylcarbamate (9CI)",387.35,1,CNC(=O)Oc1cc(C)cc(C)c1,le15
4443,"Ether, butyl p-nitrosophenyl",396.15,1,CCCCOc1ccc(N=O)cc1,le15
4444,1-tert-butyl-3-nitrobenzene,360.95,1,CC(C)(C)c1cccc([N+](=O)[O-])c1,le15
4445,"Ethanol, 2-(ethyl(3-methylphenyl)amino)-",397.15,1,CCN(CCO)c1cccc(C)c1,le15
4446,"1-Propene, 1,1,2,3-tetrachloro-",335.45,1,ClCC(Cl)=C(Cl)Cl,le15
4447,"1,2,4,5-tetrafluoro-3-methoxybenzene",314.85,1,COc1c(F)c(F)cc(F)c1F,le15
4448,"Benzoic acid, 2-(acetyloxy)-",523.15,1,CC(=O)Oc1ccccc1C(=O)O,le15
4449,"2-Propenoic acid, 3-(3,4-dihydroxyphenyl)- (9CI)",493.15,1,O=C(O)C=Cc1ccc(O)c(O)c1,le15
4450,4-methoxycarbonylbenzoic acid,409.15,1,COC(=O)c1ccc(C(=O)O)cc1,le15
4451,D-Glucose,559.85,1,O=C[C@H](O)[C@@H](O)[C@H](O)[C@H](O)CO,le15
4452,"Acetanilide, 4'-nitro- (8CI)",474.25,1,CC(=O)Nc1ccc([N+](=O)[O-])cc1,le15
4453,[fluoro(methyl)phosphoryl]oxycyclohexane,370.45,1,CP(=O)(F)OC1CCCCC1,le15
4454,"cyclohexane-1,2,3,4,5,6-hexol",416.537,1,OC1C(O)C(O)C(O)C(O)C1O,le15
4455,"1H-Purine-2,6-dione, 3,7-dihydro-1,3-dimethyl-",501.57599999999996,1,Cn1c(=O)c2[nH]cnc2n(C)c1=O,le15
4456,9H-Fluoren-9-one,417.292,1,O=C1c2ccccc2-c2ccccc21,le15
4457,1H-Phenalen-1-one (9CI),431.05,1,O=C1C=Cc2cccc3cccc1c23,le15
4458,"Phosphonic acid, methyl-, bis(1-methylethyl) ester",370.85,1,CC(C)OP(C)(=O)OC(C)C,le15
4459,"1,10-Phenanthroline",437.906,1,c1cnc2c(c1)ccc1cccnc12,le15
4460,"Benzoic acid, 4-hydroxy-, propyl ester",397.75,1,CCCOC(=O)c1ccc(O)cc1,le15
4461,"Benzoic acid, 4-methoxy-, ethyl ester",379.25,1,CCOC(=O)c1ccc(OC)cc1,le15
4462,(4-methoxyphenyl)methyl acetate,408.15,1,COc1ccc(COC(C)=O)cc1,le15
4463,"1,7-Phenanthroline",437.95,1,c1cnc2c(c1)ccc1ncccc12,le15
4464,propan-2-yl 2-hydroxybenzoate,369.65,1,CC(C)OC(=O)c1ccccc1O,le15
4465,propyl 2-hydroxybenzoate,373.65,1,CCCOC(=O)c1ccccc1O,le15