,compound,flashpoint,pure substance,smiles,source
8016,1-tert-butyl-4-ethylbenzene,349.04999999999984,1.0,CCc1ccc(C(C)(C)C)cc1,le15
8017,"1-tert-butyl-3,5-dimethylbenzene",344.95,1.0,Cc1cc(C)cc(C(C)(C)C)c1,le15
8018,"1,4-di(propan-2-yl)benzene",349.15,1.0,CC(C)c1ccc(C(C)C)cc1,le15
8019,"(1Z,5E,9E)-cyclododeca-1,5,9-triene",360.95,1.0,C1=C\CC/C=C/CC/C=C/CC/1,le15
8020,hexan-3-ylbenzene,347.35,1.0,CCCC(CC)c1ccccc1,le15
8021,"1,2,4-trimethyl-5-propan-2-ylbenzene",355.54999999999984,1.0,Cc1cc(C)c(C(C)C)cc1C,le15
8022,"2H-1,3,5-Thiadiazine-2-thione, tetrahydro-3,5-dimethyl-",361.35,1.0,CN1CSC(=S)N(C)C1,le15
8023,"Butane, 1,1'-sulfinylbis-",394.55,1.0,CCCCS(=O)CCCC,le15
8024,"2,2,2-trichloroacetamide",361.65,1.0,NC(=O)C(Cl)(Cl)Cl,le15
8025,"Disiloxane, 1,1,1,3,3,3-hexamethyl-",280.85,1.0,C[Si](C)(C)O[Si](C)(C)C,le15
8026,"Naphthalene, 1-chloro-",394.25,1.0,Clc1cccc2ccccc12,le15
8027,"Naphthalene, 2-chloro-",398.15,1.0,Clc1ccc2ccccc2c1,le15
8028,1chlorononane,347.0,1.0,CCCCCCCCCCl,le15
8029,"Phosphorodichloridic acid, ethyl ester",301.0499999999999,1.0,CCOP(=O)(Cl)Cl,le15
8030,"Phenol, 2,6-dichloro-",368.05,1.0,Oc1c(Cl)cccc1Cl,le15
8031,"Phenol, 3,4-dichloro-",382.25,1.0,Oc1ccc(Cl)c(Cl)c1,le15
8032,"Phenol, 2,3-dichloro-",374.75,1.0,Oc1cccc(Cl)c1Cl,le15
8033,"Phenol, 2,5-dichloro-",373.15,1.0,Oc1cc(Cl)ccc1Cl,le15
8034,"Phenol, 3,5-dichloro-",380.05,1.0,Oc1cc(Cl)cc(Cl)c1,le15
8035,"2,4-dichloro-5-methylpyrimidine",391.65,1.0,Cc1cnc(Cl)nc1Cl,le15
8036,"2,4-dichloro-6-methylpyrimidine",380.15,1.0,Cc1cc(Cl)nc(Cl)n1,le15
8037,"Ethanesulfonyl chloride, 2-chloro-",349.35,1.0,O=S(=O)(Cl)CCCl,le15
8038,"Thiophene, 3-bromo-",329.85,1.0,Brc1ccsc1,le15
8039,2-bromothiophene,320.202,1.0,Brc1cccs1,le15
8040,"Cyclohexane, bromo-",335.95,1.0,BrC1CCCCC1,le15
8041,"Benzimidazole, 5-nitro- (8CI)",514.65,1.0,O=[N+]([O-])c1ccc2nc[nH]c2c1,le15
8042,"1H-Indazole, 7-nitro-",458.75,1.0,O=[N+]([O-])c1cccc2cn[nH]c12,le15
8043,"1H-Indazole, 5-nitro-",458.75,1.0,O=[N+]([O-])c1ccc2[nH]ncc2c1,le15
8044,"1H-Benzimidazole, 2-nitro- (9CI)",478.95,1.0,O=[N+]([O-])c1nc2ccccc2[nH]1,le15
8045,"1H-Indazole, 6-nitro-",458.75,1.0,O=[N+]([O-])c1ccc2cn[nH]c2c1,le15
8046,"2,6-dimethoxybenzonitrile",401.95,1.0,COc1cccc(OC)c1C#N,le15
8047,"1,2-Propanedione, 1-phenyl-, 2-oxime",403.85,1.0,CC(=NO)C(=O)c1ccccc1,le15
8048,"Acetanilide, 4'-formyl- (8CI)",454.95,1.0,CC(=O)Nc1ccc(C=O)cc1,le15
8049,"2-Propenoic acid, 3-(4-aminophenyl)-",455.75,1.0,Nc1ccc(C=CC(=O)O)cc1,le15
8050,Benzoyl isothiocyanate,379.15,1.0,O=C(N=C=S)c1ccccc1,le15
8051,"Adenine, N,N-dimethyl- (8CI)",485.45,1.0,CN(C)c1ncnc2nc[nH]c12,le15
8052,"Glycine, N-(2-mercapto-1-oxopropyl)- (9CI)",479.95,1.0,CC(S)C(=O)NCC(=O)O,le15
8053,"6-methoxy-1,2,3,4-tetrahydroquinoline",389.65,1.0,COc1ccc2c(c1)CCCN2,le15
8054,"Propanamide, 2-methyl-N-phenyl- (9CI)",458.95,1.0,CC(C)C(=O)Nc1ccccc1,le15
8055,"1-Butanone, 1-(4-aminophenyl)-",419.25,1.0,CCCC(=O)c1ccc(N)cc1,le15
8056,"Benzothiazole, 2,5-dimethyl-",383.15,1.0,Cc1ccc2sc(C)nc2c1,le15
8057,"Isothiocyanic acid, phenethyl ester",373.15,1.0,S=C=NCCc1ccccc1,le15
8058,Cyclohexanesulfonamide,408.25,1.0,NS(=O)(=O)C1CCCCC1,le15
8059,"N,N-diethyl-3-methylaniline",374.15,1.0,CCN(CC)c1cccc(C)c1,le15
8060,"N,N-diethyl-2-methylaniline",364.35,1.0,CCN(CC)c1ccccc1C,le15
8061,"N,N-diethyl-4-methylaniline",374.25,1.0,CCN(CC)c1ccc(C)cc1,le15
8062,"N,N,2,4,6-pentamethylaniline",352.04999999999984,1.0,Cc1cc(C)c(N(C)C)c(C)c1,le15
8063,"Acetic acid, trichloro-",339.494,1.0,O=C(O)C(Cl)(Cl)Cl,le15
8064,"2-Propanol, 1,1,1-trichloro-",355.35,1.0,CC(O)C(Cl)(Cl)Cl,le15
8065,dichloro-(chloromethyl)-methylsilane,308.15,1.0,C[Si](Cl)(Cl)CCl,le15
8066,"Quinoline, 8-chloro-",418.35,1.0,Clc1cccc2cccnc12,le15
8067,"Quinoline, 6-chloro-",386.15,1.0,Clc1ccc2ncccc2c1,le15
8068,4-Chloroquinoline,383.15,1.0,Clc1ccnc2ccccc12,le15
8069,3-Chloroquinoline,406.35,1.0,Clc1cnc2ccccc2c1,le15
8070,"Quinoline, 2-chloro-",414.35,1.0,Clc1ccc2ccccc2n1,le15
8071,"Butanamide, 2-chloro-N,N-dimethyl-3-oxo-",362.15,1.0,CC(=O)C(Cl)C(=O)N(C)C,le15
8072,"Methane, bromodichloro-",274.45,1.0,ClC(Cl)Br,le15
8073,"Pyrimidine, 2-amino-4,6-dichloro- (8CI)",437.75,1.0,Nc1nc(Cl)cc(Cl)n1,le15
8074,"2-bromo-1,3-thiazole",336.15,1.0,Brc1nccs1,le15
8075,"2,2,3,3,3-pentafluoropropanoic acid",283.45,1.0,O=C(O)C(F)(F)C(F)(F)F,le15
8076,"3,3,4,4,4-pentafluorobutan-2-ol",295.15,1.0,CC(O)C(F)(F)C(F)(F)F,le15
8077,1-fluoro-2-(trifluoromethyl)benzene,290.15,1.0,Fc1ccccc1C(F)(F)F,le15
8078,1-fluoro-3-(trifluoromethyl)benzene,280.35,1.0,Fc1cccc(C(F)(F)F)c1,le15
8079,1-fluoro-4-(trifluoromethyl)benzene,283.15,1.0,Fc1ccc(C(F)(F)F)cc1,le15
8080,"1,2,4,5-tetrafluoro-3-methylbenzene",296.45,1.0,Cc1c(F)c(F)cc(F)c1F,le15
8081,"Methanesulfonic acid, 1,1,1-trifluoro-, methyl ester",311.48299999999995,1.0,COS(=O)(=O)C(F)(F)F,le15
8082,"Isocyanic acid, p-nitrophenyl ester (8CI)",339.15,1.0,O=C=Nc1ccc([N+](=O)[O-])cc1,le15
8083,1-[ethenyl(ethoxy)phosphoryl]oxyethane,362.05,1.0,C=CP(=O)(OCC)OCC,le15
8084,"Benzoic acid, 4-formyl-, methyl ester",417.15,1.0,COC(=O)c1ccc(C=O)cc1,le15
8085,"Benzaldehyde, 4-(N-nitrosomethylamino)-",425.25,1.0,O=Cc1ccc(NCN=O)cc1,le15
8086,"4,7-Methanoindan, 3a,4,5,6,7,7a-hexahydro-1,2:5,6-diepoxy-",407.55,1.0,C1C2OC2C2C1C1CC2C2OC12,le15
8087,ethyl 2-methylbenzoate,364.85,1.0,CCOC(=O)c1ccccc1C,le15
8088,"Benzenemethanol, alpha-methyl-, acetate",443.35,1.0,CC(=O)OC(C)c1ccccc1,le15
8089,ethyl 4-methylbenzoate,372.55,1.0,CCOC(=O)c1ccc(C)cc1,le15
8090,"Benzene, 1,2-methylenedioxy-4-propyl-",372.45,1.0,CCCc1ccc2c(c1)OCO2,le15
8091,"Phenol, 2-methoxy-4-(2-propenyl)-",392.95,1.0,C=CCc1ccc(O)c(OC)c1,le15
8092,"1,3-Dioxolane, 2-(phenylmethyl)-",380.95,1.0,c1ccc(CC2OCCO2)cc1,le15
8093,"Acetic acid, phenyl-, ethyl ester",371.35,1.0,CCOC(=O)Cc1ccccc1,le15
8094,methyl 3-phenylpropanoate,372.85,1.0,COC(=O)CCc1ccccc1,le15
8095,"1-Propanol, 3-phenyl-, formate",374.55,1.0,O=COCCCc1ccccc1,le15
8096,ethyl 3-methylbenzoate,374.25,1.0,CCOC(=O)c1cccc(C)c1,le15
8097,"2-Propanone, 1-(4-methoxyphenyl)-",374.85,1.0,COc1ccc(CC(C)=O)cc1,le15
8098,"p-Benzoquinone, 2,3,5,6-tetramethyl- (8CI)",356.75,1.0,CC1=C(C)C(=O)C(C)=C(C)C1=O,le15
8099,3-methoxy-2-prop-2-enylphenol,377.05,1.0,C=CCc1c(O)cccc1OC,le15
8100,"Benzoic acid, 1-methylethyl ester",366.15,1.0,CC(C)OC(=O)c1ccccc1,le15
8101,2-methoxy-6-prop-1-enylphenol,397.95,1.0,CC=Cc1cccc(OC)c1O,le15
8102,4-phenylbutanoic acid,461.05,1.0,O=C(O)CCCc1ccccc1,le15
8103,"Benzyl alcohol, p-methyl-, acetate (6CI,7CI,8CI)",371.15,1.0,CC(=O)OCc1ccc(C)cc1,le15
8104,propyl benzoate,371.45,1.0,CCCOC(=O)c1ccccc1,le15
8105,"2,5-Cyclohexadiene-1,4-dione, 2-(1,1-dimethylethyl)- (9CI)",355.75,1.0,CC(C)(C)C1=CC(=O)C=CC1=O,le15
8106,phenyl butanoate,363.45,1.0,CCCC(=O)Oc1ccccc1,le15
8107,"2-Butanone, 4-(4-hydroxyphenyl)-",396.05,1.0,CC(=O)CCc1ccc(O)cc1,le15
8108,"Benzaldehyde, 4-propoxy-",391.45,1.0,CCCOc1ccc(C=O)cc1,le15
8109,"1-Propanone, 2-hydroxy-2-methyl-1-phenyl-",381.35,1.0,CC(C)(O)C(=O)c1ccccc1,le15
8110,"methyl 2,4-dimethylbenzoate",470.85,1.0,COC(=O)c1ccc(C)cc1C,le15
8111,"1-propanone, 1-(3-methoxyphenyl)-",372.05,1.0,CCC(=O)c1cccc(OC)c1,le15
8112,2-phenylbutanoic acid,443.35,1.0,CCC(C(=O)O)c1ccccc1,le15
8113,"Phenol, 2-methoxy-4-(1-propenyl)-",385.15,1.0,CC=Cc1ccc(O)c(OC)c1,le15
8114,"Acetic acid, 2-phenylethyl ester",374.85,1.0,CC(=O)OCCc1ccccc1,le15
8115,"Propionic acid, benzyl ester (6CI,7CI,8CI)",369.25,1.0,CCC(=O)OCc1ccccc1,le15
8116,"(2,4-dimethylphenyl) acetate",362.35,1.0,CC(=O)Oc1ccc(C)cc1C,le15
8117,"Oxirane, ((2-methylphenoxy)methyl)-",372.25,1.0,Cc1ccccc1OCC1CO1,le15
8118,"(3,4-dimethylphenyl) acetate",364.65,1.0,CC(=O)Oc1ccc(C)c(C)c1,le15
8119,"Urea, N,N-dimethyl-N'-phenyl-",426.45,1.0,CN(C)C(=O)Nc1ccccc1,le15
8120,"1,1,3,3-tetramethoxypropane",327.5499999999999,1.0,COC(CC(OC)OC)OC,le15
8121,"Ethanol, 2-(2-(2-methoxyethoxy)ethoxy)-",391.15,1.0,COCCOCCOCCO,le15
8122,"2,2'-Dimethyl-2,2'-azodipropiononitrile",369.75,1.0,CC(C)(C#N)N=NC(C)(C)C#N,le15
8123,"2,1-Benzisothiazole, 3-(methylamino)-",413.65,1.0,CNc1snc2ccccc12,le15
8124,"Benzothiazole, 2-amino-4-methyl-",421.75,1.0,Cc1cccc2sc(N)nc12,le15
8125,"Phenol, 4-(1,1-dimethylpropyl)-",384.15,1.0,CCC(C)(C)c1ccc(O)cc1,le15
8126,4-tert-butyl-2-methylphenol,383.05,1.0,Cc1cc(C(C)(C)C)ccc1O,le15
8127,"1-Propanol, 1,1-dimethyl-3-phenyl- (8CI)",379.85,1.0,CC(C)(O)CCc1ccccc1,le15
8128,"Phenol, 2-pentyl-",399.45,1.0,CCCCCc1ccccc1O,le15
8129,"2-Cyclopenten-1-one, 3-methyl-2-(2-pentenyl)-, (Z)-",380.35,1.0,CC/C=C\CC1=C(C)CCC1=O,le15
8130,"Benzenemethanol, alpha-butyl-",383.85,1.0,CCCCC(O)c1ccccc1,le15
8131,"Benzenemethanol, 4-(1,1-dimethylethyl)-",377.95,1.0,CC(C)(C)c1ccc(CO)cc1,le15
8132,"Benzene, (pentyloxy)-",356.75,1.0,CCCCCOc1ccccc1,le15
8133,"Phenol, 2-(1,1-dimethylethyl)-4-methyl-",375.65,1.0,Cc1ccc(O)c(C(C)(C)C)c1,le15
8134,1-tert-butyl-4-methoxybenzene,361.35,1.0,COc1ccc(C(C)(C)C)cc1,le15
8135,"Phenol, 2-butyl-5-methyl- (9CI)",388.95,1.0,CCCCc1ccc(C)cc1O,le15
8136,4-pentylphenol,406.15,1.0,CCCCCc1ccc(O)cc1,le15
8137,butoxymethylbenzene,356.54999999999984,1.0,CCCCOCc1ccccc1,le15
8138,"Phenethyl alcohol, alpha-ethyl-alpha-methyl-",371.75,1.0,CCC(C)(O)Cc1ccccc1,le15
8139,2-methyl-3-phenylbutan-2-ol,353.15,1.0,CC(c1ccccc1)C(C)(C)O,le15
8140,1-butoxy-4-methylbenzene,368.95,1.0,CCCCOc1ccc(C)cc1,le15
8141,2tertbutyl4methylphenol,373.0,1.0,Cc1ccc(O)c(C(C)(C)C)c1,le15
8142,2tertbutyl6methylphenol,380.0,1.0,Cc1cccc(C(C)(C)C)c1O,le15
8143,"1,4-Benzenediamine, N,N-diethyl-",412.15,1.0,CCN(CC)c1ccc(N)cc1,le15
8144,"2,3,5,6-Tetramethyl-p-phenylenediamine",440.95,1.0,Cc1c(C)c(N)c(C)c(C)c1N,le15
8145,"1,3-dimethyladamantane",325.15,1.0,CC12CC3CC(C1)CC(C)(C3)C2,le15
8146,"Methane, trichloronitro-",346.15,1.0,O=[N+]([O-])C(Cl)(Cl)Cl,le15
8147,"Acetoacetic acid, 2-chloro-, ethyl ester (8CI)",323.15,1.0,CCOC(=O)C(Cl)C(C)=O,le15
8148,"Butanoic acid, 4-chloro-3-oxo-, ethyl ester",369.15,1.0,CCOC(=O)CC(=O)CCl,le15
8149,1-Chlorophthalazine,478.75,1.0,Clc1nncc2ccccc12,le15
8150,2-chloroethyl 3-oxobutanoate,376.55,1.0,CC(=O)CC(=O)OCCCl,le15
8151,"Heptanoic acid, 7-chloro-",390.15,1.0,O=C(O)CCCCCCCl,le15
8152,"Ethane, 2,2-dichloro-1,1-difluoro-1-methoxy-",336.15,1.0,COC(F)(F)C(Cl)Cl,le15
8153,"Phosphorodichloridothioic acid, methyl ester",323.0499999999999,1.0,COP(=S)(Cl)Cl,le15
8154,2-(bromomethyl)oxolane,343.85,1.0,BrCC1CCCO1,le15
8155,1-bromo-4-methylpentane,313.25,1.0,CC(C)CCCBr,le15
8156,2-bromohexane,313.25,1.0,CCCCC(C)Br,le15
8157,3-Bromohexane,313.25,1.0,CCCC(Br)CC,le15
8158,2-bromo-2-methylpentane,306.25,1.0,CCCC(C)(C)Br,le15
8159,1-bromo-2-methylpentane,313.25,1.0,CCCC(C)CBr,le15
8160,1-bromo-3-methylpentane,313.25,1.0,CCC(C)CCBr,le15
8161,3-bromo-3-methylpentane,306.25,1.0,CCC(C)(Br)CC,le15
8162,"2,3,5,6-tetrafluoroaniline",335.15,1.0,Nc1c(F)c(F)cc(F)c1F,le15
8163,"Ethanone, 1-(4-nitrophenyl)- (9CI)",349.85,1.0,CC(=O)c1ccc([N+](=O)[O-])cc1,le15
8164,"Ethanone, 1-(3-nitrophenyl)-",373.05,1.0,CC(=O)c1cccc([N+](=O)[O-])c1,le15
8165,"Benzene, 1-(ethenyloxy)-4-nitro-",397.95,1.0,C=COc1ccc([N+](=O)[O-])cc1,le15
8166,"Ethanone, 1-(2-nitrophenyl)-",410.95,1.0,CC(=O)c1ccccc1[N+](=O)[O-],le15
8167,N-Hydroxy-9-methyladenine,481.65,1.0,Cn1cnc2c(NO)ncnc21,le15
8168,"Anthranilic acid, ethyl ester (6CI,7CI,8CI)",399.65,1.0,CCOC(=O)c1ccccc1N,le15
8169,ethyl N-phenylcarbamate,352.35,1.0,CCOC(=O)Nc1ccccc1,le15
8170,ethyl 3-aminobenzoate,384.55,1.0,CCOC(=O)c1cccc(N)c1,le15
8171,"Benzamide, 2-ethoxy-",426.85,1.0,CCOc1ccccc1C(N)=O,le15
8172,"Carbamic acid, methyl-, 3-methylphenyl ester",373.05,1.0,CNC(=O)Oc1cccc(C)c1,le15
8173,"Benzamide, 2-hydroxy-N,N-dimethyl- (9CI)",417.45,1.0,CN(C)C(=O)c1ccccc1O,le15
8174,(2S)-2-amino-3-phenylpropanoic acid,412.95,1.0,N[C@@H](Cc1ccccc1)C(=O)O,le15
8175,"1,2,4-trimethyl-5-nitrobenzene",395.05,1.0,Cc1cc(C)c([N+](=O)[O-])cc1C,le15
8176,1-isothiocyanato-4-methoxybenzene,392.65,1.0,COc1ccc(N=C=S)cc1,le15
8177,"Phenol, 3-(diethylamino)-",412.25,1.0,CCN(CC)c1cccc(O)c1,le15
8178,"Ethanol, 2-(N-ethylanilino)- (8CI)",404.15,1.0,CCN(CCO)c1ccccc1,le15
8179,"Benzenemethanol, alpha-((1S)-1-(methylamino)ethyl)-, (alphaR)-",358.15,1.0,CN[C@@H](C)[C@H](O)c1ccccc1,le15
8180,"(1S,2R)-2-(methylamino)-1-phenylpropan-1-ol",358.75,1.0,CN[C@H](C)[C@@H](O)c1ccccc1,le15
8181,2-Amino-4-tert-butylphenol,393.25,1.0,CC(C)(C)c1ccc(O)c(N)c1,le15
8182,"Ethanol, 2-((2-phenylethyl)amino)- (9CI)",401.55,1.0,OCCNCCc1ccccc1,le15
8183,"Benzenamine, 4-butoxy-",396.75,1.0,CCCCOc1ccc(N)cc1,le15
8184,"1,1-Ethanediol, 2,2,2-trichloro-",330.45,1.0,OC(O)C(Cl)(Cl)Cl,le15
8185,Tetrachloroethylene,318.0,1.0,ClC(Cl)=C(Cl)Cl,le15
8186,"1H-Pyrrole-2,5-dione, 3,4-dichloro-",367.75,1.0,O=C1NC(=O)C(Cl)=C1Cl,le15
8187,"2,3,5,6-tetrafluorophenol",352.54999999999984,1.0,Oc1c(F)c(F)cc(F)c1F,le15
8188,"1,3-Benzenedicarboxylic acid",469.899,1.0,O=C(O)c1cccc(C(=O)O)c1,le15
8189,"Benzamide, 2-nitro- (9CI)",419.189,1.0,NC(=O)c1ccccc1[N+](=O)[O-],le15
8190,"Benzamide, 4-nitro-",449.45,1.0,NC(=O)c1ccc([N+](=O)[O-])cc1,le15
8191,"Benzaldehyde, 4-nitro-, oxime (9CI)",410.95,1.0,O=[N+]([O-])c1ccc(C=NO)cc1,le15
8192,(Z)-2-fluoro-3-phenylprop-2-enoic acid,401.85,1.0,O=C(O)/C(F)=C/c1ccccc1,le15
8193,"Phosphonic acid, ethyl-, diethyl ester",365.85,1.0,CCOP(=O)(CC)OCC,le15
8194,"Phosphorous acid, triethyl ester",327.25,1.0,CCOP(OCC)OCC,le15
8195,"Phosphonic acid, bis(1-methylethyl) ester",365.95,1.0,CC(C)O[PH](=O)OC(C)C,le15
8196,"Benzaldehyde, 2,5-dimethoxy-",393.794,1.0,COc1ccc(OC)c(C=O)c1,le15
8197,"Benzeneacetic acid, 4-methoxy-",397.45,1.0,COc1ccc(CC(=O)O)cc1,le15
8198,"Benzaldehyde, 3,4-dimethoxy-",383.55,1.0,COc1ccc(C=O)cc1OC,le15
8199,ethyl 4-hydroxybenzoate,393.45,1.0,CCOC(=O)c1ccc(O)cc1,le15
8200,"Benzaldehyde, 3-ethoxy-4-hydroxy-",392.15,1.0,CCOc1cc(C=O)ccc1O,le15
8201,"Benzoic acid, 4-methoxy-, methyl ester",371.25,1.0,COC(=O)c1ccc(OC)cc1,le15
8202,"Salicylaldehyde, 3-ethoxy- (8CI)",371.05,1.0,CCOc1cccc(C=O)c1O,le15
8203,"Ethanone, 1-(4-hydroxy-3-methoxyphenyl)-",398.65,1.0,COc1cc(C(C)=O)ccc1O,le15
8204,"Ethanone, 1-(2-hydroxy-4-methoxyphenyl)- (9CI)",395.45,1.0,COc1ccc(C(C)=O)c(O)c1,le15
8205,"Benzaldehyde, 2,4-dimethoxy-",397.85,1.0,COc1ccc(C=O)c(OC)c1,le15
8206,2-phenoxypropanoic acid,359.15,1.0,CC(Oc1ccccc1)C(=O)O,le15
8207,alpha-methoxy-alpha-phenylacetic acid,389.25,1.0,COC(C(=O)O)c1ccccc1,le15
8208,"Acetic acid, phenoxy-, methyl ester",361.85,1.0,COC(=O)COc1ccccc1,le15
8209,methyl 2-hydroxy-4-methylbenzoate,370.95,1.0,COC(=O)c1ccc(C)cc1O,le15
8210,methyl 3-methoxybenzoate,366.95,1.0,COC(=O)c1cccc(OC)c1,le15
8211,"Benzenemethanol, 4-(acetyloxy)-",399.25,1.0,CC(=O)Oc1ccc(CO)cc1,le15
8212,methyl 2-hydroxy-5-methylbenzoate,371.65,1.0,COC(=O)c1cc(C)ccc1O,le15
8213,"Benzoic acid, 2-hydroxy-3-methyl-, methyl ester",368.65,1.0,COC(=O)c1cccc(C)c1O,le15
8214,"Benzoic acid, 2-hydroxy-, ethyl ester",380.15,1.0,CCOC(=O)c1ccccc1O,le15
8215,3-phenoxypropanoic acid,357.15,1.0,O=C(O)CCOc1ccccc1,le15
8216,"N,N-dimethyl-3-nitroaniline",390.15,1.0,CN(C)c1cccc([N+](=O)[O-])c1,le15
8217,"Benzo(b)thiophene 1,1-dioxide",517.15,1.0,O=S1(=O)C=Cc2ccccc21,le15
8218,"1,3,2-Dioxathiane, 5,5-dimethyl-, 2,2-dioxide",368.15,1.0,CC1(C)COS(=O)(=O)OC1,le15
8219,"1,2-Benzenediol, 4-(1,1-dimethylethyl)-",408.65,1.0,CC(C)(C)c1ccc(O)c(O)c1,le15
8220,"Phenol, p-butoxy- (8CI)",405.55,1.0,CCCCOc1ccc(O)cc1,le15
8221,"1,4-diethoxybenzene",361.35,1.0,CCOc1ccc(OCC)cc1,le15
8222,"1,4-Benzenediol, 2-(1,1-dimethylethyl)-",411.85,1.0,CC(C)(C)c1cc(O)ccc1O,le15
8223,"1,3-diethoxybenzene",360.25,1.0,CCOc1cccc(OCC)c1,le15
8224,"1,2-diethoxybenzene",346.95,1.0,CCOc1ccccc1OCC,le15
8225,"Phenol, 2-methoxy-4-propyl-",386.15,1.0,CCCc1ccc(O)c(OC)c1,le15
8226,1-(furan-3-yl)-4-methylpentan-1-one,369.95,1.0,CC(C)CCC(=O)c1ccoc1,le15
8227,1-Methyl-1-phenylthiourea,388.45,1.0,CN(C(N)=S)c1ccccc1,le15
8228,"Isonicotinimidic acid, 2-ethylthio-",406.35,1.0,CCc1cc(C(=N)S)ccn1,le15
8229,"Bicyclo(3.1.1)hept-2-ene-2-ethanol, 6,6-dimethyl-",372.05,1.0,CC1(C)C2CC=C(CCO)C1C2,le15
8230,"2-Cyclopenten-1-one, 3-methyl-2-pentyl-",383.15,1.0,CCCCCC1=C(C)CCC1=O,le15
8231,"4,7-Methanoindan, hexahydro-1,8-diamino-",399.75,1.0,NC1CCC2C3CCC(C3N)C12,le15
8232,trimethyl(phenoxy)silane,315.90599999999995,1.0,C[Si](C)(C)Oc1ccccc1,le15
8233,dodec-1-yne,352.54999999999984,1.0,C#CCCCCCCCCCC,le15
8234,"dodeca-1,11-diene",342.45,1.0,C=CCCCCCCCCC=C,le15
8235,cyclohexylcyclohexane,365.35,1.0,C1CCC(C2CCCCC2)CC1,le15
8236,(E)-3-phenylprop-2-enoyl chloride,385.65,1.0,O=C(Cl)/C=C/c1ccccc1,le15
8237,"Benzimidazole, 5-chloro-2-methyl- (8CI)",485.35,1.0,Cc1nc2ccc(Cl)cc2[nH]1,le15
8238,2-iodoacetonitrile,359.25,1.0,N#CCI,le15
8239,"Butyric acid, 2-bromo- (8CI)",357.95,1.0,CCC(Br)C(=O)O,le15
8240,2-bromoethyl acetate,344.25,1.0,CC(=O)OCCBr,le15
8241,"Butanoic acid, 4-bromo-",384.45,1.0,O=C(O)CCCBr,le15
8242,"Propionic acid, 3-bromo-, methyl ester (8CI)",348.15,1.0,COC(=O)CCBr,le15
8243,"Acetic acid, 2-bromo-, ethyl ester",320.95,1.0,CCOC(=O)CBr,le15
8244,"3-Bromo-2,2-dimethyl-1-propanol",348.75,1.0,CC(C)(CO)CBr,le15
8245,"Benzoic acid, 4-nitro-",439.65,1.0,O=C(O)c1ccc([N+](=O)[O-])cc1,le15
8246,"Benzoic acid, 3-nitro-",430.65,1.0,O=C(O)c1cccc([N+](=O)[O-])c1,le15
8247,"2,6-Pyridinedicarboxylic acid",507.35,1.0,O=C(O)c1cccc(C(=O)O)n1,le15
8248,"Benzoic acid, 2-nitro-",430.65,1.0,O=C(O)c1ccccc1[N+](=O)[O-],le15
8249,4-Hydroxy-3-nitrobenzaldehyde,397.45,1.0,O=Cc1ccc(O)c([N+](=O)[O-])c1,le15
8250,"Benzaldehyde, 2-hydroxy-3-nitro-",372.35,1.0,O=Cc1cccc([N+](=O)[O-])c1O,le15
8251,"Salicylaldehyde, 5-nitro- (6CI,7CI,8CI)",410.45,1.0,O=Cc1cc([N+](=O)[O-])ccc1O,le15
8252,"2,5-Pyridinedicarboxylic acid",493.65,1.0,O=C(O)c1ccc(C(=O)O)nc1,le15
8253,5-Nitrofuran-2-acrylaldehyde,414.85,1.0,O=CC=Cc1ccc([N+](=O)[O-])o1,le15
8254,"Phenethyl alcohol, p-nitro-",417.65,1.0,O=[N+]([O-])c1ccc(CCO)cc1,le15
8255,"Phenetole, m-nitro- (8CI)",401.25,1.0,CCOc1cccc([N+](=O)[O-])c1,le15
8256,4-methoxy-1-methyl-2-nitrobenzene,400.35,1.0,COc1ccc(C)c([N+](=O)[O-])c1,le15
8257,9H-Carbazole,433.15,1.0,c1ccc2c(c1)[nH]c1ccccc12,le15
8258,"6H-Purine-6-thione, 2-amino-1,7-dihydro-",562.8499999999998,1.0,Nc1nc2nc[nH]c2c(=S)[nH]1,le15
8259,2-naphthalen-2-ylacetonitrile,453.45,1.0,N#CCc1ccc2ccccc2c1,le15
8260,"Cyclohexanol, 1-ethynyl-, carbamate",404.15,1.0,C#CC1(OC(N)=O)CCCCC1,le15
8261,"Benzenemethanol, 3-hydroxy-alpha-((methylamino)methyl)-, (R)- (9CI)",436.55,1.0,CNC[C@H](O)c1cccc(O)c1,le15
8262,"2-Pyrrolidinone, 1-cyclohexyl-",418.15,1.0,O=C1CCCN1C1CCCCC1,le15
8263,"1H-Benzimidazol-2-amine, 5-chloro-",470.45,1.0,Nc1nc2cc(Cl)ccc2[nH]1,le15
8264,3iodo1propene,291.0,1.0,C=CCI,le15
8265,2-bromo-2-nitropropane,334.25,1.0,CC(C)(Br)[N+](=O)[O-],le15
8266,"2-Propanol, 1,1,1,3,3,3-hexafluoro-",277.54999999999995,1.0,OC(C(F)(F)F)C(F)(F)F,le15
8267,"Benzene, pentafluoro-",287.0499999999999,1.0,Fc1cc(F)c(F)c(F)c1F,le15
8268,"Benzeneacetic acid, 3,4-dihydroxy- (9CI)",494.15,1.0,O=C(O)Cc1ccc(O)c(O)c1,le15
8269,"Benzoic acid, 4-hydroxy-3-methoxy-",422.55,1.0,COc1cc(C(=O)O)ccc1O,le15
8270,"2H-Pyran-2,4(3H)-dione, 3-acetyl-6-methyl-",423.75,1.0,CC(=O)C1C(=O)C=C(C)OC1=O,le15
8271,"Benzoic acid, 3,5-dihydroxy-, methyl ester",420.75,1.0,COC(=O)c1cc(O)cc(O)c1,le15
8272,"Benzoic acid, 2,4-dihydroxy-, methyl ester",421.95,1.0,COC(=O)c1ccc(O)cc1O,le15
8273,"Benzenamine, 4-methoxy-2-nitro-",431.55,1.0,COc1ccc(N)c([N+](=O)[O-])c1,le15
8274,"Benzenamine, 2-methoxy-4-nitro-",447.15,1.0,COc1cc([N+](=O)[O-])ccc1N,le15
8275,"Benzenamine, 2-methoxy-5-nitro-",439.75,1.0,COc1ccc([N+](=O)[O-])cc1N,le15
8276,ethyl 4-fluorobenzoate,354.15,1.0,CCOC(=O)c1ccc(F)cc1,le15
8277,"6-Hydroxy-1,3-benzoxathiol-2-one",455.45,1.0,O=c1oc2cc(O)ccc2s1,le15
8278,"Acetic acid, fluoro-, phenylhydrazone (8CI)",362.75,1.0,OC(CF)=NNc1ccccc1,le15
8279,Dibenzofuran,403.15,1.0,c1ccc2c(c1)oc1ccccc12,le15
8280,"(3,4-dimethoxyphenyl)methanol",394.85,1.0,COc1ccc(CO)cc1OC,le15
8281,"9H-Pyrido(3,4-b)indole",455.25,1.0,c1ccc2c(c1)[nH]c1cnccc12,le15
8282,"3-phenoxypropane-1,2-diol",429.55,1.0,OCC(O)COc1ccccc1,le15
8283,butyl furan-2-carboxylate,367.05,1.0,CCCCOC(=O)c1ccco1,le15
8284,"1,3,5-trimethoxybenzene",358.75,1.0,COc1cc(OC)cc(OC)c1,le15
8285,"1H-Pyrrolo(3,2-h)quinoline",454.05,1.0,c1cnc2c(c1)ccc1cc[nH]c12,le15