,compound,flashpoint,pure substance,smiles,source
8173,2fluoro2methylpropane,260.95,1,CC(C)(C)F,le15
8174,1propanethiol,252.55,1,CCCS,le15
8175,2chloro1propene-,239.15,1,C=C(C)Cl,le15
8176,3chloro1propene-,241.15,1,C=CCCl,le15
8177,Allylchloride,241.15,1,C=CCCl,le15
8178,Benzene,262.15,1,c1ccccc1,le15
8179,Acetylchloride,277.15,1,CC(=O)Cl,le15
8180,Isopropylchloride,241.15,1,CC(C)Cl,le15
8181,Pyridine,293.15,1,c1ccncc1,le15
8182,Succinonitrile,405.35,1,N#CCCC#N,le15
8183,"1,3cyclohexadiene",299.0,1,C1=CCCC=C1,le15
8184,"1,4cyclohexadiene",267.0,1,C1=CCC=CC1,le15
8185,2chloroethanol,333.15,1,OCCCl,le15
8186,"1,2hexadiene-",253.15,1,C=C=CCCC,le15
8187,"1,4hexadiene",252.15,1,C=CCC=CC,le15
8188,"1,5hexadiene",246.0,1,C=CCCC=C,le15
8189,"2,4hexadiene-",266.15,1,CC=CC=CC,le15
8190,3hexyne-,256.15,1,CCC#CCC,le15
8191,"2,2dimethylpropanenitrile",277.0,1,CC(C)(C)C#N,le15
8192,Pentanenitrile,313.75,1,CCCCC#N,le15
8193,Valeronitrile,313.0,1,CCCCC#N,le15
8194,4methylene2oxetanone,307.15,1,C=C1CC(=O)O1,le15
8195,"2,3dihydro5methylfuran",261.0,1,CC1=CCCO1,le15
8196,"3,4dihydro2Hpyran",255.15,1,C1=COCCC1,le15
8197,3methyl3buten2one,294.15,1,C=C(C)C(C)=O,le15
8198,Cyclopentanone,299.15,1,O=C1CCCC1,le15
8199,Thiophene,272.05,1,c1ccsc1,le15
8200,"2,3dimethyl1butene",255.0,1,C=C(C)C(C)C,le15
8201,"2,3dimethyl2butene",257.0,1,CC(C)=C(C)C,le15
8202,"3,3dimethyl1butene",245.0,1,C=CC(C)(C)C,le15
8203,4methyl2pentene-,238.15,1,CC=CC(C)C,le15
8204,Cyclohexane,253.15,1,C1CCCCC1,le15
8205,Piperidine,289.15,1,C1CCNCC1,le15
8206,"2,3butanedione",299.85,1,CC(=O)C(C)=O,le15
8207,2methyl2propenoicAcid,340.15,1,C=C(C)C(=O)O,le15
8208,Methyl2propenoat-,270.15,1,C=CC(=O)OC,le15
8209,Methylacrylate,279.15,1,C=CC(=O)OC,le15
8210,Vinylacetate,265.15,1,C=CCC(=O)[O-],le15
8211,2methyltetrahydrofuran,262.05,1,CC1CCCO1,le15
8212,2pentanone,280.35,1,CCCC(C)=O,le15
8213,3methylbutanal-,268.15,1,CC(C)CC=O,le15
8214,Cyclopentanol,324.15,1,OC1CCCC1,le15
8215,IsopropylVinylether,241.15,1,C=COC(C)C,le15
8216,MethylIsopropenylKetone,286.0,1,C=C(C)C(C)=O,le15
8217,Tetrahydropyran,253.15,1,C1CCOCC1,le15
8218,Valeraldehyde,285.0,1,CCCCC=O,le15
8219,"2,2dimethylbutane",225.15,1,CCC(C)(C)C,le15
8220,"2,3dimethylbutane",244.15,1,CC(C)C(C)C,le15
8221,hexane,250.15,1,CCCCCC,le15
8222,2methylbutylAmine-,257.15,1,CCC(C)CN,le15
8223,2pentaneamine,266.45,1,CCCC(C)N,le15
8224,"1,3dioxane",274.15,1,C1COCOC1,le15
8225,"1,4dioxane",285.15,1,C1COCCO1,le15
8226,1methoxy2propanone,293.15,1,COCC(C)=O,le15
8227,Butyricacid,350.15,1,CCCC(=O)O,le15
8228,Ethylacetate,270.15,1,CCOC(C)=O,le15
8229,Isobutyricacid,328.75,1,CC(C)C(=O)O,le15
8230,Isopropylformate,267.15,1,CC(C)OC=O,le15
8231,Methylpropionate,271.15,1,CCC(=O)OC,le15
8232,Propylformate,270.15,1,CCCOC=O,le15
8233,1pentanol,306.15,1,CCCCCO,le15
8234,"2,2dimethyl1propanol",310.15,1,CC(C)(C)CO,le15
8235,Isopentylalcohol,316.15,1,CC(C)CCO,le15
8236,methylsecbutylether,243.0,1,CCC(C)OC,le15
8237,tertbutylmethylether,245.0,1,COC(C)(C)C,le15
8238,DiethylSilane-,253.15,1,CC[SiH2]CC,le15
8239,EthylDimethylSilane-,248.15,1,CC[SiH](C)C,le15
8240,TetramethylSilane-,245.15,1,C[Si](C)(C)C,le15
8241,1nitropropane,308.75,1,CCC[N+](=O)[O-],le15
8242,2nitropropane,297.15,1,CC(C)[N+](=O)[O-],le15
8243,1methoxy2propaneamine,281.15,1,COCC(C)N,le15
8244,2amino2methyl1propanol,340.35,1,CC(C)(N)CO,le15
8245,3methoxypropylamine,305.35,1,COCCCN,le15
8246,"1,1dimethoxyethane",256.0,1,COC(C)OC,le15
8247,"1,2butanediol",366.0,1,CCC(O)CO,le15
8248,"1,2dimethoxyethane",271.45,1,COCCOC,le15
8249,"1,3butanediol",394.0,1,CC(O)CCO,le15
8250,"1,4butanediol",394.25,1,OCCCCO,le15
8251,1methoxy2propanol,305.15,1,COCC(C)O,le15
8252,"2,3butanediol",358.0,1,CC(O)C(C)O,le15
8253,2ethoxyethanol,316.45,1,CCOCCO,le15
8254,2methoxy1propanol,309.15,1,COC(C)CO,le15
8255,1butanethiol,274.85,1,CCCCS,le15
8256,2methyl1propanethiol-,264.15,1,CC(C)CS,le15
8257,Diethylsulfide,263.75,1,CCSCC,le15
8258,2methylallylchloride,261.15,1,C=C(C)CCl,le15
8259,Ethylnitrate,283.15,1,CCO[N+](=O)[O-],le15
8260,"1,6heptadiyne",282.0,1,C#CCCCC#C,le15
8261,"2,5norbornadiene",262.0,1,C1=CC2C=CC1C2,le15
8262,Methylbenzene,277.15,1,Cc1ccccc1,le15
8263,Toluene,277.15,1,Cc1ccccc1,le15
8264,TrimethylFluoroSilane-,238.15,1,C[Si](C)(C)F,le15
8265,Propionylchloride,285.15,1,CCC(=O)Cl,le15
8266,2chlorobutane,258.15,1,CCC(C)Cl,le15
8267,Butylchloride,263.75,1,CCCCCl,le15
8268,2methylpyridine,299.15,1,Cc1ccccn1,le15
8269,Aniline,343.15,1,Nc1ccccc1,le15
8270,Phenol,352.15,1,Oc1ccccc1,le15
8271,"1,2ethanedithiol",323.0,1,SCCS,le15
8272,2chloro1propanol,324.85,1,CC(Cl)CO,le15
8273,DimethylChloroSilane-,248.15,1,C[SiH](C)Cl,le15
8274,2furancarboxaldehyde,333.15,1,O=Cc1ccco1,le15
8275,Fluorobenzene,258.15,1,Fc1ccccc1,le15
8276,2cyclohexen1one,307.15,1,O=C1C=CCCC1,le15
8277,"1,6heptadiene",263.0,1,C=CCCCC=C,le15
8278,"1,1dichloroethylene",248.0,1,C=C(Cl)Cl,le15
8279,Hexanenitrile,316.15,1,CCCCCC#N,le15
8280,2methyl2pentenal,304.15,1,CCC=C(C)C=O,le15
8281,4methyl3penten2one,304.15,1,CC(=O)C=C(C)C,le15
8282,5hexen2one,296.15,1,C=CCCC(C)=O,le15
8283,Cyclohexanone,317.15,1,O=C1CCCCC1,le15
8284,3methylthiophene,284.15,1,Cc1ccsc1,le15
8285,2ethyl1pentene-,263.15,1,C=C(CC)CCC,le15
8286,3ethyl1pentene-,256.15,1,C=CC(CC)CC,le15
8287,3methyl1hexene-,267.15,1,C=CC(C)CCC,le15
8288,4methyl1hexene-,258.15,1,C=CCC(C)CC,le15
8289,methylcyclohexane,269.15,1,CC1CCCCC1,le15
8290,"1,1dichloroethane",267.0,1,CC(Cl)Cl,le15
8291,"1,2dichloroethane",286.0,1,ClCCCl,le15
8292,ButylIsocyanate,299.85,1,CCCCN=C=O,le15
8293,AllylIsothiocyanate,319.25,1,C=CCN=C=S,le15
8294,Hexamethyleneimine,291.0,1,C1CCCNCC1,le15
8295,"2,4pentanedione",307.15,1,CC(=O)CC(C)=O,le15
8296,2propenylAcetate,295.15,1,CC=CCC(=O)[O-],le15
8297,Ethylacrylate,288.75,1,C=CC(=O)OCC,le15
8298,IsopropenylAcetate,288.75,1,C=C(C)CC(=O)[O-],le15
8299,2hexanone,308.15,1,CCCCC(C)=O,le15
8300,"3,3dimethyl2butanone",285.15,1,CC(=O)C(C)(C)C,le15
8301,4methyl2pentanone,291.15,1,CC(=O)CC(C)C,le15
8302,Cyclohexanol,341.15,1,OC1CCCCC1,le15
8303,Isobutylvinylether,264.15,1,C=COCC(C)C,le15
8304,"2,3dimethylpentane",267.0,1,CCC(C)C(C)C,le15
8305,"2,4dimethylpentane",260.95,1,CC(C)CC(C)C,le15
8306,Heptane,272.15,1,CCCCCCC,le15
8307,AllylDimethylSilane-,253.15,1,C=CC[SiH](C)C,le15
8308,TrimethylVinylSilane-,239.15,1,CC(C)=C(C)[SiH3],le15
8309,VinylTrimethylSilane-,253.15,1,C=C[Si](C)(C)C,le15
8310,DichloroSilane-,236.15,1,Cl[SiH2]Cl,le15
8311,4methylmorpholine,297.05,1,CN1CCOCC1,le15
8312,"1,3dimethylbutylamine",285.95,1,CC(C)CC(C)N,le15
8313,1heptanamine,308.15,1,CCCCCCCN,le15
8314,ButylDimethylAmine-,270.15,1,CCCCN(C)C,le15
8315,Diisopropylamine,272.15,1,CC(C)NC(C)C,le15
8316,Dipropylamine,290.15,1,CCCNCCC,le15
8317,Hexylamine,282.05,1,CCCCCCN,le15
8318,Ethynylbenzene,304.15,1,C#Cc1ccccc1,le15
8319,3ethoxypropionaldehyde,311.15,1,CCOCCC=O,le15
8320,Butylformate,291.15,1,CCCCOC=O,le15
8321,Ethylpropionate,285.15,1,CCOC(=O)CC,le15
8322,Isobutylformate,283.0,1,CC(C)COC=O,le15
8323,Isopropylacetate,275.15,1,CC(=O)OC(C)C,le15
8324,IsovalericAcid,343.0,1,CC(C)CC(=O)O,le15
8325,Methylbutyrate,287.15,1,CCCC(=O)OC,le15
8326,PentanoicAcid,361.15,1,CCCCC(=O)O,le15
8327,Propylacetate,285.15,1,CCCOC(C)=O,le15
8328,Tetrahydro2furanmethanol,343.15,1,OCC1CCCO1,le15
8329,1hexanol,333.15,1,CCCCCCO,le15
8330,2ethyl1butanol,330.15,1,CCC(CC)CO,le15
8331,2hexanol,330.95,1,CCCCC(C)O,le15
8332,3methyl3pentanol,297.15,1,CCC(C)(O)CC,le15
8333,Butylethylether,277.55,1,CCCCOCC,le15
8334,Dipropylether,294.25,1,CCCOCCC,le15
8335,Isopropylether,244.0,1,CC(C)OC(C)C,le15
8336,"1,5pentanediamine",335.15,1,NCCCCCN,le15
8337,EthylTrimethylSilane,300.15,1,CC[Si](C)(C)C,le15
8338,Benzonitrile,344.85,1,N#Cc1ccccc1,le15
8339,Diethylenetriamine,371.15,1,NCCNCCN,le15
8340,3pyridinecarbonitrile,357.15,1,N#Cc1cccnc1,le15
8341,EthenylBenzene,305.15,1,C=Cc1ccccc1,le15
8342,Styrene,305.15,1,C=Cc1ccccc1,le15
8343,"1,5pentanediol",402.0,1,OCCCCCO,le15
8344,1ethoxy2propanol,315.15,1,CCOCC(C)O,le15
8345,"1,4thioxane",315.35,1,C1CSCCO1,le15
8346,3methylthioPropionaldehyde,334.25,1,CCCC=S,le15
8347,1pentanethiol,291.45,1,CCCCCS,le15
8348,MethoxyTrimethylSilane-,243.15,1,CO[Si](C)(C)C,le15
8349,Propylnitrate,293.15,1,CCCO[N+](=O)[O-],le15
8350,Benzaldehyde,336.15,1,O=Cc1ccccc1,le15
8351,DiethyleneGlycol,397.15,1,OCCOCCO,le15
8352,"1,2dimethylbenzene",305.0,1,Cc1ccccc1C,le15
8353,"1,3dimethylBenzene",298.15,1,Cc1cccc(C)c1,le15
8354,"1,4dimethylbenzene",298.0,1,Cc1ccc(C)cc1,le15
8355,"1,7octadiyne",296.0,1,C#CCCCCC#C,le15
8356,Ethylbenzene,288.15,1,CCc1ccccc1,le15
8357,"2,4dimethylpyridine",310.35,1,Cc1ccnc(C)c1,le15
8358,2methylbenzenamine,358.15,1,Cc1ccccc1N,le15
8359,3methylbenzenamine,359.15,1,Cc1cccc(N)c1,le15
8360,4methylbenzenamine,360.15,1,Cc1ccc(N)cc1,le15
8361,Methoxybenzene,324.15,1,COc1ccccc1,le15
8362,"1,4dicyanobutane",432.0,1,N#CCCCCC#N,le15
8363,"1,5cyclooctadiene",305.0,1,C1=CCCC=CCC1,le15
8364,4vinyl1cyclohexene,289.25,1,C=CC1CC=CCC1,le15
8365,PhenylSilane,281.15,1,[SiH3]c1ccccc1,le15
8366,2chloropropionicAcid,380.35,1,CC(Cl)C(=O)O,le15
8367,EthylChloroformate,289.15,1,CCOC(=O)Cl,le15
8368,Trimethylchlorosilane-,246.15,1,C[Si](C)(C)Cl,le15
8369,Thiophenol,323.75,1,Sc1ccccc1,le15
8370,"1,7octadiene",282.0,1,C=CCCCCC=C,le15
8371,1octyne-,259.15,1,C#CCCCCCC,le15
8372,"1,2cyclohexanedione",357.0,1,O=C1CCCCC1=O,le15
8373,"1,2dimethylcyclohexane",288.0,1,CC1CCCCC1C,le15
8374,"1,3dimethylcyclohexane",278.0,1,CC1CCCC(C)C1,le15
8375,"1,4dimethylcyclohexane",283.0,1,CC1CCC(C)CC1,le15
8376,3ethyl1hexene,274.15,1,C=CC(CC)CCC,le15
8377,4methyl1heptene,275.15,1,C=CCC(C)CCC,le15
8378,ethylcyclohexane,308.15,1,CCC1CCCCC1,le15
8379,1trimethylsilylpropyne-,270.15,1,CC#C[Si](C)(C)C,le15
8380,DivinylDimethylSilane,281.15,1,C=C[Si](C)(C)C=C,le15
8381,Chlorobenzene,302.15,1,Clc1ccccc1,le15
8382,DichloroAcetaldehyde,333.15,1,O=CC(Cl)Cl,le15
8383,"1,1dichloropropane",280.0,1,CCC(Cl)Cl,le15
8384,"1,2dichloropropane",289.0,1,CC(Cl)CCl,le15
8385,"1,3dichloropropane",293.0,1,ClCCCCl,le15
8386,"2,2dichloropropane",268.0,1,CC(C)(Cl)Cl,le15
8387,Ethylcyanoacetate,383.15,1,CCOC(=O)CC#N,le15
8388,3isopropoxypropionitrile,341.45,1,CC(C)OCCC#N,le15
8389,TrifluoroAceticAcid,344.15,1,O=C(O)C(F)(F)F,le15
8390,"2,5hexanedione",352.15,1,CC(=O)CCC(C)=O,le15
8391,ethylcrotonate,275.35,1,C/C=C/C(=O)OCC,le15
8392,Propyl2propenoat,293.15,1,C=CC(=O)OCCC,le15
8393,"2,4dimethyl3pentanone",288.15,1,CC(C)C(=O)C(C)C,le15
8394,2heptanone,320.15,1,CCCCCC(C)=O,le15
8395,3heptanone,310.15,1,CCCCC(=O)CC,le15
8396,4heptanone,322.15,1,CCCC(=O)CCC,le15
8397,4methylcyclohexanol,343.15,1,CC1CCC(O)CC1,le15
8398,5methyl2hexanone,309.15,1,CC(=O)CCC(C)C,le15
8399,DiallylSulfide,319.25,1,C=CCSCC=C,le15
8400,"2,3dimethylhexane",270.0,1,CCCC(C)C(C)C,le15
8401,Octane,288.15,1,CCCCCCCC,le15
8402,AllylTrimethylSilane,280.15,1,C=CC[Si](C)(C)C,le15
8403,MethyldichloroSilane-,241.15,1,C[SiH](Cl)Cl,le15
8404,ButylIsothiocyanate,338.75,1,CCCCN=C=S,le15
8405,1Hindene,328.15,1,C1=Cc2ccccc2C1,le15
8406,2methylvalericacid,364.25,1,CCCC(C)C(=O)O,le15
8407,"3,3dimethylbutanoicacid",361.0,1,CC(C)(C)CC(=O)O,le15
8408,4hydroxy4methyl2pentanone,331.15,1,CC(=O)CC(C)(C)O,le15
8409,Butylacetate,297.15,1,CCCCOC(C)=O,le15
8410,Ethylbutyrate,297.15,1,CCCC(=O)OCC,le15
8411,EthylIsobutyrate,286.0,1,CCOC(=O)C(C)C,le15
8412,Hexanoicacid,377.15,1,CCCCCC(=O)O,le15
8413,Isobutylacetate,291.15,1,CC(=O)OCC(C)C,le15
8414,Pentylformate,299.85,1,CCCCCOC=O,le15
8415,1heptanol,346.15,1,CCCCCCCO,le15
8416,2methyl1hexanol,333.15,1,CCCCC(C)CO,le15
8417,"1,6hexanediamine",366.15,1,NCCCCCCN,le15
8418,HexylSilane,285.15,1,CCCCCC[SiH3],le15
8419,TriethylSilane-,271.15,1,CC[SiH](CC)CC,le15
8420,2methoxyethylacetate,322.15,1,COCCOC(C)=O,le15
8421,3ethoxypropionicacid,380.35,1,CCOCCC(=O)O,le15
8422,Ethyllactate,319.15,1,CCOC(=O)C(C)O,le15
8423,1ethenyl3methylBenzene,324.15,1,C=Cc1cccc(C)c1,le15
8424,1ethenyl4methylBenzene,319.15,1,C=Cc1ccc(C)cc1,le15
8425,"2,3dihydro1Hindene",321.15,1,c1ccc2c(c1)CCC2,le15
8426,alphaMethylstyrene,327.05,1,C=C(C)c1ccccc1,le15
8427,"1,1diethoxyethane",252.0,1,CCOC(C)OCC,le15
8428,"1,2diethoxyethane",308.15,1,CCOCCOCC,le15
8429,"1,6hexanediol",420.0,1,OCCCCCCO,le15
8430,1isopropoxy2propanol,309.15,1,CC(O)COC(C)C,le15
8431,1propoxy2propanol,321.15,1,CCCOCC(C)O,le15
8432,"2,5hexanediol",383.15,1,CC(O)CCC(C)O,le15
8433,1hexanethiol,293.75,1,CCCCCCS,le15
8434,EthoxyTrimethylSilane-,246.15,1,CCO[Si](C)(C)C,le15
8435,Chlorocyclohexane,305.15,1,ClC1CCCCC1,le15
8436,Isocyanatobenzene,324.15,1,O=C=Nc1ccccc1,le15
8437,butylnitrate,309.25,1,CCCCO[N+](=O)[O-],le15
8438,DimethylolUrea,505.15,1,O=C(NCO)NCO,le15
8439,2methylbenzaldehyde,340.15,1,Cc1ccccc1C=O,le15
8440,3methylbenzaldehyde,351.15,1,Cc1cccc(C=O)c1,le15
8441,4methylbenzaldehyde,353.15,1,Cc1ccc(C=O)cc1,le15
8442,Acetophenone,350.15,1,CC(=O)c1ccccc1,le15
8443,"1,8nonadiyne",314.0,1,C#CCCCCCC#C,le15
8444,1ethyl2methylBenzene,312.15,1,CCc1ccccc1C,le15
8445,1ethyl3methylBenzene,311.15,1,CCc1cccc(C)c1,le15
8446,1ethyl4methylBenzene,309.15,1,CCc1ccc(C)cc1,le15
8447,1methylethylBenzene,304.15,1,CC(C)c1ccccc1,le15
8448,Cumene,309.15,1,CC(C)c1ccccc1,le15
8449,Mesitylene,317.0,1,Cc1cc(C)cc(C)c1,le15
8450,Propylbenzene,320.15,1,CCCc1ccccc1,le15
8451,DimethylDimethoxySilane-,265.15,1,CO[Si](C)(C)OC,le15
8452,1chlorohexane,308.15,1,CCCCCCCl,le15
8453,DimethylVinylChloroSilane-,268.15,1,CC(C)=C[SiH2]Cl,le15
8454,"2,3dimethylaniline",370.15,1,Cc1cccc(N)c1C,le15
8455,2ethylbenzenamine,364.15,1,CCc1ccccc1N,le15
8456,BenzoicAcid,394.15,1,O=C(O)c1ccccc1,le15
8457,Salicylaldehyde,350.95,1,O=Cc1ccccc1O,le15
8458,"2,3dimethylphenol",368.0,1,Cc1cccc(O)c1C,le15
8459,"2,4dimethylphenol",367.0,1,Cc1ccc(O)c(C)c1,le15
8460,"2,5dimethylphenol",368.0,1,Cc1ccc(C)c(O)c1,le15
8461,"2,6dimethylphenol",346.0,1,Cc1cccc(C)c1O,le15
8462,2phenylethanol,375.15,1,OCCc1ccccc1,le15
8463,4ethylphenol,377.05,1,CCc1ccc(O)cc1,le15
8464,EthoxyBenzene,325.15,1,CCOc1ccccc1,le15
8465,Phenetole,335.95,1,CCOc1ccccc1,le15
8466,PhenylMethylSilane,298.15,1,[SiH3]Cc1ccccc1,le15
8467,2chloroethylacetate,339.25,1,CC(=O)OCCCl,le15
8468,ChloromethylTrimethylSilane-,271.15,1,C[Si](C)(C)CCl,le15
8469,EthylDimethylChloroSilane-,269.15,1,CC[Si](C)(C)Cl,le15
8470,1bromopropane,298.15,1,CCCBr,le15
8471,Nitrobenzene,360.95,1,O=[N+]([O-])c1ccccc1,le15
8472,MethylthioBenzene,342.15,1,CSc1ccccc1,le15
8473,Phenylmethanethiol,343.15,1,SCc1ccccc1,le15
8474,"1,8nonadiene",299.0,1,C=CCCCCCC=C,le15
8475,1nonyne,306.15,1,C#CCCCCCCC,le15
8476,TrivinylMethylSilane,288.15,1,C=CC([SiH3])(C=C)C=C,le15
8477,"1,3dichloro2butene",300.15,1,CC(Cl)=CCCl,le15
8478,"1,4dichloro2butene",326.15,1,ClCC=CCCl,le15
8479,"3,4dichloro1butene",301.15,1,C=CC(Cl)CCl,le15
8480,CyclohexylIsocyanate,322.05,1,O=C=NC1CCCCC1,le15
8481,2ethyl2hexenal,341.15,1,CCCC=C(C=O)CC,le15
8482,7methyl1octene,291.15,1,C=CCCCCC(C)C,le15
8483,1chloro2methylBenzene,324.15,1,Cc1ccccc1Cl,le15
8484,1chloro4methylBenzene,325.15,1,Cc1ccc(Cl)cc1,le15
8485,2chlorotoluene,316.0,1,Cc1ccccc1Cl,le15
8486,Benzylchloride,340.15,1,ClCc1ccccc1,le15
8487,ChloromethylBenzene,333.15,1,ClCc1ccccc1,le15
8488,"1,2dichlorobutane",299.0,1,CCC(Cl)CCl,le15
8489,"1,4dichlorobutane",313.0,1,ClCCCCCl,le15
8490,2chlorobenzenamine,364.15,1,Nc1ccccc1Cl,le15
8491,Butylacrylate,312.0,1,C=CC(=O)OCCCC,le15
8492,1octanal,325.15,1,CCCCCCCC=O,le15
8493,2ethylhexanal,317.15,1,CCCCC(C=O)CC,le15
8494,2octanone,335.15,1,CCCCCCC(C)=O,le15
8495,4octanone,318.15,1,CCCCC(=O)CCC,le15
8496,6methyl3heptanone,318.15,1,CCC(=O)CCC(C)C,le15
8497,PropargyloxytrimethylSilane,300.15,1,C#CCO[Si](C)(C)C,le15
8498,"2,2dimethyl3ethylpentane",286.15,1,CCC(CC)C(C)(C)C,le15
8499,"2,3dimethylheptane",363.0,1,CCCCC(C)C(C)C,le15
8500,"2,4dimethyl3ethylpentane",288.15,1,CCC(C(C)C)C(C)C,le15
8501,3ethyl4methylhexane,297.15,1,CCC(C)C(CC)CC,le15
8502,3ethylheptane,295.15,1,CCCCC(CC)CC,le15
8503,Nonane,304.15,1,CCCCCCCCC,le15
8504,VinylDiethylMethylSilane,288.15,1,C=C[Si](C)(CC)CC,le15
8505,"1,3dichloro2propanol",358.15,1,OC(CCl)CCl,le15
8506,"2,3dichloro1propanol",366.45,1,OCC(Cl)CCl,le15
8507,Dimethyldichlorosilane-,263.15,1,C[Si](C)(Cl)Cl,le15
8508,Ethyldichlorosilane-,264.15,1,CC[SiH](Cl)Cl,le15
8509,Quinoline,365.15,1,c1ccc2ncccc2c1,le15
8510,1piperazineEthanamine,366.15,1,NCCN1CCNCC1,le15
8511,Dibutylamine,313.15,1,CCCCNCCCC,le15
8512,Diisobutylamine,302.15,1,CC(C)CNCC(C)C,le15
8513,Ethylacetoacetate,330.35,1,CCOC(=O)CC(C)=O,le15
8514,"1,3diethenylBenzene",338.15,1,C=Cc1cccc(C=C)c1,le15
8515,1methyl1Hindene,338.15,1,CC1C=Cc2ccccc21,le15
8516,2methyl1Hindene,344.15,1,CC1=Cc2ccccc2C1,le15
8517,3methylbutylAcetate,298.15,1,CC(=O)OCCC(C)C,le15
8518,Butylpropionate,305.15,1,CCCCOC(=O)CC,le15
8519,Heptanoicacid,385.15,1,CCCCCCC(=O)O,le15
8520,Isopentylacetate,298.15,1,CC(=O)OCCC(C)C,le15
8521,PentylAcetate,297.05,1,CCCCCOC(C)=O,le15
8522,Propylbutyrate,310.15,1,CCCOC(=O)CCC,le15
8523,1octanol,354.15,1,CCCCCCCCO,le15
8524,2ethyl1hexanol,346.15,1,CCCCC(CC)CO,le15
8525,2octanol,360.95,1,CCCCCCC(C)O,le15
8526,Dibutylether,298.15,1,CCCCOCCCC,le15
8527,"1,1dimethyl1sila2oxacyclohexane",287.15,1,C[Si]1(C)CCCCO1,le15
8528,AllyloxytrimethylSilane,273.15,1,C=CCO[Si](C)(C)C,le15
8529,VinylDimethylEthoxySilane,277.15,1,C=C[Si](C)(C)OCC,le15
8530,TrimethylSilylIsothiocyanate,308.15,1,C[Si](C)(C)N=C=S,le15
8531,2methylbenzofuran,340.15,1,Cc1cc2ccccc2o1,le15
8532,2ethoxyethylacetate,320.35,1,CCOCCOC(C)=O,le15
8533,1ethenyl2ethylBenzene,331.15,1,C=Cc1ccccc1CC,le15
8534,1ethenyl3ethylBenzene,333.15,1,C=Cc1cccc(CC)c1,le15
8535,1ethenyl4ethylBenzene,334.15,1,C=Cc1ccc(CC)cc1,le15
8536,Tetralin,344.15,1,c1ccc2c(c1)CCCC2,le15
8537,AcetoxyTrimethylSilane,277.15,1,CC(=O)O[Si](C)(C)C,le15
8538,MethylVinylDimethoxySilane,277.15,1,CC=C[SiH](OC)OC,le15
8539,1heptanethiol,314.15,1,CCCCCCCS,le15
8540,BisDimethylaminoMethylSilane-,270.15,1,CN(C)C([SiH3])N(C)C,le15
8541,"1,2diethylBenzene",330.15,1,CCc1ccccc1CC,le15
8542,"1,3diethylBenzene",329.15,1,CCc1cccc(CC)c1,le15
8543,"1,4diethylbenzene",329.0,1,CCc1ccc(CC)cc1,le15
8544,1methyl2propylBenzene,326.15,1,CCCc1ccccc1C,le15
8545,1methyl3propylBenzene,325.15,1,CCCc1cccc(C)c1,le15
8546,1methylpropylBenzene,325.15,1,CCC(C)c1ccccc1,le15
8547,2methylpropylBenzene,325.15,1,CC(C)Cc1ccccc1,le15
8548,Isobutylbenzene,328.15,1,CC(C)Cc1ccccc1,le15
8549,secButylbenzene,325.15,1,CCC(C)c1ccccc1,le15
8550,tertbutylbenzene,317.0,1,CC(C)(C)c1ccccc1,le15
8551,AllylDimethylChloroSilane,278.15,1,C=CC[Si](C)(C)Cl,le15
8552,Acetanilide,446.15,1,CC(=O)Nc1ccccc1,le15
8553,PhenylIsothiocyanate,360.95,1,S=C=Nc1ccccc1,le15
8554,TrichloroSilane-,245.15,1,Cl[SiH](Cl)Cl,le15
8555,Methylbenzoate,356.15,1,COC(=O)c1ccccc1,le15
8556,PhenylAcetate,353.15,1,O=C([O-])Cc1ccccc1,le15
8557,EthoxymethylBenzene,332.15,1,CCOCc1ccccc1,le15
8558,PhenylDimethylSilane,311.15,1,C[SiH](C)c1ccccc1,le15
8559,TetravinylSilane,291.15,1,C=C[Si](C=C)(C=C)C=C,le15
8560,"1,5pentanedithiol",368.0,1,SCCCCCS,le15
8561,DiethylMethylChloroSilane,288.15,1,CC[Si](C)(Cl)CC,le15
8562,1bromobutane,297.05,1,CCCCBr,le15
8563,2phenoxyethanol,394.25,1,OCCOc1ccccc1,le15
8564,"1,9decadiene",316.15,1,C=CCCCCCCC=C,le15
8565,cisDecalin,331.15,1,C1CC[C@H]2CCCC[C@H]2C1,le15
8566,CyclopentadienylTrimethylSilane,302.15,1,C[Si](C)(C)C1C=CC=C1,le15
8567,Furfurylacetate,358.15,1,O=C([O-])CCc1ccco1,le15
8568,2decene,320.15,1,CC=CCCCCCCC,le15
8569,8methyl1nonene,316.15,1,C=CCCCCCC(C)C,le15
8570,"2,4pentadienylTrimethylSilane",291.15,1,C=CC=CC[Si](C)(C)C,le15
8571,3trimethylsilylCyclopentene,299.15,1,C[Si](C)(C)C1C=CCC1,le15
8572,Benzoylchloride,345.15,1,O=C(Cl)c1ccccc1,le15
8573,1chloro4ethylbenzene,337.15,1,CCc1ccc(Cl)cc1,le15
8574,"1,5dichloropentane",299.0,1,ClCCCCCCl,le15
8575,Vinylmethyldichlorosilane,277.15,1,C=CC[SiH](Cl)Cl,le15
8576,2oxolan2yloxolane,362.15,1,C1COC(C2CCCO2)C1,le15
8577,CyclohexylAcetate,331.15,1,O=C([O-])CC1CCCCC1,le15
8578,"2,6dimethyl4heptanone",322.15,1,CC(C)CC(=O)CC(C)C,le15
8579,2nonanone,333.15,1,CCCCCCCC(C)=O,le15
8580,3ethylheptanal,328.15,1,CCCCC(CC)CC=O,le15
8581,3nonanone,339.15,1,CCCCCCC(=O)CC,le15
8582,4nonanone,335.15,1,CCCCCC(=O)CCC,le15
8583,Decane,321.15,1,CCCCCCCCCC,le15