,compound,flashpoint,pure substance,smiles,source
422,"2-Propanol, 1-methoxy-",344.95,1,COCC(C)O,le15
423,"Ethane, 1,2-dimethoxy-",273.15,1,COCCOC,le15
424,"Ethanol, 2-ethoxy-",317.15,1,CCOCCO,le15
425,"2-methylpropane-1,2-diol",346.85,1,CC(C)(O)CO,le15
426,"1,2-Butanediol",366.45,1,CCC(O)CO,le15
427,2-methoxypropan-1-ol,315.05,1,COC(C)CO,le15
428,"1-Propanol, 3-methoxy-",325.95,1,COCCCO,le15
429,"2-methylpropane-1,3-diol",375.65,1,CC(CO)CO,le15
430,1methoxy2propanol,311.0,1,COCC(C)O,le15
431,"2-Propanol, 1,3-diamino-",370.05,1,NCC(O)CN,le15
432,"Pseudourea, 1-methyl-2-thio- (7CI)",312.25,1,CNC(=N)S,le15
433,"Ethane, 1,1'-thiobis-",263.15,1,CCSCC,le15
434,1-methylsulfanylpropane,273.15,1,CCCSC,le15
435,"2-Propanethiol, 2-methyl-",249.15,1,CC(C)(C)S,le15
436,2butanethiol,250.0,1,CCC(C)S,le15
437,2methyl2propanethiol,247.0,1,CC(C)(C)S,le15
438,prop-2-enoyl chloride,289.25,1,C=CC(=O)Cl,le15
439,"1-Propene, 3-chloro-2-methyl-",260.35,1,C=C(C)CCl,le15
440,(Z)-2-chlorobut-2-ene,254.15,1,C/C=C(/C)Cl,le15
441,(Z)-1-chlorobut-2-ene,378.55,1,C/C=C\CCl,le15
442,(E)-1-chlorobut-2-ene,261.15,1,C/C=C/CCl,le15
443,(E)-1-chlorobut-2-ene,258.15,1,C/C=C/CCl,le15
444,chloromethylcyclopropane,271.45,1,ClCC1CC1,le15
445,3chloro2methyl1propene,261.0,1,C=C(C)CCl,le15
446,"1,3-Propanediol, 2-amino-",388.25,1,NC(CO)CO,le15
447,Hydrazinecarbothioamide,353.15,1,NNC(N)=S,le15
448,"Acetic acid, fluoro-, methyl ester",290.75,1,COC(=O)CF,le15
449,Glycerol,457.0,1,OCC(O)CO,le15
450,"Acetic acid, mercapto-",372.95,1,O=C(O)CS,le15
451,"Benzene, methyl-",283.15,1,Cc1ccccc1,le15
452,"Bicyclo(2.2.1)hepta-2,5-diene",262.05,1,C1=CC2C=CC1C2,le15
453,"1,3,5-Cycloheptatriene",299.85,1,C1=CC=CCC=C1,le15
454,"2-Propanone, 1-chloro-",300.95,1,CC(=O)CCl,le15
455,"Propane, 1-chloro-2,3-epoxy-",307.05,1,ClCC1CO1,le15
456,3-chloropropanal,299.55,1,O=CCCCl,le15
457,PropanoylChloride,285.0,1,CCC(=O)Cl,le15
458,2-chloro-2-methylpropane,291.45,1,CC(C)(C)Cl,le15
459,"2-chloro-1,1,1,3,3,3-hexadeuterio-2-(trideuteriomethyl)propane",291.45,1,[2H]C([2H])([2H])C(Cl)(C([2H])([2H])[2H])C([2H])([2H])[2H],le15
460,1chloro2methylpropane,294.0,1,CC(C)CCl,le15
461,1chlorobutane,267.0,1,CCCCCl,le15
462,2chloro2methylpropane,291.0,1,CC(C)(C)Cl,le15
463,furan-2-carbonitrile,308.15,1,N#Cc1ccco1,le15
464,Benzenamine,349.15,1,Nc1ccccc1,le15
465,"Pyridine, 4-methyl-",313.15,1,Cc1ccncc1,le15
466,"Pyridine, 3-methyl-",309.26099999999997,1,Cc1cccnc1,le15
467,"Pyridine, 2-methyl-",299.26099999999997,1,Cc1ccccn1,le15
468,2chloropyridine,339.0,1,Clc1ccccn1,le15
469,3picoline,313.0,1,Cc1cccnc1,le15
470,4methylpyridine,310.0,1,Cc1ccncc1,le15
471,4picoline,313.0,1,Cc1ccncc1,le15
472,"Acetamide, 2-chloro-",381.75,1,NC(=O)CCl,le15
473,dimethylphosphinic acid,410.85,1,CP(C)(=O)O,le15
474,2-ethenylfuran,278.65,1,C=Cc1ccco1,le15
475,"Pyrazine, 2-methyl-",323.15,1,Cc1cnccn1,le15
476,"Pyridine, 3-amino-",397.15,1,Nc1cccnc1,le15
477,"Pyridine, 4-amino-",429.15,1,Nc1ccncc1,le15
478,3-methylpyridazine,360.95,1,Cc1cccnn1,le15
479,5-methylpyrimidine,316.406,1,Cc1cncnc1,le15
480,4-methylpyrimidine,313.15,1,Cc1ccncn1,le15
481,"2,2-dimethylpropanedinitrile",350.95,1,CC(C)(C#N)C#N,le15
482,2-methylpyrimidine,293.45,1,Cc1ncccn1,le15
483,"Methane, sulfonylbis-",416.15,1,CS(C)(=O)=O,le15
484,"2-methylcyclohexa-1,3-diene",276.25,1,CC1=CCCC=C1,le15
485,1-Hepten-3-yne,281.35,1,C=CC#CCCC,le15
486,"cyclohepta-1,3-diene",284.25,1,C1=CCCCC=C1,le15
487,2norbornene,258.0,1,C1=CC2CCC1C2,le15
488,"ethane-1,2-dithiol",317.55,1,SCCS,le15
489,Methyl disulfide (8CI),297.55,1,CSSC,le15
490,DimethylDisulfide,297.0,1,CSSC,le15
491,"Acetic acid, chloro-",399.15,1,O=C(O)CCl,le15
492,"Carbonochloridic acid, methyl ester",280.95,1,COC(=O)Cl,le15
493,"2-Propanol, 1-chloro-",324.85,1,CC(O)CCl,le15
494,1-chloro-2-methoxyethane,288.15,1,COCCCl,le15
495,chloromethoxyethane,292.15,1,CCOCCl,le15
496,3chloro1propanol,346.0,1,OCCCCl,le15
497,chloro(dimethyl)silicon,245.15,1,C[Si](C)Cl,le15
498,"Ethyne, dichloro- (9CI)",280.45,1,ClC#CCl,le15
499,1H-pyrrole-2-carbaldehyde,379.85,1,O=Cc1ccc[nH]1,le15
500,1H-pyridin-2-one,454.25,1,O=c1cccc[nH]1,le15
501,"Acetonitrile, 2,2'-iminobis-",431.05,1,N#CCNCC#N,le15
502,1-ethylpyrrole,298.65,1,CCn1cccc1,le15
503,"2,4-dimethyl-1H-pyrrole",329.75,1,Cc1c[nH]c(C)c1,le15
504,2-ethyl-1H-pyrrole,335.35,1,CCc1ccc[nH]1,le15
505,"Pyrrole, 2,5-dimethyl- (8CI)",327.15,1,Cc1ccc(C)[nH]1,le15
506,Chloronitromethane,297.85,1,O=[N+]([O-])CCl,le15
507,"Acetic acid, 2,2-difluoro-",351.15,1,O=C(O)C(F)F,le15
508,2-Furancarboxaldehyde,331.45,1,O=Cc1ccco1,le15
509,pyran-4-one,374.25,1,O=c1ccocc1,le15
510,pyran-2-one,362.35,1,O=c1cccco1,le15
511,furan-3-carbaldehyde,321.45,1,O=Cc1ccoc1,le15
512,Furfural,333.0,1,O=Cc1ccco1,le15
513,"Benzene, fluoro-",258.15,1,Fc1ccccc1,le15
514,Methanesulphonic acid,462.15,1,CS(=O)(=O)O,le15
515,"2,4-Hexadienal, (2E,4E)-",341.15,1,C/C=C/C=C/C=O,le15
516,"Furan, 2,5-dimethyl-",271.45,1,Cc1ccc(C)o1,le15
517,2-methylcyclopent-2-en-1-one,326.25,1,CC1=CCCC1=O,le15
518,hex-5-yn-2-one,315.85,1,C#CCCC(C)=O,le15
519,3-methylcyclopent-2-en-1-one,326.25,1,CC1=CC(=O)CC1,le15
520,"Furan, 2-ethyl-",274.15,1,CCc1ccco1,le15
521,"2,4-dimethylfuran",273.95,1,Cc1coc(C)c1,le15
522,2-Cyclohexen-1-one,328.85,1,O=C1C=CCCC1,le15
523,cyclohex-3-en-1-one,319.95,1,O=C1CC=CCC1,le15
524,"3,5-dimethyl-1H-pyrazole",363.65,1,Cc1cc(C)[nH]n1,le15
525,"2,5-dimethyl-1H-imidazole",415.45,1,Cc1cnc(C)[nH]1,le15
526,"Acrylonitrile, 3-(dimethylamino)- (7CI,8CI)",405.05,1,CN(C)C=CC#N,le15
527,1-ethylimidazole,352.05,1,CCn1ccnc1,le15
528,"1,2-dimethylimidazole",365.15,1,Cc1nccn1C,le15
529,3-methylcyclohexene,270.15,1,CC1C=CCCC1,le15
530,hept-2-yne,281.15,1,CC#CCCCC,le15
531,1-methylcyclohexene,269.25,1,CC1=CCCCC1,le15
532,hept-1-yne,271.15,1,C#CCCCCC,le15
533,"2,4-dimethylpenta-1,3-diene",283.15,1,C=C(C)C=C(C)C,le15
534,methylidenecyclohexane,266.45,1,C=C1CCCCC1,le15
535,ethylidenecyclopentane,275.85,1,CC=C1CCCC1,le15
536,"hepta-1,2-diene",275.35,1,C=C=CCCCC,le15
537,hept-3-yne,278.45,1,CCC#CCCC,le15
538,1heptyne,271.0,1,C#CCCCCC,le15
539,1methylcyclohexene,270.0,1,CC1=CCCCC1,le15
540,Methylenecyclohexane,267.0,1,C=C1CCCCC1,le15
541,"Methane, chloro(methylthio)- (9CI)",290.35,1,CSCCl,le15
542,2-chloroethanethiol,304.05,1,SCCCl,le15
543,"1,1-Dichloroethene (9CI)",248.15,1,C=C(Cl)Cl,le15
544,"Ethene, 1,2-dichloro-, (E)- (9CI)",279.25,1,Cl/C=C/Cl,le15
545,"Ethylene, 1,2-dichloro-",279.25,1,ClC=CCl,le15
546,"1H-Pyrrole-2,5-dione",409.75,1,O=C1C=CC(=O)N1,le15
547,"Pyridine, 3-fluoro- (8CI)(9CI)",286.483,1,Fc1cccnc1,le15
548,"Pyridine, 2-fluoro-",301.483,1,Fc1ccccn1,le15
549,4-fluoropyridine,295.95,1,Fc1ccncc1,le15
550,"3,5-dimethyl-1,2-oxazole",304.25,1,Cc1cc(C)on1,le15
551,furan-2-ylmethanamine,319.85,1,NCc1ccco1,le15
552,"2,4-dimethyl-1,3-oxazole",307.65,1,Cc1coc(C)n1,le15
553,"2,5-dimethyl-1,3-oxazole",303.15,1,Cc1cnc(C)o1,le15
554,"2-Propen-1-amine, N-2-propenyl-",288.75,1,C=CCNCC=C,le15
555,"Pentanenitrile, 4-methyl-",318.75,1,CC(C)CCC#N,le15
556,"Phosphonofluoridic acid, methyl-",318.75,1,CP(=O)(O)F,le15
557,"furan-2,5-dione",376.45,1,O=C1C=CC(=O)O1,le15
558,Furfuryl alcohol,338.15,1,OCc1ccco1,le15
559,Methanesulphonyl fluoride,301.65,1,CS(=O)(=O)F,le15
560,"2(3H)-Furanone, 5-methyl-",341.15,1,CC1=CCC(=O)O1,le15
561,ethyl prop-2-ynoate,296.15,1,C#CC(=O)OCC,le15
562,"Acrylic acid, vinyl ester (6CI,7CI,8CI)",286.65,1,C=COC(=O)C=C,le15
563,Furan-3-methanol,311.45,1,OCc1ccoc1,le15
564,2-methoxyfuran,283.15,1,COc1ccco1,le15
565,Furfurylalcohol,338.0,1,OCc1ccco1,le15
566,"3,4-dimethyl-1,2,5-oxadiazole",308.65,1,Cc1nonc1C,le15
567,"Ethanimidic acid, N-cyano-, methyl ester",292.05,1,COC(C)=NC#N,le15
568,Cyclohexanone,317.15,1,O=C1CCCCC1,le15
569,3-Hexyn-2-ol,326.45,1,CCC#CC(C)O,le15
570,"2,4-Hexadien-1-ol",345.35,1,CC=CC=CCO,le15
571,"3-Penten-2-one, 4-methyl-",303.75,1,CC(=O)C=C(C)C,le15
572,7-Oxabicyclo(4.1.0)heptane,300.35,1,C1CCC2OC2C1,le15
573,"1-Propene, 3,3'-oxybis-",266.15,1,C=CCOCC=C,le15
574,"1-Pentyn-3-ol, 4-methyl-",315.05,1,C#CC(O)C(C)C,le15
575,Hex-2-yn-1-ol,340.95,1,CCCC#CCO,le15
576,3-Cyclohexen-1-ol,326.55,1,OC1CC=CCC1,le15
577,cyclopentanecarbaldehyde,309.15,1,O=CC1CCCC1,le15
578,"Hexa-1,5-dien-3-ol",302.55,1,C=CCC(O)C=C,le15
579,3-Hexyn-1-ol,336.45,1,CCC#CCCO,le15
580,2-methylcyclopentan-1-one,305.85,1,CC1CCCC1=O,le15
581,(E)-hex-4-en-3-one,307.55,1,C/C=C/C(=O)CC,le15
582,"2-Hexenal, (2E)-",308.15,1,CCC/C=C/C=O,le15
583,"3-Hexenal, (3Z)-",333.15,1,CC/C=C\CC=O,le15
584,"4-methyl-3,6-dihydro-2H-pyran",287.45,1,CC1=CCOCC1,le15
585,"1-Pentyn-3-ol, 3-methyl-",302.15,1,C#CC(C)(O)CC,le15
586,5-Hexen-2-one,297.05,1,C=CCCC(C)=O,le15
587,5-Hexyn-1-ol,343.15,1,C#CCCCCO,le15
588,"Pentanal, 2-methylene- (9CI)",302.25,1,C=C(C=O)CCC,le15
589,1-cyclobutylethanone,305.45,1,CC(=O)C1CCC1,le15
590,CyclohexeneOxide,297.0,1,C1CCC2OC2C1,le15
591,Mesityloxide,305.0,1,Cc1cc(C)c(Oc2c(C)cc(C)cc2C)c(C)c1,le15
592,"Propanenitrile, 3-(dimethylamino)-",335.15,1,CN(C)CCC#N,le15
593,"Butanenitrile, 2-amino-2-methyl-",343.85,1,CCC(C)(N)C#N,le15
594,Diethylcyanamide,342.0,1,CCN(C#N)CC,le15
595,2methylthiophene,280.0,1,Cc1cccs1,le15
596,cycloheptane,279.25,1,C1CCCCCC1,le15
597,3-ethylpent-2-ene,309.15,1,CC=C(CC)CC,le15
598,ethylcyclopentane,288.75,1,CCC1CCCC1,le15
599,1heptene,265.0,1,C=CCCCCC,le15
600,2methyl1hexene,267.0,1,C=C(C)CCCC,le15
601,Cycloheptane,279.0,1,C1CCCCCC1,le15
602,Ethylcyclopentane,288.0,1,CCC1CCCC1,le15
603,"2,2,2-trifluoroethanamine",257.15,1,NCC(F)(F)F,le15
604,methyl 2-cyanoacetate,315.85,1,COC(=O)CC#N,le15
605,"2,5-Pyrrolidinedione",433.15,1,O=C1CCC(=O)N1,le15
606,ethyl cyanoformate,297.55,1,CCOC(=O)C#N,le15
607,5-methylpyrrolidin-2-one,400.65,1,CC1CCC(=O)N1,le15
608,"Isocyanic acid, butyl ester",290.95,1,CCCCN=C=O,le15
609,piperidin-2-one,406.25,1,O=C1CCCCN1,le15
610,1-isocyanato-2-methylpropane,290.25,1,CC(C)CN=C=O,le15
611,"Propionitrile, 3-ethoxy- (8CI)",337.05,1,CCOCCC#N,le15
612,"Acetamide, N-ethenyl-N-methyl-",336.05,1,C=CN(C)C(C)=O,le15
613,"Crotonamide, 3-methyl-",364.35,1,CC(C)=CC(N)=O,le15
614,"2-Pyrrolidinone, 1-methyl-",364.15,1,CN1CCCC1=O,le15
615,"2-Propenamide, N,N-dimethyl-",344.85,1,C=CC(=O)N(C)C,le15
616,1methyl2pyrrolidinone,359.0,1,CN1CCCC1=O,le15
617,2ethyloxazoline,302.0,1,CCC1=NCCO1,le15
618,"Isothiocyanic acid, allyl ester",309.45,1,C=CCN=C=S,le15
619,"2-methyl-1,3-thiazole",302.05,1,Cc1nccs1,le15
620,"4-methyl-1,3-thiazole",305.15,1,Cc1cscn1,le15
621,2-methylpiperidine,289.15,1,CC1CCCCN1,le15
622,"1H-Azepine, hexahydro-",291.15,1,C1CCCNCC1,le15
623,4-methylpiperidine,280.35,1,CC1CCNCC1,le15
624,"Piperidine, 1-methyl-",276.45,1,CN1CCCCC1,le15
625,1-ethylpyrrolidine,274.75,1,CCN1CCCC1,le15
626,"Allylamine, N-ethyl-2-methyl- (6CI,8CI)",280.35,1,C=C(C)CNCC,le15
627,"Cyclopentylamine, 1-methyl- (6CI)",282.35,1,CC1(N)CCCC1,le15
628,Cyclohexylamine,300.0,1,NC1CCCCC1,le15
629,"Ethanol, 2,2,2-trifluoro-",302.55,1,OCC(F)(F)F,le15
630,"2-Propenoic acid, 2-methyl-, methyl ester",283.15,1,C=C(C)C(=O)OC,le15
631,"1-Propen-2-ol, acetate",286.05,1,C=C(C)OC(C)=O,le15
632,"2(3H)-Furanone, dihydro-5-methyl-",348.13,1,CC1CCC(=O)O1,le15
633,Glutaraldehyde,339.15,1,O=CCCCC=O,le15
634,"2,4-Pentanedione",316.25,1,CC(=O)CC(C)=O,le15
635,"2-Propenoic acid, ethyl ester",288.70599999999996,1,C=CC(=O)OCC,le15
636,"2-Butenoic acid, 3-methyl-",369.15,1,CC(C)=CC(=O)O,le15
637,(Z)-2-methylbut-2-enoic acid,369.05,1,C/C=C(/C)C(=O)O,le15
638,4-Pentenoic acid,362.15,1,C=CCCC(=O)O,le15
639,"Acetic acid, 2-propenyl ester",279.85,1,C=CCOC(C)=O,le15
640,"2,3-Pentanedione",292.85,1,CCC(=O)C(C)=O,le15
641,"2-Butenoic acid, methyl ester, (2E)-",277.15,1,C/C=C/C(=O)OC,le15
642,alpha-Methyl-gamma-butyrolactone,348.15,1,CC1CCOC1=O,le15
643,cyclobutanecarboxylic acid,356.15,1,O=C(O)C1CCC1,le15
644,"2-Vinyl-1,3-dioxolane",294.15,1,C=CC1OCCO1,le15
645,2-methylcyclopropane-1-carboxylic acid,360.95,1,CC1CC1C(=O)O,le15
646,oxan-2-one,354.15,1,O=C1CCCCO1,le15
647,methyl cyclopropanecarboxylate,290.15,1,COC(=O)C1CC1,le15
648,oxan-4-one,336.75,1,O=C1CCOCC1,le15
649,Allylacetate,279.0,1,C=CCCC(=O)[O-],le15
650,gammaValerolactone,354.0,1,CC1CCC(=O)O1,le15
651,MethylCyclopropanecarboxylate,290.0,1,COC(=O)C1CC1,le15
652,MethylMethacrylate,283.0,1,C=C(C)C(=O)OC,le15
653,"Urea, N-2-propen-1-yl-",328.45,1,C=CCNC(N)=O,le15
654,"Pyrrolidine, 1-nitroso-",356.45,1,O=NN1CCCC1,le15
655,"2-Propen-1-amine, N-methyl-N-nitroso- (9CI)",338.95,1,C=CCN(C)N=O,le15
656,"2-Butanone, 3,3-dimethyl-",297.05,1,CC(=O)C(C)(C)C,le15
657,"2-Pentanone, 4-methyl-",286.45,1,CC(=O)CC(C)C,le15
658,Cyclohexanol,340.92800000000005,1,OC1CCCCC1,le15
659,"Valeraldehyde, 2-methyl- (8CI)",289.85,1,CCCC(C)C=O,le15
660,(E)-hex-3-en-1-ol,317.55,1,CC/C=C/CCO,le15
661,3-methylpentan-2-one,285.15,1,CCC(C)C(C)=O,le15
662,2-methylpentan-3-one,283.95,1,CCC(=O)C(C)C,le15
663,3-Hexanone,296.15,1,CCCC(=O)CC,le15
664,2-Hexanone,296.15,1,CCCCC(C)=O,le15
665,oxepane,287.35,1,C1CCCOCC1,le15
666,Hex-5-en-1-ol,320.35,1,C=CCCCCO,le15
667,"1-Penten-3-ol, 3-methyl-",299.15,1,C=CC(C)(O)CC,le15
668,"4-Hexen-1-ol, (4E)-",334.25,1,C/C=C/CCCO,le15
669,(Z)-hex-2-en-1-ol,334.85,1,CCC/C=C\CO,le15
670,"3-Hexen-1-ol, (3Z)-",317.15,1,CC/C=C\CCO,le15
671,"3-Hexen-1-ol, (3E)-",317.55,1,CC/C=C/CCO,le15
672,"Valeraldehyde, 4-methyl-",290.95,1,CC(C)CCC=O,le15
673,"Furan, tetrahydrodimethyl-",277.65,1,CC1(C)CCCO1,le15
674,"Oxirane, butyl- (9CI)",294.95,1,CCCCC1CO1,le15
675,"2-Penten-1-ol, 2-methyl-",333.95,1,CCC=C(C)CO,le15
676,"3,3-Dimethylbutyraldehyde",283.75,1,CC(C)(C)CC=O,le15
677,cyclopentylmethanol,335.35,1,OCC1CCCC1,le15
678,1-Hexen-3-ol,308.15,1,C=CC(O)CCC,le15
679,3-methylpentanal,290.95,1,CCC(C)CC=O,le15
680,3-methylcyclopentan-1-ol,328.15,1,CC1CCC(O)C1,le15
681,"(1R,2S)-2-methylcyclopentan-1-ol",320.35,1,C[C@H]1CCC[C@H]1O,le15
682,2-methylpent-3-en-2-ol,297.35,1,CC=CC(C)(C)O,le15
683,Hexaldehyde,305.15,1,CCCCCC=O,le15
684,"Butyraldehyde, 2-ethyl-",294.25,1,CCC(C=O)CC,le15
685,"2-Hexen-1-ol, (2E)-",327.15,1,CCC/C=C/CO,le15
686,"Oxirane, 3-ethyl-2,2-dimethyl-",277.45,1,CCC1OC1(C)C,le15
687,1-methylcyclopentan-1-ol,313.75,1,CC1(O)CCCC1,le15
688,2ethylbutanal,294.0,1,CCC(C=O)CC,le15
689,2methyl3pentanone,286.0,1,CCC(=O)C(C)C,le15
690,3hexanone,287.0,1,CCCC(=O)CC,le15
691,3methyl2pentanone,285.0,1,CCC(C)C(C)=O,le15
692,5hexen1ol,320.0,1,C=CCCCCO,le15
693,Butylvinylether,264.0,1,C=COCCCC,le15
694,Hexanal,305.0,1,CCCCCC=O,le15
695,MethylIsobutylKetone,287.0,1,CC(=O)CC(C)C,le15
696,Pinacolone,278.0,1,CC(=O)C(C)(C)C,le15
697,"Piperazine, 1-methyl-",315.35,1,CN1CCNCC1,le15
698,"1H-1,4-Diazepine, hexahydro-",337.55,1,C1CNCCNC1,le15
699,piperidin-1-amine,309.25,1,NN1CCCCC1,le15
700,"1,2-Diethyldiaziridine",275.75,1,CCN1CN1CC,le15
701,"Piperazine, 2-methyl-",318.25,1,CC1CNCCN1,le15
702,"2,4-dimethylpentane",260.95,1,CC(C)CC(C)C,le15
703,Heptane,272.05,1,CCCCCCC,le15
704,2methylhexane,270.0,1,CCCCC(C)C,le15
705,3methylhexane,270.0,1,CCCC(C)CC,le15
706,"2,3-Butanedione, monooxime",458.65,1,CC(=O)C(C)=NO,le15
707,N-acetylacetamide,374.95,1,CC(=O)NC(C)=O,le15
708,"2-Propenamide, N-(hydroxymethyl)-",419.35,1,C=CC(=O)NCO,le15
709,"1,3,4-Thiadiazole, 2-amino-",371.45,1,Nc1nncs1,le15
710,3-methylbutanamide,367.25,1,CC(C)CC(N)=O,le15
711,"Formamide, N,N-diethyl-",333.15,1,CCN(C=O)CC,le15
712,(NZ)-N-pentan-2-ylidenehydroxylamine,351.15,1,CCC/C(C)=N\O,le15
713,pentanamide,367.45,1,CCCCC(N)=O,le15
714,"N,N-dimethylpropanamide",338.95,1,CCC(=O)N(C)C,le15
715,N-tert-butylformamide,368.85,1,CC(C)(C)NC=O,le15
716,"Propane, 1-isothiocyanato-",258.15,1,CCCN=C=S,le15
717,"2-methyl-4,5-dihydro-1,3-thiazole",310.35,1,CC1=NCCS1,le15
718,4-methylpentan-2-amine,285.15,1,CC(C)CC(C)N,le15
719,1-Hexanamine,300.15,1,CCCCCCN,le15
720,"N,N-dimethylbutan-1-amine",278.15,1,CCCCN(C)C,le15
721,Isohexylamine,298.85,1,CC(C)CCCN,le15
722,N-propan-2-ylpropan-1-amine,274.25,1,CCCNC(C)C,le15
723,"2-Propanamine, N-(1-methylethyl)-",266.15,1,CC(C)NC(C)C,le15
724,"1-Propanamine, N-propyl-",276.15,1,CCCNCCC,le15
725,"3,3-dimethylbutan-1-amine",274.25,1,CC(C)(C)CCN,le15
726,"1-Butanamine, N-ethyl-",291.15,1,CCCCNCC,le15
727,"3,3-Dimethylbutylamine",278.75,1,CC(C)(C)CCN,le15
728,3-oxobutanoic acid,384.95,1,CC(=O)CC(=O)O,le15
729,methyl 2-oxopropanoate,312.15,1,COC(=O)C(C)=O,le15
730,Aceticanhydride,322.0,1,CC(=O)OC(C)=O,le15
731,"Propanoic acid, 2,2-dimethyl-",341.45,1,CC(C)(C)C(=O)O,le15
732,"Propanoic acid, ethyl ester",285.35,1,CCOC(=O)CC,le15
733,"Acetic acid, 1-methylethyl ester",289.85,1,CC(=O)OC(C)C,le15
734,"Acetic acid, propyl ester",285.95,1,CCCOC(C)=O,le15
735,"Ethanol, 2-(2-propenyloxy)-",328.15,1,C=CCOCCO,le15
736,3-hydroxy-3-methylbutan-2-one,315.35,1,CC(=O)C(C)(C)O,le15
737,"Butyric acid, 2-methyl- (6CI,8CI)",346.55,1,CCC(C)C(=O)O,le15
738,"Butanoic acid, 3-methyl-",346.55,1,CC(C)CC(=O)O,le15
739,"Formic acid, 2-methylpropyl ester",283.15,1,CC(C)COC=O,le15
740,"Propanoic acid, 2-methyl-, methyl ester",277.55,1,COC(=O)C(C)C,le15
741,"Hydracrylaldehyde, 2,2-dimethyl- (6CI,7CI,8CI)",333.45,1,CC(C)(C=O)CO,le15
742,"2-Pentanone, 5-hydroxy- (8CI)(9CI)",366.15,1,CC(=O)CCCO,le15
743,"Ethene, (2-methoxyethoxy)- (9CI)",282.45,1,C=COCCOC,le15
744,"2,2-dimethyl-1,3-dioxolane",274.85,1,CC1(C)OCCO1,le15
745,"Butanal, 3-methoxy- (9CI)",299.35,1,COC(C)CC=O,le15
746,"3,3-dimethoxyprop-1-ene",270.35,1,C=CC(OC)OC,le15
747,"Furfuryl alcohol, tetrahydro- (8CI)",347.15,1,OCC1CCCO1,le15
748,"Formic acid, sec-butyl ester (8CI)",276.65,1,CCC(C)OC=O,le15
749,"4-methyl-1,3-dioxane",295.35,1,CC1CCOCO1,le15
750,2-(ethoxymethyl)oxirane,296.65,1,CCOCC1CO1,le15
751,2methylbutyricacid,350.0,1,CCC(C)C(=O)O,le15
752,3methylbutanoicacid,347.0,1,CC(C)CC(=O)O,le15
753,MethylIsobutyrate,276.0,1,COC(=O)C(C)C,le15
754,PivalicAcid,337.0,1,CC(C)(C)C(=O)O,le15
755,tertButylFormate,264.0,1,CC(C)(C)OC=O,le15
756,"Ethanamine, N-ethyl-N-nitroso-",332.15,1,CCN(CC)N=O,le15
757,"1,1,3-trimethylurea",367.55,1,CNC(=O)N(C)C,le15
758,Butyrohydrazide,378.05,1,CCCC(=O)NN,le15
759,morpholin-4-amine,331.15,1,NN1CCOCC1,le15
760,fluorocyclohexane,282.05,1,FC1CCCCC1,le15
761,Fluorocyclohexane,278.0,1,FC1CCCCC1,le15
762,2-Imidazolidinethione,316.65,1,S=C1NCCN1,le15
763,Hexyl alcohol,333.15,1,CCCCCCO,le15
764,"Propane, 1,1'-oxybis-",253.15,1,CCCOCCC,le15
765,"2-Butanol, 3,3-dimethyl-",302.05,1,CC(O)C(C)(C)C,le15
766,2-methylpentan-2-ol,294.25,1,CCCC(C)(C)O,le15
767,hexan-3-ol,314.817,1,CCCC(O)CC,le15
768,"1-Butanol, 3,3-dimethyl-",320.95,1,CC(C)(C)CCO,le15
769,"1-Pentanol, 4-methyl- (9CI)",324.85,1,CC(C)CCCO,le15
770,hexan-2-ol,314.15,1,CCCCC(C)O,le15
771,"Ether, butyl ethyl",272.15,1,CCCCOCC,le15
772,"Propane, 2-ethoxy-2-methyl-",254.15,1,CCOC(C)(C)C,le15
773,"1-Butanol, 2,2-dimethyl-",310.55,1,CCC(C)(C)CO,le15
774,"Pentanol, 4-methyl-",324.85,1,CC(C)CCCO,le15
775,"2,3-dimethylbutan-2-ol",302.55,1,CC(C)C(C)(C)O,le15
776,1ethoxybutane,268.0,1,CCCCOCC,le15
777,2ethoxy2methylpropane,254.0,1,CCOC(C)(C)C,le15
778,2ethyl1butanol,330.0,1,CCC(CC)CO,le15
779,2methyl1pentanol,323.0,1,CCCC(C)CO,le15
780,2methyl3pentanol,319.0,1,CCC(O)C(C)C,le15
781,3methyl1pentanol,331.0,1,CCC(C)CCO,le15
782,3methyl2pentanol,313.0,1,CCC(C)C(C)O,le15
783,4methyl1pentanol,324.0,1,CC(C)CCCO,le15
784,4methyl2pentanol,314.0,1,CC(C)CC(C)O,le15
785,DiisopropylEther,245.0,1,CC(C)OC(C)C,le15
786,methyltertpentylether,262.0,1,CCC(C)(C)OC,le15
787,"N,N',N'-trimethylethane-1,2-diamine",282.55,1,CNCCN(C)C,le15
788,thiane,294.25,1,C1CCSCC1,le15
789,2-methylthiolane,301.25,1,CC1CCCS1,le15
790,3-methylthiolane,301.25,1,CC1CCSC1,le15
791,Cyclopentanethiol,298.0,1,SC1CCCC1,le15
792,"Cyclopentene, 3-chloro-",281.85,1,ClC1C=CCC1,le15
793,3-chloro-3-methylbut-1-yne,277.55,1,C#CC(C)(C)Cl,le15
794,5chloro1pentyne,288.0,1,C#CCCCCl,le15
795,"Urea, 1-methyl-1-nitroso- (8CI)",326.25,1,CN(N=O)C(N)=O,le15
796,"Carbamic acid, N-methyl-, ethyl ester",330.95,1,CCOC(=O)NC,le15
797,"Acetamide, N-(2-hydroxyethyl)-",449.85,1,CC(=O)NCCO,le15
798,"Nitrous acid, butyl ester",261.15,1,CCCCON=O,le15
799,"Propane, 2-methyl-2-nitro-",292.15,1,CC(C)(C)[N+](=O)[O-],le15
800,2-methyl-1-nitropropane,311.35,1,CC(C)C[N+](=O)[O-],le15
801,"Glycine, N,N-dimethyl-",332.95,1,CN(C)CC(=O)O,le15