,compound,flashpoint,pure substance,smiles,source
8584,CyclohexylDimethylSilane,336.15,1,C[SiH](C)C1CCCCC1,le15
8585,VinylTriethylSilane,302.15,1,C=C[Si](CC)(CC)CC,le15
8586,1propanesulfonylchloride,353.15,1,CCCS(=O)(=O)Cl,le15
8587,Ethylmethyldichlorosilane,275.15,1,CC[Si](C)(Cl)Cl,le15
8588,1nonanamine,335.15,1,CCCCCCCCCN,le15
8589,TripropylAmine,302.15,1,CCCN(CCC)CCC,le15
8590,2naphthol,426.15,1,Oc1ccc2ccccc2c1,le15
8591,Hexylacetate,318.15,1,CCCCCCOC(C)=O,le15
8592,IsobutylButyrate,323.15,1,CCCC(=O)OCC(C)C,le15
8593,Isobutylisobutyrate,313.0,1,CC(C)COC(=O)C(C)C,le15
8594,OctanoicAcid,254.15,1,CCCCCCCC(=O)O,le15
8595,1nonanol,348.15,1,CCCCCCCCCO,le15
8596,"2,6dimethyl4heptanol",339.15,1,CC(C)CC(O)CC(C)C,le15
8597,2nonanol,355.15,1,CCCCCCCC(C)O,le15
8598,3ethyl1heptanol,363.15,1,CCCCC(CC)CCO,le15
8599,4methyl1octanol,358.15,1,CCCCC(C)CCCO,le15
8600,6methyl1octanol,360.15,1,CCC(C)CCCCCO,le15
8601,Carbostyril ,473.75,1,O=c1ccc2ccccc2[nH]1,le15
8602,DiethylaminoTrimethylSilane,283.15,1,CCN(CC)[Si](C)(C)C,le15
8603,TrifluoromethylBenzene,285.15,1,FC(F)(F)c1ccccc1,le15
8604,AdipicAcid,469.15,1,O=C(O)CCCCC(=O)O,le15
8605,Ethylacetylglycolate,355.15,1,CCCC(=O)C(O)C(=O)[O-],le15
8606,Triethylenetetramine,408.15,1,NCCNCCNCCN,le15
8607,AcetoxymethylTrimethylSilane,293.15,1,CC(=O)OC[Si](C)(C)C,le15
8608,1octanethiol,341.15,1,CCCCCCCCS,le15
8609,Dibutylsulfide,349.85,1,CCCCSCCCC,le15
8610,Ditertbutylsulfide,321.15,1,CC(C)(C)SC(C)(C)C,le15
8611,BisDiethylaminoDimethylSilane,308.15,1,CCN(CC)[Si](C)(C)N(CC)CC,le15
8612,BisDimethylaminoDimethylSilane-,266.15,1,CN(C)[Si](C)(C)N(C)C,le15
8613,HexamethylDisilane-,272.15,1,C[Si](C)(C)[Si](C)(C)C,le15
8614,"1,2dichlorobenzene",340.0,1,Clc1ccccc1Cl,le15
8615,"1,3dichloroBenzene",345.15,1,Clc1cccc(Cl)c1,le15
8616,"1,4dichlorobenzene",339.15,1,Clc1ccc(Cl)cc1,le15
8617,Dichloroacetylchloride,339.25,1,O=C(Cl)C(Cl)Cl,le15
8618,TrichloroAcetaldehyde,323.15,1,O=CC(Cl)(Cl)Cl,le15
8619,Triethylorthoformate,303.15,1,CCOC(OCC)OCC,le15
8620,VinylTrimethoxySilane,296.15,1,C=C[Si](OC)(OC)OC,le15
8621,"1,2dimethyl3propylBenzene",345.15,1,CCCc1cccc(C)c1C,le15
8622,Pentylbenzene,338.15,1,CCCCCc1ccccc1,le15
8623,DimethylDiethoxySilane,284.15,1,CCO[Si](C)(C)OCC,le15
8624,1chlorooctane,343.15,1,CCCCCCCCCl,le15
8625,AllylChloromethylDimethylSilane,300.15,1,C=CC[Si](C)(C)CCl,le15
8626,Methyltrichlorosilane,276.15,1,C[Si](Cl)(Cl)Cl,le15
8627,Benzylacetate,363.75,1,O=C([O-])CCc1ccccc1,le15
8628,Ethylbenzoate,361.15,1,CCOC(=O)c1ccccc1,le15
8629,PhenylmethylAcetate,363.15,1,CC(=O)OCc1ccccc1,le15
8630,DipropylSulfone,399.15,1,CCCS(=O)(=O)CCC,le15
8631,EthylTrimethoxySilane,300.15,1,CC[Si](OC)(OC)OC,le15
8632,BenzylDimethylSilane,338.15,1,C[SiH](C)Cc1ccccc1,le15
8633,TrimethylPhenylSilane,313.15,1,C[Si](C)(C)c1ccccc1,le15
8634,TriethylChloroSilane,303.15,1,CC[Si](Cl)(CC)CC,le15
8635,1bromopentane,304.15,1,CCCCCBr,le15
8636,Methylsalicylate,369.15,1,COc1ccccc1C(=O)[O-],le15
8637,TetramethoxySilane,294.15,1,CO[Si](OC)(OC)OC,le15
8638,ChloromethylDimethylEthoxySilane,299.15,1,CCO[Si](C)(C)CCl,le15
8639,TrimethylBromoSilane-,270.15,1,C[Si](C)(C)Br,le15
8640,4chlorophenylisocyanate,383.15,1,O=C=Nc1ccc(Cl)cc1,le15
8641,DiethylPhosphate,364.15,1,CCOP(=O)([O-])OCC,le15
8642,1undecene,327.15,1,C=CCCCCCCCCC,le15
8643,PhenacylChloride,391.15,1,O=C(CCl)c1ccccc1,le15
8644,AllylMethylDichloroSilane,300.15,1,C=CCC[SiH](Cl)Cl,le15
8645,CyclopentenyloxyTrimethylSilane,311.15,1,C[Si](C)(C)OC1=CCCC1,le15
8646,Undecane,333.15,1,CCCCCCCCCCC,le15
8647,Trimethoxychlorosilane,295.15,1,CO[Si](Cl)(OC)OC,le15
8648,PhenylMethylChloroSilane,335.15,1,Cl[SiH2]Cc1ccccc1,le15
8649,Bromobenzene,324.15,1,Brc1ccccc1,le15
8650,BischloromethylDimethylSilane,319.15,1,C[Si](C)(CCl)CCl,le15
8651,DiethylDichloroSilane,300.15,1,CC[Si](Cl)(Cl)CC,le15
8652,Decylamine,372.15,1,CCCCCCCCCCN,le15
8653,Dipentylamine,324.15,1,CCCCCNCCCCC,le15
8654,ButylIsovalerate,326.15,1,CCCCOC(=O)CC(C)C,le15
8655,HeptylAcetate,340.15,1,CCCCCCCOC(C)=O,le15
8656,Isopentylbutyrate,332.15,1,CCCC(=O)OCCC(C)C,le15
8657,1decanol,355.15,1,CCCCCCCCCCO,le15
8658,TriisopropylSilane,310.15,1,CC(C)[SiH](C(C)C)C(C)C,le15
8659,ChloromethylDimethylchlorosilane,294.15,1,C[Si](C)(Cl)CCl,le15
8660,2butoxyethylacetate,344.15,1,CCCCOCCOC(C)=O,le15
8661,CyclohexylBenzene,372.15,1,c1ccc(C2CCCCC2)cc1,le15
8662,Dibutoxymethane,333.15,1,CCCCOCOCCCC,le15
8663,Ethyl2trimethylsilylAcetate,308.15,1,CCOC(=O)C[Si](C)(C)C,le15
8664,VinylMethylDiethoxySilane,289.15,1,C=CC[SiH](OCC)OCC,le15
8665,1nonanethiol,351.15,1,CCCCCCCCCS,le15
8666,BisTrimethylsilylMethane,285.15,1,C[Si](C)(C)C[Si](C)(C)C,le15
8667,DichloromethylBenzene,353.15,1,ClC(Cl)c1ccccc1,le15
8668,TrisdimethylaminoSilane,298.15,1,CN(C)[SiH](N(C)C)N(C)C,le15
8669,HexamethylDisilazane,281.15,1,C[Si](C)(C)N[Si](C)(C)C,le15
8670,Vinyltrichlorosilane,288.65,1,C=C[Si](Cl)(Cl)Cl,le15
8671,PhenylTrifluoroSilane-,283.15,1,F[Si](F)(F)c1ccccc1,le15
8672,AllylTrimethoxySilane,319.15,1,C=CC[Si](OC)(OC)OC,le15
8673,"1,3diisopropylbenzene",349.0,1,CC(C)c1cccc(C(C)C)c1,le15
8674,"1,4diisopropylbenzene",349.0,1,CC(C)c1ccc(C(C)C)cc1,le15
8675,1phenylhexane,356.15,1,CCCCCCc1ccccc1,le15
8676,1tertButyl4ethylBenzene,343.15,1,CCc1ccc(C(C)(C)C)cc1,le15
8677,Hexylbenzene,353.15,1,CCCCCCc1ccccc1,le15
8678,1methoxy2propoxyTrimethylSilane,293.15,1,COCC(C)O[Si](C)(C)C,le15
8679,Octanoylchloride,355.15,1,CCCCCCCC(=O)Cl,le15
8680,2chloromethyl3trimethylsilyl1propene,316.15,1,C=C(CCl)C[Si](C)(C)C,le15
8681,"2,4dichlorophenol",387.05,1,Oc1ccc(Cl)cc1Cl,le15
8682,Chloromethylmethyldichlorosilane,293.15,1,C[Si](Cl)(Cl)CCl,le15
8683,Ethyltrichlorosilane,300.15,1,CC[Si](Cl)(Cl)Cl,le15
8684,Isopropylbenzoate,372.05,1,CC(C)OC(=O)c1ccccc1,le15
8685,4tertButyl2methylphenol,390.95,1,Cc1cc(C(C)(C)C)ccc1O,le15
8686,TriethoxySilane,299.15,1,CCO[SiH](OCC)OCC,le15
8687,BenzylTrimethylSilane,335.15,1,C[Si](C)(C)Cc1ccccc1,le15
8688,1bromohexane,330.35,1,CCCCCCBr,le15
8689,"1,1bicyclohexyl",347.15,1,C1CCC(C2CCCCC2)CC1,le15
8690,Ethylbromoacetate,320.95,1,CCOC(=O)CBr,le15
8691,BromomethylTrimethylSilane,289.15,1,C[Si](C)(C)CBr,le15
8692,2cyanoethylMethylDichloroSilane,333.15,1,C[Si](Cl)(Cl)CCC#N,le15
8693,2dodecene,351.15,1,CC=CCCCCCCCCC,le15
8694,1heptynylTrimethylSilane,315.15,1,CCCCCC#C[Si](C)(C)C,le15
8695,CyclopentylDichloroSilane,316.15,1,Cl[SiH](Cl)C1CCCC1,le15
8696,Diphenylamine,425.95,1,c1ccc(Nc2ccccc2)cc1,le15
8697,2phenylphenol,397.05,1,Oc1ccccc1-c1ccccc1,le15
8698,Diphenylether,388.15,1,c1ccc(Oc2ccccc2)cc1,le15
8699,HexylTrifluoroSilane-,266.15,1,CCCCCC[Si](F)(F)F,le15
8700,Dodecane,344.15,1,CCCCCCCCCCCC,le15
8701,ChloromethylTrimethoxySilane,299.15,1,CO[Si](CCl)(OC)OC,le15
8702,PhenylDimethylChloroSilane,334.15,1,C[Si](C)(Cl)c1ccccc1,le15
8703,1bromo4methylBenzene,358.15,1,Cc1ccc(Br)cc1,le15
8704,3chloropropylDimethylChloroSilane,313.15,1,C[Si](C)(Cl)CCCCl,le15
8705,2ethylhexylacetate,344.15,1,CCCCC(CC)COC(C)=O,le15
8706,OctylAcetate,359.15,1,CCCCCCCCOC(C)=O,le15
8707,MethacryloxymethylTrimethylSilane,318.15,1,C=C(C)C(=O)OC[Si](C)(C)C,le15
8708,"2,5dimethoxychlorobenzene",390.35,1,COc1ccc(OC)c(Cl)c1,le15
8709,DiisopropylaminoTrimethylSilane,301.15,1,CC(C)N(C(C)C)[Si](C)(C)C,le15
8710,TriethylAcetoxySilane,314.15,1,CCC(CC)(CC)C(=O)O[SiH3],le15
8711,1dodecanethiol,360.95,1,CCCCCCCCCCCCS,le15
8712,VinylPentamethylDisiloxane,285.15,1,C=C[Si](C)(C)O[Si](C)(C)C,le15
8713,HeptamethylDisilazane,300.15,1,CN([Si](C)(C)C)[Si](C)(C)C,le15
8714,AllylTrichloroSilane,304.15,1,C=CC[Si](Cl)(Cl)Cl,le15
8715,DimethylDiacetoxySilane,310.15,1,CC(=O)O[Si](C)(C)OC(C)=O,le15
8716,DiethylDiethoxySilane,316.15,1,CCO[Si](CC)(CC)OCC,le15
8717,PhenylDichloroSilane,321.15,1,Cl[SiH](Cl)c1ccccc1,le15
8718,bisChloromethylMethylChloroSilane,315.15,1,C[Si](Cl)(CCl)CCl,le15
8719,Anthracene,394.15,1,c1ccc2cc3ccccc3cc2c1,le15
8720,Dibutylsulfone,416.15,1,CCCCS(=O)(=O)CCCC,le15
8721,IsobutylTrimethoxySilane,315.15,1,CO[Si](CC(C)C)(OC)OC,le15
8722,MethylTriethoxySilane,297.15,1,CCO[Si](C)(OCC)OCC,le15
8723,Dibutyldisulfide,366.45,1,CCCCSSCCCC,le15
8724,HexamethylDisilaThiane,299.15,1,C[Si](C)(C)S[Si](C)(C)C,le15
8725,1bromoheptane,333.75,1,CCCCCCCBr,le15
8726,1bromovinylTrimethylSilane,288.15,1,C=C(Br)[Si](C)(C)C,le15
8727,2bromovinylTrimethylSilane,288.15,1,C[Si](C)(C)C=CBr,le15
8728,3chloropropylMethylDimethoxySilane,318.15,1,CO[Si](C)(CCCCl)OC,le15
8729,ChloromethylMethylDiethoxySilane,311.15,1,CCO[Si](C)(CCl)OCC,le15
8730,1iodobutane,306.15,1,CCCCI,le15
8731,2iodobutane,301.15,1,CCC(C)I,le15
8732,2ethylhexylacrylate,359.0,1,C=CC(=O)OCC(CC)CCCC,le15
8733,DiphenylSilane,371.15,1,c1ccc([SiH2]c2ccccc2)cc1,le15
8734,Tridecane,352.15,1,CCCCCCCCCCCCC,le15
8735,BenzylDimethylChloroSilane,346.15,1,C[Si](C)(Cl)Cc1ccccc1,le15
8736,ChloromethylDimethylPhenylSilane,326.15,1,C[Si](C)(CCl)c1ccccc1,le15
8737,HexylDichloroSilane,337.15,1,CCCCCC[SiH](Cl)Cl,le15
8738,"1,3divinylTetramethylDisilazane",307.15,1,C=C[Si](C)(C)N[Si](C)(C)C=C,le15
8739,HexafluoroBenzene,283.15,1,Fc1c(F)c(F)c(F)c(F)c1F,le15
8740,TrimethylsilylTrifluoroacetate,273.15,1,C[Si](C)(C)OC(=O)C(F)(F)F,le15
8741,NonylAcetate,372.15,1,CCCCCCCCCOC(C)=O,le15
8742,2butyl1octanol,383.15,1,CCCCCCC(CO)CCCC,le15
8743,Dihexylether,350.15,1,CCCCCCOCCCCCC,le15
8744,TetramethylDivinylDisiloxane,292.15,1,C=C[Si](C)(C=C)O[Si](C)(C)C,le15
8745,BistrimethylsilylCarbodiimide,315.15,1,C[Si](C)(C)N=C=N[Si](C)(C)C,le15
8746,Bromomethyldimethylchlorosilane,314.15,1,C[Si](C)(Cl)CBr,le15
8747,CyclohexylMethylDimethoxySilane,339.15,1,CO[SiH](CC1CCCCC1)OC,le15
8748,VinylTriethoxySilane,312.15,1,C=C[Si](OCC)(OCC)OCC,le15
8749,1phenyloctane,380.15,1,CCCCCCCCc1ccccc1,le15
8750,PhenylMethylDichloroSilane,355.15,1,Cl[SiH](Cl)Cc1ccccc1,le15
8751,3bromo1trimethylsilyl1propyne,335.15,1,C[Si](C)(C)C#CCBr,le15
8752,3chloropropylMethylDichloroSilane,359.15,1,C[Si](Cl)(Cl)CCCCl,le15
8753,IsobutylTrichloroSilane,310.15,1,CC(C)C[Si](Cl)(Cl)Cl,le15
8754,EthylTriethoxySilane,313.15,1,CCO[Si](CC)(OCC)OCC,le15
8755,1bromooctane,351.45,1,CCCCCCCCBr,le15
8756,PhenylDimethylAcetoxySilane,345.15,1,CC(C)C(=O)O[SiH2]c1ccccc1,le15
8757,trichloromethylBenzene,354.15,1,ClC(Cl)(Cl)c1ccccc1,le15
8758,TetraisocyanatoSilane,323.15,1,O=C=N[Si](N=C=O)(N=C=O)N=C=O,le15
8759,2isopropylbiphenyl,413.75,1,CC(C)c1ccccc1-c1ccccc1,le15
8760,CyclohexylMethylDichloroSilane,339.15,1,Cl[SiH](Cl)CC1CCCCC1,le15
8761,1chloroethyltrichlorosilane,288.15,1,CC(Cl)[Si](Cl)(Cl)Cl,le15
8762,2chloroethyltrichlorosilane,301.15,1,ClCC[Si](Cl)(Cl)Cl,le15
8763,DichloromethylMethylDichloroSilane,301.15,1,C[Si](Cl)(Cl)C(Cl)Cl,le15
8764,Dibenzylether,408.15,1,c1ccc(COCc2ccccc2)cc1,le15
8765,PhenylTrimethoxySilane,359.15,1,CO[Si](OC)(OC)c1ccccc1,le15
8766,Tetradecane,373.15,1,CCCCCCCCCCCCCC,le15
8767,3chloropropylTrimethoxySilane,351.15,1,CO[Si](CCCCl)(OC)OC,le15
8768,TriethoxyChloroSilane,320.15,1,CCO[Si](Cl)(OCC)OCC,le15
8769,PhenethylDimethylChloroSilane,343.15,1,C[Si](C)(Cl)CCc1ccccc1,le15
8770,2nitrobiphenyl,452.15,1,O=[N+]([O-])c1ccccc1-c1ccccc1,le15
8771,"1,3dichloroTetramethylDisiloxane",288.15,1,C[Si](C)(Cl)O[Si](C)(C)Cl,le15
8772,CyclopentylTrichloroSilane,350.15,1,Cl[Si](Cl)(Cl)C1CCCC1,le15
8773,Iodobenzene,347.15,1,Ic1ccccc1,le15
8774,Tryptophan ,497.85,1,N[C@@H](Cc1c[nH]c2ccccc12)C(=O)O,le15
8775,AllylTriethoxySilane,320.15,1,C=CC[Si](OCC)(OCC)OCC,le15
8776,Nonylbenzene,372.15,1,CCCCCCCCCc1ccccc1,le15
8777,PhenylEthylDichloroSilane,365.15,1,Cl[SiH](Cl)CCc1ccccc1,le15
8778,3chloro2methylpropylMethylDichloroSilane,363.15,1,CC(CCl)C[Si](C)(Cl)Cl,le15
8779,secAmylTrichloroSilane,303.15,1,CCCC(C)[Si](Cl)(Cl)Cl,le15
8780,HexylTrimethoxySilane,335.15,1,CCCCCC[Si](OC)(OC)OC,le15
8781,Anthraquinone,458.15,1,O=C1c2ccccc2C(=O)c2ccccc21,le15
8782,Pentylsalicylate,405.15,1,CCCCCOc1ccccc1C(=O)[O-],le15
8783,TetraethoxySilane,323.15,1,CCO[Si](OCC)(OCC)OCC,le15
8784,HexamethylTrisiloxane,293.15,1,C[Si](C)(C)O[SiH2]O[Si](C)(C)C,le15
8785,Anthracene ,409.45,1,c1ccc2cc3ccccc3cc2c1,le15
8786,PhenylMethylDiethoxySilane,362.15,1,CCO[SiH](Cc1ccccc1)OCC,le15
8787,1tetradecene,383.15,1,C=CCCCCCCCCCCCC,le15
8788,PhenylTrichloroSilane,364.15,1,Cl[Si](Cl)(Cl)c1ccccc1,le15
8789,1iodohexane,334.15,1,CCCCCCI,le15
8790,Benzylbenzoate,421.15,1,O=C(OCc1ccccc1)c1ccccc1,le15
8791,Pentadecane,405.15,1,CCCCCCCCCCCCCCC,le15
8792,ChloromethylTriethoxySilane,320.15,1,CCO[Si](CCl)(OCC)OCC,le15
8793,AllylPhenylDichloroSilane,349.15,1,C=CC[Si](Cl)(Cl)c1ccccc1,le15
8794,2cyanoethylTriethoxySilane,359.15,1,CCO[Si](CCC#N)(OCC)OCC,le15
8795,1hexenylTrichloroSilane,333.15,1,CCCCC=C[Si](Cl)(Cl)Cl,le15
8796,CyclohexylTrichloroSilane,364.15,1,Cl[Si](Cl)(Cl)C1CCCCC1,le15
8797,2iodotoluene,363.15,1,Cc1ccccc1I,le15
8798,3iodotoluene,355.35,1,Cc1cccc(I)c1,le15
8799,PhenethylMethylDichloroSilane,353.15,1,Cl[SiH](Cl)CCCc1ccccc1,le15
8800,MethylTriacetoxySilane,358.15,1,CC(=O)O[Si](C)(OC(C)=O)OC(C)=O,le15
8801,Nonylphenol,413.75,1,CCCCCCCCCc1ccccc1O,le15
8802,Flavone ,444.25,1,O=c1cc(-c2ccccc2)oc2ccccc12,le15
8803,AminoethylAminopropylTrimethoxySilane,369.15,1,CO[Si](CCCNCCN)(OC)OC,le15
8804,TetramethylDiethoxySiloxane,311.15,1,CCO[Si]([O])OC(C)(C)C(C)C,le15
8805,HexamethylCycloTrisiloxane,305.15,1,C[Si]1(C)O[Si](C)(C)O[Si](C)(C)O1,le15
8806,HeptamethylTrisiloxane,296.15,1,C[SiH](C)O[Si](C)(C)O[Si](C)(C)C,le15
8807,BenzylTrichloroSilane,360.15,1,Cl[Si](Cl)(Cl)Cc1ccccc1,le15
8808,1iodoheptane,352.05,1,CCCCCCCI,le15
8809,Hexadecane,408.15,1,CCCCCCCCCCCCCCCC,le15
8810,4bromobiphenyl,417.05,1,Brc1ccc(-c2ccccc2)cc1,le15
8811,VinylTriacetoxySilane,361.15,1,C=C[Si](OC(C)=O)(OC(C)=O)OC(C)=O,le15
8812,"1,3dibromoBenzene",366.15,1,Brc1cccc(Br)c1,le15
8813,OctamethylTrisiloxane,303.15,1,C[Si](C)(C)O[Si](C)(C)O[Si](C)(C)C,le15
8814,PhenethylTrichloroSilane,364.15,1,Cl[Si](Cl)(Cl)CCc1ccccc1,le15
8815,PhenylTriethoxySilane,369.15,1,CCO[Si](OCC)(OCC)c1ccccc1,le15
8816,Heptadecane,421.15,1,CCCCCCCCCCCCCCCCC,le15
8817,3chloropropylTriethoxySilane,335.15,1,CCO[Si](CCCCl)(OCC)OCC,le15
8818,2bromoethyltrichlorosilane,313.15,1,Cl[Si](Cl)(Cl)CCBr,le15
8819,3bromopropylTrimethoxySilane,355.15,1,CO[Si](CCCBr)(OC)OC,le15
8820,Diallylphthalate,438.75,1,C=CCOC(=O)c1ccccc1C(=O)OCC=C,le15
8821,HexaethylDisiloxane,349.15,1,CC[Si](CC)(CC)O[Si](CC)(CC)CC,le15
8822,Bromopentafluorobenzene,360.15,1,Fc1c(F)c(F)c(Br)c(F)c1F,le15
8823,3methacryloxyPropylTrimethoxySilane,365.15,1,C=C(C)C(=O)OCCC[Si](OC)(OC)OC,le15
8824,Octadecane,438.15,1,CCCCCCCCCCCCCCCCCC,le15
8825,3bromopropyltrichlorosilane,361.15,1,Cl[Si](Cl)(Cl)CCCBr,le15
8826,TrisTrimethylSiloxyMethylSilane,336.15,1,C[Si](C)(C)OC([SiH3])(O[Si](C)(C)C)O[Si](C)(C)C,le15
8827,Nonadecane,439.15,1,CCCCCCCCCCCCCCCCCCC,le15
8828,methyl-,350.95,1,[CH3],le15
8829,StearicAcid,469.0,1,CCCCCCCCCCCCCCCCCC(=O)O,le15
8830,OctamethylCyclotetrasilazane,339.15,1,C[Si]1(C)N[Si](C)(C)N[Si](C)(C)N[Si](C)(C)N1,le15
8831,OctamethylCyclotetrasiloxane,330.15,1,C[Si]1(C)O[Si](C)(C)O[Si](C)(C)O[Si](C)(C)O1,le15
8832,PropylTrisdimethylsiloxySilane,323.15,1,CCC[Si](O[SiH](C)C)(O[SiH](C)C)O[SiH](C)C,le15
8833,DecamethylTetraSiloxane,335.15,1,C[Si](C)(C)O[Si](C)(C)O[Si](C)(C)O[Si](C)(C)C,le15
8834,Dibutylsebacate,440.0,1,CCCCOC(=O)CCCCCCCCC(=O)OCCCC,le15
8835,"1,2dibromoethyltrichlorosilane",338.15,1,Cl[Si](Cl)(Cl)C(Br)CBr,le15
8836,TetrakisDimethylsiloxySilane,340.15,1,C[SiH](C)O[Si](O[SiH](C)C)(O[SiH](C)C)O[SiH](C)C,le15
8837,1chlorononamethylTetrasiloxane,347.15,1,C[Si](C)(C)O[Si](C)(C)O[Si](C)(C)O[Si](C)(C)Cl,le15
8838,Cyclohexyl ,488.05,1,[CH]1CCCCC1,le15
8839,DecamethylCyclopentasiloxane,350.15,1,C[Si]1(C)O[Si](C)(C)O[Si](C)(C)O[Si](C)(C)O[Si](C)(C)O1,le15
8840,DodecamethylPentasiloxane,352.15,1,C[Si](C)(C)O[Si](C)(C)O[Si](C)(C)O[Si](C)(C)O[Si](C)(C)C,le15
8841,Ethyl ,545.25,1,[CH2]C,le15
8842,DodecamethylCyclohexasiloxane,366.15,1,C[Si]1(C)O[Si](C)(C)O[Si](C)(C)O[Si](C)(C)O[Si](C)(C)O[Si](C)(C)O1,le15