,compound,flashpoint,pure substance,smiles,source
7777,Cyclopropanecarbonitrile,305.95,1,N#CC1CC1,le15
7778,DecamethylCyclopentasiloxane,350.15,1,C[Si]1(C)O[Si](C)(C)O[Si](C)(C)O[Si](C)(C)O[Si](C)(C)O1,le15
7779,DecamethylTetraSiloxane,335.15,1,C[Si](C)(C)O[Si](C)(C)O[Si](C)(C)O[Si](C)(C)C,le15
7780,Decane,321.15,1,CCCCCCCCCC,le15
7781,Decylamine,372.15,1,CCCCCCCCCCN,le15
7782,Diallylphthalate,438.75,1,C=CCOC(=O)c1ccccc1C(=O)OCC=C,le15
7783,DiallylSulfide,319.25,1,C=CCSCC=C,le15
7784,Dibenzylether,408.15,1,c1ccc(COCc2ccccc2)cc1,le15
7785,Dibutoxymethane,333.15,1,CCCCOCOCCCC,le15
7786,Dibutylamine,313.15,1,CCCCNCCCC,le15
7787,Dibutyldisulfide,366.45,1,CCCCSSCCCC,le15
7788,Dibutylether,298.15,1,CCCCOCCCC,le15
7789,Dibutylsebacate,440.0,1,CCCCOC(=O)CCCCCCCCC(=O)OCCCC,le15
7790,Dibutylsulfide,349.85,1,CCCCSCCCC,le15
7791,Dibutylsulfone,416.15,1,CCCCS(=O)(=O)CCCC,le15
7792,DichloroAcetaldehyde,333.15,1,O=CC(Cl)Cl,le15
7793,Dichloroacetylchloride,339.25,1,O=C(Cl)C(Cl)Cl,le15
7794,DichloromethylBenzene,353.15,1,ClC(Cl)c1ccccc1,le15
7795,DichloromethylMethylDichloroSilane,301.15,1,C[Si](Cl)(Cl)C(Cl)Cl,le15
7796,DichloroSilane-,236.15,1,Cl[SiH2]Cl,le15
7797,Diethylamine,250.15,1,CCNCC,le15
7798,DiethylaminoTrimethylSilane,283.15,1,CCN(CC)[Si](C)(C)C,le15
7799,DiethylDichloroSilane,300.15,1,CC[Si](Cl)(Cl)CC,le15
7800,DiethylDiethoxySilane,316.15,1,CCO[Si](CC)(CC)OCC,le15
7801,DiethyleneGlycol,397.15,1,OCCOCCO,le15
7802,Diethylenetriamine,371.15,1,NCCNCCN,le15
7803,Diethylether,228.15,1,CCOCC,le15
7804,DiethylMethylChloroSilane,288.15,1,CC[Si](C)(Cl)CC,le15
7805,DiethylPhosphate,364.15,1,CCOP(=O)([O-])OCC,le15
7806,DiethylSilane-,253.15,1,CC[SiH2]CC,le15
7807,Diethylsulfide,263.75,1,CCSCC,le15
7808,Dihexylether,350.15,1,CCCCCCOCCCCCC,le15
7809,Diisobutylamine,302.15,1,CC(C)CNCC(C)C,le15
7810,Diisopropylamine,272.15,1,CC(C)NC(C)C,le15
7811,DiisopropylaminoTrimethylSilane,301.15,1,CC(C)N(C(C)C)[Si](C)(C)C,le15
7812,Dimethoxymethane,255.0,1,COCOC,le15
7813,DimethylChloroSilane-,248.15,1,C[SiH](C)Cl,le15
7814,DimethylDiacetoxySilane,310.15,1,CC(=O)O[Si](C)(C)OC(C)=O,le15
7815,Dimethyldichlorosilane-,263.15,1,C[Si](C)(Cl)Cl,le15
7816,DimethylDiethoxySilane,284.15,1,CCO[Si](C)(C)OCC,le15
7817,DimethylDimethoxySilane-,265.15,1,CO[Si](C)(C)OC,le15
7818,Dimethylether,232.15,1,COC,le15
7819,DimethylolUrea,505.15,1,O=C(NCO)NCO,le15
7820,Dimethylsulfide,237.15,1,CSC,le15
7821,DimethylVinylChloroSilane-,268.15,1,CC(C)=C[SiH2]Cl,le15
7822,Dipentylamine,324.15,1,CCCCCNCCCCC,le15
7823,Diphenylamine,425.95,1,c1ccc(Nc2ccccc2)cc1,le15
7824,Diphenylether,388.15,1,c1ccc(Oc2ccccc2)cc1,le15
7825,DiphenylSilane,371.15,1,c1ccc([SiH2]c2ccccc2)cc1,le15
7826,Dipropylamine,290.15,1,CCCNCCC,le15
7827,Dipropylether,294.25,1,CCCOCCC,le15
7828,DipropylSulfone,399.15,1,CCCS(=O)(=O)CCC,le15
7829,Ditertbutylsulfide,321.15,1,CC(C)(C)SC(C)(C)C,le15
7830,DivinylDimethylSilane,281.15,1,C=C[Si](C)(C)C=C,le15
7831,DodecamethylCyclohexasiloxane,366.15,1,C[Si]1(C)O[Si](C)(C)O[Si](C)(C)O[Si](C)(C)O[Si](C)(C)O[Si](C)(C)O1,le15
7832,DodecamethylPentasiloxane,352.15,1,C[Si](C)(C)O[Si](C)(C)O[Si](C)(C)O[Si](C)(C)O[Si](C)(C)C,le15
7833,Dodecane,344.15,1,CCCCCCCCCCCC,le15
7834,Ethanethiol,256.15,1,CCS,le15
7835,ethanol,286.15,1,CCO,le15
7836,EthenylBenzene,305.15,1,C=Cc1ccccc1,le15
7837,EthoxyBenzene,325.15,1,CCOc1ccccc1,le15
7838,EthoxymethylBenzene,332.15,1,CCOCc1ccccc1,le15
7839,EthoxyTrimethylSilane-,246.15,1,CCO[Si](C)(C)C,le15
7840,Ethyl2trimethylsilylAcetate,308.15,1,CCOC(=O)C[Si](C)(C)C,le15
7841,Ethylacetate,270.15,1,CCOC(C)=O,le15
7842,Ethylacetoacetate,330.35,1,CCOC(=O)CC(C)=O,le15
7843,Ethylacetylglycolate,355.15,1,CCCC(=O)C(O)C(=O)[O-],le15
7844,Ethylacrylate,288.75,1,C=CC(=O)OCC,le15
7845,Ethylbenzene,288.15,1,CCc1ccccc1,le15
7846,Ethylbenzoate,361.15,1,CCOC(=O)c1ccccc1,le15
7847,Ethylbromoacetate,320.95,1,CCOC(=O)CBr,le15
7848,Ethylbutyrate,297.15,1,CCCC(=O)OCC,le15
7849,Ethylchloride,230.15,1,CCCl,le15
7850,EthylChloroformate,289.15,1,CCOC(=O)Cl,le15
7851,ethylcrotonate,275.35,1,C/C=C/C(=O)OCC,le15
7852,Ethylcyanoacetate,383.15,1,CCOC(=O)CC#N,le15
7853,ethylcyclohexane,308.15,1,CCC1CCCCC1,le15
7854,Ethyldichlorosilane-,264.15,1,CC[SiH](Cl)Cl,le15
7855,EthylDimethylChloroSilane-,269.15,1,CC[Si](C)(C)Cl,le15
7856,EthylDimethylSilane-,248.15,1,CC[SiH](C)C,le15
7857,Ethylformate,253.15,1,CCOC=O,le15
7858,EthylIsobutyrate,286.0,1,CCOC(=O)C(C)C,le15
7859,Ethyllactate,319.15,1,CCOC(=O)C(C)O,le15
7860,Ethylmethyldichlorosilane,275.15,1,CC[Si](C)(Cl)Cl,le15
7861,Ethylmethylether,235.95,1,CCOC,le15
7862,Ethylnitrate,283.15,1,CCO[N+](=O)[O-],le15
7863,Ethylpropionate,285.15,1,CCOC(=O)CC,le15
7864,EthylSilane-,213.15,1,CC[SiH3],le15
7865,Ethyltrichlorosilane,300.15,1,CC[Si](Cl)(Cl)Cl,le15
7866,EthylTriethoxySilane,313.15,1,CCO[Si](CC)(OCC)OCC,le15
7867,EthylTrimethoxySilane,300.15,1,CC[Si](OC)(OC)OC,le15
7868,EthylTrimethylSilane,300.15,1,CC[Si](C)(C)C,le15
7869,Ethylvinylether,255.15,1,C=COCC,le15
7870,Ethynylbenzene,304.15,1,C#Cc1ccccc1,le15
7871,Fluorobenzene,258.15,1,Fc1ccccc1,le15
7872,Furfurylacetate,358.15,1,O=C([O-])CCc1ccco1,le15
7873,Heptadecane,421.15,1,CCCCCCCCCCCCCCCCC,le15
7874,HeptamethylDisilazane,300.15,1,CN([Si](C)(C)C)[Si](C)(C)C,le15
7875,HeptamethylTrisiloxane,296.15,1,C[SiH](C)O[Si](C)(C)O[Si](C)(C)C,le15
7876,Heptane,272.15,1,CCCCCCC,le15
7877,Heptanoicacid,385.15,1,CCCCCCC(=O)O,le15
7878,HeptylAcetate,340.15,1,CCCCCCCOC(C)=O,le15
7879,Hexadecane,408.15,1,CCCCCCCCCCCCCCCC,le15
7880,HexaethylDisiloxane,349.15,1,CC[Si](CC)(CC)O[Si](CC)(CC)CC,le15
7881,HexafluoroBenzene,283.15,1,Fc1c(F)c(F)c(F)c(F)c1F,le15
7882,HexamethylCycloTrisiloxane,305.15,1,C[Si]1(C)O[Si](C)(C)O[Si](C)(C)O1,le15
7883,HexamethylDisilane-,272.15,1,C[Si](C)(C)[Si](C)(C)C,le15
7884,HexamethylDisilaThiane,299.15,1,C[Si](C)(C)S[Si](C)(C)C,le15
7885,HexamethylDisilazane,281.15,1,C[Si](C)(C)N[Si](C)(C)C,le15
7886,Hexamethyleneimine,291.0,1,C1CCCNCC1,le15
7887,HexamethylTrisiloxane,293.15,1,C[Si](C)(C)O[SiH2]O[Si](C)(C)C,le15
7888,hexane,250.15,1,CCCCCC,le15
7889,Hexanenitrile,316.15,1,CCCCCC#N,le15
7890,Hexanoicacid,377.15,1,CCCCCC(=O)O,le15
7891,Hexylacetate,318.15,1,CCCCCCOC(C)=O,le15
7892,Hexylamine,282.05,1,CCCCCCN,le15
7893,Hexylbenzene,353.15,1,CCCCCCc1ccccc1,le15
7894,HexylDichloroSilane,337.15,1,CCCCCC[SiH](Cl)Cl,le15
7895,HexylSilane,285.15,1,CCCCCC[SiH3],le15
7896,HexylTrifluoroSilane-,266.15,1,CCCCCC[Si](F)(F)F,le15
7897,HexylTrimethoxySilane,335.15,1,CCCCCC[Si](OC)(OC)OC,le15
7898,hydroxyacetaldehyde,360.15,1,O=CCO,le15
7899,Iodobenzene,347.15,1,Ic1ccccc1,le15
7900,Isobutenal,273.0,1,C=C(C)C=O,le15
7901,Isobutylacetate,291.15,1,CC(=O)OCC(C)C,le15
7902,Isobutylalcohol,301.15,1,CC(C)CO,le15
7903,Isobutylamine,264.15,1,CC(C)CN,le15
7904,Isobutylbenzene,328.15,1,CC(C)Cc1ccccc1,le15
7905,IsobutylButyrate,323.15,1,CCCC(=O)OCC(C)C,le15
7906,Isobutylformate,283.0,1,CC(C)COC=O,le15
7907,Isobutylisobutyrate,313.0,1,CC(C)COC(=O)C(C)C,le15
7908,IsobutylTrichloroSilane,310.15,1,CC(C)C[Si](Cl)(Cl)Cl,le15
7909,IsobutylTrimethoxySilane,315.15,1,CO[Si](CC(C)C)(OC)OC,le15
7910,Isobutylvinylether,264.15,1,C=COCC(C)C,le15
7911,Isobutyraldehyde,254.85,1,CC(C)C=O,le15
7912,Isobutyricacid,328.75,1,CC(C)C(=O)O,le15
7913,Isobutyronitrile,281.0,1,CC(C)C#N,le15
7914,Isocyanatobenzene,324.15,1,O=C=Nc1ccccc1,le15
7915,Isopentylacetate,298.15,1,CC(=O)OCCC(C)C,le15
7916,Isopentylalcohol,316.15,1,CC(C)CCO,le15
7917,Isopentylbutyrate,332.15,1,CCCC(=O)OCCC(C)C,le15
7918,Isoprene,219.15,1,C=CC(=C)C,le15
7919,IsopropenylAcetate,288.75,1,C=C(C)CC(=O)[O-],le15
7920,Isopropylacetate,275.15,1,CC(=O)OC(C)C,le15
7921,Isopropylamine,256.15,1,CC(C)N,le15
7922,Isopropylbenzoate,372.05,1,CC(C)OC(=O)c1ccccc1,le15
7923,Isopropylchloride,241.15,1,CC(C)Cl,le15
7924,Isopropylether,244.0,1,CC(C)OC(C)C,le15
7925,Isopropylformate,267.15,1,CC(C)OC=O,le15
7926,IsopropylVinylether,241.15,1,C=COC(C)C,le15
7927,IsovalericAcid,343.0,1,CC(C)CC(=O)O,le15
7928,Mesitylene,317.0,1,Cc1cc(C)cc(C)c1,le15
7929,Methacrolein,258.15,1,C=C(C)C=O,le15
7930,MethacryloxymethylTrimethylSilane,318.15,1,C=C(C)C(=O)OC[Si](C)(C)C,le15
7931,Methanol,284.15,1,CO,le15
7932,Methoxybenzene,324.15,1,COc1ccccc1,le15
7933,MethoxyTrimethylSilane-,243.15,1,CO[Si](C)(C)C,le15
7934,Methyl2propenoat-,270.15,1,C=CC(=O)OC,le15
7935,methylacetate,263.15,1,COC(C)=O,le15
7936,Methylacrylate,279.15,1,C=CC(=O)OC,le15
7937,Methylbenzene,277.15,1,Cc1ccccc1,le15
7938,Methylbenzoate,356.15,1,COC(=O)c1ccccc1,le15
7939,Methylbutyrate,287.15,1,CCCC(=O)OC,le15
7940,methylcyclohexane,269.15,1,CC1CCCCC1,le15
7941,MethyldichloroSilane-,241.15,1,C[SiH](Cl)Cl,le15
7942,Methylformate,254.15,1,COC=O,le15
7943,MethylIsocyanate,255.15,1,CN=C=O,le15
7944,MethylIsopropenylKetone,286.0,1,C=C(C)C(C)=O,le15
7945,Methylisothiocyanate,305.35,1,CN=C=S,le15
7946,Methylpropionate,271.15,1,CCC(=O)OC,le15
7947,methylpropylether,253.15,1,CCCOC,le15
7948,Methylsalicylate,369.15,1,COc1ccccc1C(=O)[O-],le15
7949,methylsecbutylether,243.0,1,CCC(C)OC,le15
7950,MethylthioBenzene,342.15,1,CSc1ccccc1,le15
7951,MethylTriacetoxySilane,358.15,1,CC(=O)O[Si](C)(OC(C)=O)OC(C)=O,le15
7952,Methyltrichlorosilane,276.15,1,C[Si](Cl)(Cl)Cl,le15
7953,MethylTriethoxySilane,297.15,1,CCO[Si](C)(OCC)OCC,le15
7954,MethylVinylDimethoxySilane,277.15,1,CC=C[SiH](OC)OC,le15
7955,Methylvinylketone,266.15,1,C=CC(C)=O,le15
7956,Nitrobenzene,360.95,1,O=[N+]([O-])c1ccccc1,le15
7957,Nitroethane,301.15,1,CC[N+](=O)[O-],le15
7958,Nonadecane,439.15,1,CCCCCCCCCCCCCCCCCCC,le15
7959,Nonane,304.15,1,CCCCCCCCC,le15
7960,NonylAcetate,372.15,1,CCCCCCCCCOC(C)=O,le15
7961,Nonylbenzene,372.15,1,CCCCCCCCCc1ccccc1,le15
7962,Nonylphenol,413.75,1,CCCCCCCCCc1ccccc1O,le15
7963,Octadecane,438.15,1,CCCCCCCCCCCCCCCCCC,le15
7964,OctamethylCyclotetrasilazane,339.15,1,C[Si]1(C)N[Si](C)(C)N[Si](C)(C)N[Si](C)(C)N1,le15
7965,OctamethylCyclotetrasiloxane,330.15,1,C[Si]1(C)O[Si](C)(C)O[Si](C)(C)O[Si](C)(C)O1,le15
7966,OctamethylTrisiloxane,303.15,1,C[Si](C)(C)O[Si](C)(C)O[Si](C)(C)C,le15
7967,Octane,288.15,1,CCCCCCCC,le15
7968,OctanoicAcid,254.15,1,CCCCCCCC(=O)O,le15
7969,Octanoylchloride,355.15,1,CCCCCCCC(=O)Cl,le15
7970,OctylAcetate,359.15,1,CCCCCCCCOC(C)=O,le15
7971,Pentadecane,405.15,1,CCCCCCCCCCCCCCC,le15
7972,Pentane,224.15,1,CCCCC,le15
7973,Pentanenitrile,313.75,1,CCCCC#N,le15
7974,PentanoicAcid,361.15,1,CCCCC(=O)O,le15
7975,PentylAcetate,297.05,1,CCCCCOC(C)=O,le15
7976,Pentylbenzene,338.15,1,CCCCCc1ccccc1,le15
7977,Pentylformate,299.85,1,CCCCCOC=O,le15
7978,Pentylsalicylate,405.15,1,CCCCCOc1ccccc1C(=O)[O-],le15
7979,PhenacylChloride,391.15,1,O=C(CCl)c1ccccc1,le15
7980,PhenethylDimethylChloroSilane,343.15,1,C[Si](C)(Cl)CCc1ccccc1,le15
7981,PhenethylMethylDichloroSilane,353.15,1,Cl[SiH](Cl)CCCc1ccccc1,le15
7982,PhenethylTrichloroSilane,364.15,1,Cl[Si](Cl)(Cl)CCc1ccccc1,le15
7983,Phenetole,335.95,1,CCOc1ccccc1,le15
7984,Phenol,352.15,1,Oc1ccccc1,le15
7985,PhenylAcetate,353.15,1,O=C([O-])Cc1ccccc1,le15
7986,PhenylDichloroSilane,321.15,1,Cl[SiH](Cl)c1ccccc1,le15
7987,PhenylDimethylAcetoxySilane,345.15,1,CC(C)C(=O)O[SiH2]c1ccccc1,le15
7988,PhenylDimethylChloroSilane,334.15,1,C[Si](C)(Cl)c1ccccc1,le15
7989,PhenylDimethylSilane,311.15,1,C[SiH](C)c1ccccc1,le15
7990,PhenylEthylDichloroSilane,365.15,1,Cl[SiH](Cl)CCc1ccccc1,le15
7991,PhenylIsothiocyanate,360.95,1,S=C=Nc1ccccc1,le15
7992,Phenylmethanethiol,343.15,1,SCc1ccccc1,le15
7993,PhenylmethylAcetate,363.15,1,CC(=O)OCc1ccccc1,le15
7994,PhenylMethylChloroSilane,335.15,1,Cl[SiH2]Cc1ccccc1,le15
7995,PhenylMethylDichloroSilane,355.15,1,Cl[SiH](Cl)Cc1ccccc1,le15
7996,PhenylMethylDiethoxySilane,362.15,1,CCO[SiH](Cc1ccccc1)OCC,le15
7997,PhenylMethylSilane,298.15,1,[SiH3]Cc1ccccc1,le15
7998,PhenylSilane,281.15,1,[SiH3]c1ccccc1,le15
7999,PhenylTrichloroSilane,364.15,1,Cl[Si](Cl)(Cl)c1ccccc1,le15
8000,PhenylTriethoxySilane,369.15,1,CCO[Si](OCC)(OCC)c1ccccc1,le15
8001,PhenylTrifluoroSilane-,283.15,1,F[Si](F)(F)c1ccccc1,le15
8002,PhenylTrimethoxySilane,359.15,1,CO[Si](OC)(OC)c1ccccc1,le15
8003,Piperidine,289.15,1,C1CCNCC1,le15
8004,PropanoicAcid,324.15,1,CCC(=O)O,le15
8005,PropargyloxytrimethylSilane,300.15,1,C#CCO[Si](C)(C)C,le15
8006,Propionaldehyde,243.15,1,CCC=O,le15
8007,Propionitrile,275.15,1,CCC#N,le15
8008,Propionylchloride,285.15,1,CCC(=O)Cl,le15
8009,Propyl2propenoat,293.15,1,C=CC(=O)OCCC,le15
8010,Propylacetate,285.15,1,CCCOC(C)=O,le15
8011,Propylbenzene,320.15,1,CCCc1ccccc1,le15
8012,Propylbutyrate,310.15,1,CCCOC(=O)CCC,le15
8013,Propylformate,270.15,1,CCCOC=O,le15
8014,Propylnitrate,293.15,1,CCCO[N+](=O)[O-],le15
8015,PropylTrisdimethylsiloxySilane,323.15,1,CCC[Si](O[SiH](C)C)(O[SiH](C)C)O[SiH](C)C,le15
8016,Pyridine,293.15,1,c1ccncc1,le15
8017,Pyrrolidine,275.95,1,C1CCNC1,le15
8018,Quinoline,365.15,1,c1ccc2ncccc2c1,le15
8019,Salicylaldehyde,350.95,1,O=Cc1ccccc1O,le15
8020,secAmylTrichloroSilane,303.15,1,CCCC(C)[Si](Cl)(Cl)Cl,le15
8021,secButylbenzene,325.15,1,CCC(C)c1ccccc1,le15
8022,StearicAcid,469.0,1,CCCCCCCCCCCCCCCCCC(=O)O,le15
8023,Styrene,305.15,1,C=Cc1ccccc1,le15
8024,Succinonitrile,405.35,1,N#CCCC#N,le15
8025,tertbutylbenzene,317.0,1,CC(C)(C)c1ccccc1,le15
8026,tertbutylmethylether,245.0,1,COC(C)(C)C,le15
8027,Tetradecane,373.15,1,CCCCCCCCCCCCCC,le15
8028,TetraethoxySilane,323.15,1,CCO[Si](OCC)(OCC)OCC,le15
8029,Tetrahydro2furanmethanol,343.15,1,OCC1CCCO1,le15
8030,Tetrahydrofuran,259.15,1,C1CCOC1,le15
8031,Tetrahydropyran,253.15,1,C1CCOCC1,le15
8032,TetraisocyanatoSilane,323.15,1,O=C=N[Si](N=C=O)(N=C=O)N=C=O,le15
8033,TetrakisDimethylsiloxySilane,340.15,1,C[SiH](C)O[Si](O[SiH](C)C)(O[SiH](C)C)O[SiH](C)C,le15
8034,Tetralin,344.15,1,c1ccc2c(c1)CCCC2,le15
8035,TetramethoxySilane,294.15,1,CO[Si](OC)(OC)OC,le15
8036,TetramethylDiethoxySiloxane,311.15,1,CCO[Si]([O])OC(C)(C)C(C)C,le15
8037,TetramethylDivinylDisiloxane,292.15,1,C=C[Si](C)(C=C)O[Si](C)(C)C,le15
8038,TetramethylSilane-,245.15,1,C[Si](C)(C)C,le15
8039,TetravinylSilane,291.15,1,C=C[Si](C=C)(C=C)C=C,le15
8040,Thiophene,272.05,1,c1ccsc1,le15
8041,Thiophenol,323.75,1,Sc1ccccc1,le15
8042,Toluene,277.15,1,Cc1ccccc1,le15
8043,trans2buten1ol,305.95,1,C/C=C/CO,le15
8044,TrichloroAcetaldehyde,323.15,1,O=CC(Cl)(Cl)Cl,le15
8045,trichloromethylBenzene,354.15,1,ClC(Cl)(Cl)c1ccccc1,le15
8046,TrichloroSilane-,245.15,1,Cl[SiH](Cl)Cl,le15
8047,Tridecane,352.15,1,CCCCCCCCCCCCC,le15
8048,TriethoxyChloroSilane,320.15,1,CCO[Si](Cl)(OCC)OCC,le15
8049,TriethoxySilane,299.15,1,CCO[SiH](OCC)OCC,le15
8050,TriethylAcetoxySilane,314.15,1,CCC(CC)(CC)C(=O)O[SiH3],le15
8051,TriethylChloroSilane,303.15,1,CC[Si](Cl)(CC)CC,le15
8052,Triethylenetetramine,408.15,1,NCCNCCNCCN,le15
8053,Triethylorthoformate,303.15,1,CCOC(OCC)OCC,le15
8054,TriethylSilane-,271.15,1,CC[SiH](CC)CC,le15
8055,TrifluoroAceticAcid,344.15,1,O=C(O)C(F)(F)F,le15
8056,TrifluoromethylBenzene,285.15,1,FC(F)(F)c1ccccc1,le15
8057,TriisopropylSilane,310.15,1,CC(C)[SiH](C(C)C)C(C)C,le15
8058,Trimethoxychlorosilane,295.15,1,CO[Si](Cl)(OC)OC,le15
8059,TrimethylBromoSilane-,270.15,1,C[Si](C)(C)Br,le15
8060,Trimethylchlorosilane-,246.15,1,C[Si](C)(C)Cl,le15
8061,TrimethylFluoroSilane-,238.15,1,C[Si](C)(C)F,le15
8062,TrimethylPhenylSilane,313.15,1,C[Si](C)(C)c1ccccc1,le15
8063,TrimethylSilane-,204.15,1,C[SiH](C)C,le15
8064,TrimethylSilylIsothiocyanate,308.15,1,C[Si](C)(C)N=C=S,le15
8065,TrimethylsilylTrifluoroacetate,273.15,1,C[Si](C)(C)OC(=O)C(F)(F)F,le15
8066,TrimethylVinylSilane-,239.15,1,CC(C)=C(C)[SiH3],le15
8067,TripropylAmine,302.15,1,CCCN(CCC)CCC,le15
8068,TrisdimethylaminoSilane,298.15,1,CN(C)[SiH](N(C)C)N(C)C,le15
8069,TrisTrimethylSiloxyMethylSilane,336.15,1,C[Si](C)(C)OC([SiH3])(O[Si](C)(C)C)O[Si](C)(C)C,le15
8070,TrivinylMethylSilane,288.15,1,C=CC([SiH3])(C=C)C=C,le15
8071,Undecane,333.15,1,CCCCCCCCCCC,le15
8072,Valeraldehyde,285.0,1,CCCCC=O,le15
8073,Valeronitrile,313.0,1,CCCCC#N,le15
8074,Vinylacetate,265.15,1,C=CCC(=O)[O-],le15
8075,VinylDiethylMethylSilane,288.15,1,C=C[Si](C)(CC)CC,le15
8076,VinylDimethylEthoxySilane,277.15,1,C=C[Si](C)(C)OCC,le15
8077,Vinylmethyldichlorosilane,277.15,1,C=CC[SiH](Cl)Cl,le15
8078,VinylMethylDiethoxySilane,289.15,1,C=CC[SiH](OCC)OCC,le15
8079,VinylPentamethylDisiloxane,285.15,1,C=C[Si](C)(C)O[Si](C)(C)C,le15
8080,VinylTriacetoxySilane,361.15,1,C=C[Si](OC(C)=O)(OC(C)=O)OC(C)=O,le15
8081,Vinyltrichlorosilane,288.65,1,C=C[Si](Cl)(Cl)Cl,le15
8082,VinylTriethoxySilane,312.15,1,C=C[Si](OCC)(OCC)OCC,le15
8083,VinylTriethylSilane,302.15,1,C=C[Si](CC)(CC)CC,le15
8084,VinylTrimethoxySilane,296.15,1,C=C[Si](OC)(OC)OC,le15
8085,VinylTrimethylSilane-,253.15,1,C=C[Si](C)(C)C,le15
8086,"1,2propadiene",172.0,1,C=C=C,le15
8087,Aziridine,262.05,1,C1CN1,le15
8088,Acetaldehyde,246.15,1,CC=O,le15
8089,Dimethylether,232.15,1,COC,le15
8090,ethanol,286.15,1,CCO,le15
8091,2propenenitrile,273.15,1,C=CC#N,le15
8092,"1,3butadiene",197.0,1,C=CC=C,le15
8093,1butyne-,210.15,1,C#CCC,le15
8094,2butyne-,224.15,1,CC#CC,le15
8095,2propenal,254.25,1,C=CC=O,le15
8096,MethylIsocyanate,255.15,1,CN=C=O,le15
8097,2methylaziridine-,263.15,1,CC1CN1,le15
8098,Allylamine,244.15,1,C=CCN,le15
8099,Acetone,253.15,1,CC(C)=O,le15
8100,Allylalcohol,294.15,1,C=CCO,le15
8101,Propionaldehyde,243.15,1,CCC=O,le15
8102,Isopropylamine,256.15,1,CC(C)N,le15
8103,Aceticacid,312.15,1,CC(=O)O,le15
8104,hydroxyacetaldehyde,360.15,1,O=CCO,le15
8105,Methylformate,254.15,1,COC=O,le15
8106,2propanol,285.15,1,CC(C)O,le15
8107,Ethylmethylether,235.95,1,CCOC,le15
8108,"1,2ethanediamine",307.0,1,NCCN,le15
8109,EthylSilane-,213.15,1,CC[SiH3],le15
8110,"1,2ethanediol",384.0,1,OCCO,le15
8111,Dimethylsulfide,237.15,1,CSC,le15
8112,Ethanethiol,256.15,1,CCS,le15
8113,Ethylchloride,230.15,1,CCCl,le15
8114,"1,3cyclopentadiene",298.0,1,C1=CCC=C1,le15
8115,1pentene3yne-,243.15,1,C=CC#CC,le15
8116,1pentene4yne-,229.15,1,C#CCC=C,le15
8117,2methyl1butene3yne-,221.15,1,C#CC(=C)C,le15
8118,3butenenitrile,294.15,1,C=CCC#N,le15
8119,Cyclopropanecarbonitrile,305.95,1,N#CC1CC1,le15
8120,1Hpyrazole,355.15,1,c1cn[nH]c1,le15
8121,"1,2pentadiene-",233.15,1,C=C=CCC,le15
8122,"1,3pentadiene-",231.15,1,C=CC=CC,le15
8123,"1,4pentadiene",277.0,1,C=CCC=C,le15
8124,"2,3pentadiene-",236.15,1,CC=C=CC,le15
8125,3methyl1butyne-,221.15,1,C#CC(C)C,le15
8126,Isoprene,219.15,1,C=CC(=C)C,le15
8127,Butyronitrile,289.85,1,CCCC#N,le15
8128,Isobutyronitrile,281.0,1,CC(C)C#N,le15
8129,"2,3dihydrofuran",249.0,1,C1=COCC1,le15
8130,"2,5dihydrofuran-",257.15,1,C1=CCOC1,le15
8131,Crotonaldehyde,286.15,1,C/C=C/C=O,le15
8132,Isobutenal,273.0,1,C=C(C)C=O,le15
8133,Methacrolein,258.15,1,C=C(C)C=O,le15
8134,Methylvinylketone,266.15,1,C=CC(C)=O,le15
8135,2pentene-,226.15,1,CC=CCC,le15
8136,Cyclopentane,236.15,1,C1CCCC1,le15
8137,Pyrrolidine,275.95,1,C1CCNC1,le15
8138,"2,3dimethyloxirane",258.15,1,CC1OC1C,le15
8139,2butanone,264.15,1,CCC(C)=O,le15
8140,2methyl2propen1ol,306.45,1,C=C(C)CO,le15
8141,3buten1ol,310.95,1,C=CCCO,le15
8142,Butyraldehyde,266.45,1,CCCC=O,le15
8143,Ethylvinylether,255.15,1,C=COCC,le15
8144,Isobutyraldehyde,254.85,1,CC(C)C=O,le15
8145,Tetrahydrofuran,259.15,1,C1CCOC1,le15
8146,trans2buten1ol,305.95,1,C/C=C/CO,le15
8147,"2,2dimethylpropane",208.0,1,CC(C)(C)C,le15
8148,Pentane,224.15,1,CCCCC,le15
8149,Methylisothiocyanate,305.35,1,CN=C=S,le15
8150,Butylamine,272.15,1,CCCCN,le15
8151,Diethylamine,250.15,1,CCNCC,le15
8152,Isobutylamine,264.15,1,CC(C)CN,le15
8153,"1,3dioxolane",275.0,1,C1COCO1,le15
8154,Ethylformate,253.15,1,CCOC=O,le15
8155,methylacetate,263.15,1,COC(C)=O,le15
8156,PropanoicAcid,324.15,1,CCC(=O)O,le15
8157,2butanol,297.15,1,CCC(C)O,le15
8158,4butylalcohol,284.15,1,CCCCO,le15
8159,Diethylether,228.15,1,CCOCC,le15
8160,Isobutylalcohol,301.15,1,CC(C)CO,le15
8161,methylpropylether,253.15,1,CCCOC,le15
8162,"1,2propanediamine",306.0,1,CC(N)CN,le15
8163,"1,3propanediamine",321.0,1,NCCCN,le15
8164,TrimethylSilane-,204.15,1,C[SiH](C)C,le15
8165,Glycine ,372.666,1,NCC(=O)O,le15
8166,Nitroethane,301.15,1,CC[N+](=O)[O-],le15
8167,1amino2propanol,350.35,1,CC(O)CN,le15
8168,2methylaminoEthanol,347.05,1,CNCCO,le15
8169,3amino1propanol,352.15,1,NCCCO,le15
8170,"1,2propanediol",380.0,1,CC(O)CO,le15
8171,2methoxyethanol,312.15,1,COCCO,le15
8172,Dimethoxymethane,255.0,1,COCOC,le15