,compound,flashpoint,pure substance,smiles,source
1496,5ethylidene2norbornene,311.0,1,CC=C1CC2C=CC1C2,le15
1497,mEthyltoluene,311.0,1,CCc1ccccc1,le15
1498,Ethanedithioamide,379.35,1,NC(=S)C(N)=S,le15
1499,"1,3-Dithiane",363.15,1,C1CSCSC1,le15
1500,"1,4-Dithiane",355.25,1,C1CSCCS1,le15
1501,"Carbonochloridic acid, 2-propenyl ester",361.15,1,C=CCOC(=O)Cl,le15
1502,prop-1-en-2-yl carbonochloridate,289.25,1,C=C(C)OC(=O)Cl,le15
1503,Pentanoyl chloride,305.95,1,CCCCC(=O)Cl,le15
1504,"Oxetane, 3-(chloromethyl)-3-methyl-",316.05,1,CC1(CCl)COC1,le15
1505,2-methylbutanoyl chloride,298.65,1,CCC(C)C(=O)Cl,le15
1506,3-methylbutanoyl chloride,298.65,1,CC(C)CC(=O)Cl,le15
1507,"2,2-dimethylpropanoyl chloride",282.05,1,CC(C)(C)C(=O)Cl,le15
1508,1-chlorohexane,299.15,1,CCCCCCCl,le15
1509,3-chloro-3-methylpentane,282.55,1,CCC(C)(Cl)CC,le15
1510,3-chlorohexane,298.15,1,CCCC(Cl)CC,le15
1511,"1-chloro-3,3-dimethylbutane",292.15,1,CC(C)(C)CCCl,le15
1512,3-(chloromethyl)pentane,298.15,1,CCC(CC)CCl,le15
1513,[(E)-2-chloroethenyl]-dimethylsilicon,269.15,1,C[Si](C)/C=C/Cl,le15
1514,"Methane, dichlorodifluoro-",284.15,1,FC(F)(Cl)Cl,le15
1515,2-bromoprop-1-ene,327.15,1,C=C(C)Br,le15
1516,"1-Propene, 3-bromo-",272.15,1,C=CCBr,le15
1517,"Peroxide, acetyl nitro",357.85,1,CC(=O)OO[N+](=O)[O-],le15
1518,4-fluorobenzonitrile,338.75,1,N#Cc1ccc(F)cc1,le15
1519,3-fluorobenzonitrile,340.15,1,N#Cc1cccc(F)c1,le15
1520,"Ethanone, 1-(3-pyridinyl)-",377.15,1,CC(=O)c1cccnc1,le15
1521,"Benzaldehyde, p-amino- (8CI)",395.14099999999996,1,Nc1ccc(C=O)cc1,le15
1522,"Benzene, 1-methyl-2-nitroso- (9CI)",347.85,1,Cc1ccccc1N=O,le15
1523,"Benzaldehyde, oxime, (Z)-",382.05,1,O/N=C\c1ccccc1,le15
1524,"Ethanone, 1-(4-pyridinyl)-",360.15,1,CC(=O)c1ccncc1,le15
1525,"Ethanone, 1-(2-pyridinyl)-",346.45,1,CC(=O)c1ccccn1,le15
1526,"Formamide, N-phenyl-",423.35,1,O=CNc1ccccc1,le15
1527,L-Cysteine,404.65,1,N[C@@H](CS)C(=O)O,le15
1528,2-phenylethanamine,363.75,1,NCCc1ccccc1,le15
1529,"Benzenamine, 2,3-dimethyl-",369.15,1,Cc1cccc(N)c1C,le15
1530,"Benzenamine, 2,6-dimethyl-",364.15,1,Cc1cccc(C)c1N,le15
1531,"Benzenemethanamine, 2-methyl-",357.05,1,Cc1ccccc1CN,le15
1532,"Benzenamine, 2,4-dimethyl-",363.75,1,Cc1ccc(N)c(C)c1,le15
1533,"Benzenamine, 2,5-dimethyl-",367.05,1,Cc1ccc(C)c(N)c1,le15
1534,(3-methylphenyl)methanamine,353.75,1,Cc1cccc(CN)c1,le15
1535,"Benzenamine, N-ethyl-",358.15,1,CCNc1ccccc1,le15
1536,"Benzylamine, p-methyl- (8CI)",348.15,1,Cc1ccc(CN)cc1,le15
1537,"Benzenamine, 3,5-dimethyl-",366.45,1,Cc1cc(C)cc(N)c1,le15
1538,3-ethyl-4-methylpyridine,343.251,1,CCc1cnccc1C,le15
1539,4-ethyl-2-methylpyridine,330.15,1,CCc1ccnc(C)c1,le15
1540,"Aniline, o-ethyl- (8CI)",358.15,1,CCc1ccccc1N,le15
1541,"o-Toluidine, N-methyl- (8CI)",349.55,1,CNc1ccccc1C,le15
1542,"Benzenemethanamine, alpha-methyl-",348.95300000000003,1,CC(N)c1ccccc1,le15
1543,"m-Toluidine, N-methyl- (8CI)",350.45,1,CNc1cccc(C)c1,le15
1544,"2,4,5-trimethylpyridine",331.05,1,Cc1cc(C)c(C)cn1,le15
1545,2-ethyl-6-methylpyridine,316.55,1,CCc1cccc(C)n1,le15
1546,4-propylpyridine,337.66,1,CCCc1ccncc1,le15
1547,"2,3,6-trimethylpyridine",320.75,1,Cc1ccc(C)c(C)n1,le15
1548,"2,3,4-trimethylpyridine",335.05,1,Cc1ccnc(C)c1C,le15
1549,"Benzenamine, 3,4-dimethyl-",371.45,1,Cc1ccc(N)cc1C,le15
1550,N-methyl-1-phenylmethanamine,350.95,1,CNCc1ccccc1,le15
1551,"Pyridine, 5-ethyl-2-methyl-",339.25,1,CCc1ccc(C)nc1,le15
1552,"Benzenamine, 3-ethyl- (9CI)",358.15,1,CCc1cccc(N)c1,le15
1553,"Aniline, p-ethyl- (8CI)",358.15,1,CCc1ccc(N)cc1,le15
1554,"N,4-dimethylaniline",345.25,1,CNc1ccc(C)cc1,le15
1555,2-propan-2-ylpyridine,296.35,1,CC(C)c1ccccn1,le15
1556,"2,3,5-trimethylpyridine",315.95,1,Cc1cnc(C)c(C)c1,le15
1557,"Benzaldehyde, 2-hydroxy-",349.85,1,O=Cc1ccccc1O,le15
1558,"Benzaldehyde, 4-hydroxy-",374.45,1,O=Cc1ccc(O)cc1,le15
1559,"Benzene, 1,2-methylenedioxy-",328.15,1,c1ccc2c(c1)OCO2,le15
1560,"2,5-Cyclohexadiene-1,4-dione, 2-methyl-",338.05,1,CC1=CC(=O)C=CC1=O,le15
1561,"Benzaldehyde, 3-hydroxy-",371.75,1,O=Cc1cccc(O)c1,le15
1562,"2-Propenal, 3-(2-furanyl)-",361.95,1,O=CC=Cc1ccco1,le15
1563,3-Pyridinecarboxamide,429.15,1,NC(=O)c1cccnc1,le15
1564,"1,2,3,4-Butanetetrol, (2R,3S)-rel-",481.95,1,OC[C@H](O)[C@H](O)CO,le15
1565,"4-Pyridinecarboxaldehyde, oxime",345.25,1,ON=Cc1ccncc1,le15
1566,"2-Pyridinecarboxaldehyde, oxime",346.65,1,ON=Cc1ccccn1,le15
1567,4-Pyridinecarboxamide,429.15,1,NC(=O)c1ccncc1,le15
1568,"1,2-Oxathiolane, 2,2-dioxide",406.931,1,O=S1(=O)CCCO1,le15
1569,Phenethyl alcohol,371.55,1,OCCc1ccccc1,le15
1570,"Benzyl alcohol, o-methyl- (8CI)",377.55,1,Cc1ccccc1CO,le15
1571,"Phenol, 2-ethyl-",351.45,1,CCc1ccccc1O,le15
1572,"Phenol, 3,4-dimethyl-",367.15,1,Cc1ccc(O)cc1C,le15
1573,1-methoxy-3-methylbenzene,327.15,1,COc1cccc(C)c1,le15
1574,"Benzene, 1-methoxy-4-methyl-",326.45,1,COc1ccc(C)cc1,le15
1575,"Ether, benzyl methyl (8CI)",326.15,1,COCc1ccccc1,le15
1576,"Phenol, 2,6-dimethyl-",351.45,1,Cc1cccc(C)c1O,le15
1577,1-methoxy-2-methylbenzene,324.15,1,COc1ccccc1C,le15
1578,"Benzenemethanol, 3-methyl-",378.75,1,Cc1cccc(CO)c1,le15
1579,4-Methyl-benzenemethanol (9CI),378.15,1,Cc1ccc(CO)cc1,le15
1580,"Phenol, m-ethyl- (8CI)",367.15,1,CCc1cccc(O)c1,le15
1581,1-phenylethanol,358.15,1,CC(O)c1ccccc1,le15
1582,"Ether, 1,3,5-cycloheptatrien-1-yl methyl (7CI,8CI)",345.65,1,COC1=CC=CC=CC1,le15
1583,"Benzene, ethoxy-",328.15,1,CCOc1ccccc1,le15
1584,"Phenol, 3,5-dimethyl-",365.45,1,Cc1cc(C)cc(O)c1,le15
1585,"1,4-Benzenediamine, 2-methyl-",413.75,1,Cc1cc(N)ccc1N,le15
1586,"1,3-Benzenediamine, 4-methyl-",422.65,1,Cc1ccc(N)cc1N,le15
1587,"1,2-Benzenediamine, 4-methyl-",405.25,1,Cc1ccc(N)c(N)c1,le15
1588,"1,3-Benzenediamine, 2-methyl-",421.45,1,Cc1c(N)cccc1N,le15
1589,"4-Pyridinamine, N,N-dimethyl-",344.85,1,CN(C)c1ccncc1,le15
1590,"2,6-dimethylpyridin-4-amine",399.60699999999997,1,Cc1cc(N)cc(C)n1,le15
1591,"2-Pyridinamine, N,N-dimethyl- (9CI)",347.15,1,CN(C)c1ccccn1,le15
1592,"2,3,5-Trimethylpyrazine",327.55,1,Cc1cnc(C)c(C)n1,le15
1593,1-methyl-1-phenylhydrazine,366.75,1,CN(N)c1ccccc1,le15
1594,"1,2-Benzenediamine, 3-methyl-",404.25,1,Cc1cccc(N)c1N,le15
1595,Ethyl sulfone (8CI),391.55,1,CCS(=O)(=O)CC,le15
1596,"Silane, trimethoxy-",268.75,1,CO[SiH](OC)OC,le15
1597,prop-2-ynylcyclohexane,310.65,1,C#CCC1CCCCC1,le15
1598,methyl(phenyl)silicon,311.65,1,C[Si]c1ccccc1,le15
1599,Ethyl disulfide (8CI),313.15,1,CCSSCC,le15
1600,"1,2-bis(methylsulfanyl)ethane",333.05,1,CSCCSC,le15
1601,DiethylDisulfide,313.0,1,CCSSCC,le15
1602,methyl 2-chloro-2-oxoacetate,319.85,1,COC(=O)C(=O)Cl,le15
1603,"Carbonochloridic acid, 1-methylethyl ester",298.15,1,CC(C)OC(=O)Cl,le15
1604,propyl carbonochloridate,302.25,1,CCCOC(=O)Cl,le15
1605,"Butyric acid, 4-chloro- (8CI)",374.25,1,O=C(O)CCCCl,le15
1606,methyl 3-chloropropanoate,313.65,1,COC(=O)CCCl,le15
1607,2-ethoxyacetyl chloride,480.55,1,CCOCC(=O)Cl,le15
1608,methyl 2-chloropropanoate,310.75,1,COC(=O)C(C)Cl,le15
1609,"Acetic acid, chloro-, ethyl ester",338.75,1,CCOC(=O)CCl,le15
1610,Ethylchloroacetate,326.0,1,CCOC(=O)CCl,le15
1611,Acetyl bromide,322.75,1,CC(=O)Br,le15
1612,"Acetaldehyde, bromo-",346.75,1,O=CCBr,le15
1613,"1,4-dichlorobut-2-yne",433.15,1,ClCC#CCCl,le15
1614,"2,3-dichlorobuta-1,3-diene",310.35,1,C=C(Cl)C(=C)Cl,le15
1615,"Propane, 2-bromo-",292.55,1,CC(C)Br,le15
1616,3-Pyridinecarboxylic acid,403.85,1,O=C(O)c1cccnc1,le15
1617,4-Pyridinecarboxylic acid,466.45,1,O=C(O)c1ccncc1,le15
1618,2-Pyrazinecarboxamide,443.05,1,NC(=O)c1cnccn1,le15
1619,"Benzenamine, 2-methoxy-",380.15,1,COc1ccccc1N,le15
1620,2-(2-Pyridyl)ethanol,365.95,1,OCCc1ccccn1,le15
1621,"Phenol, 4-(methylamino)- (9CI)",421.75,1,CNc1ccc(O)cc1,le15
1622,"Benzenamine, 3-methoxy-",382.75,1,COc1cccc(N)c1,le15
1623,"Benzenemethanol, 3-amino- (9CI)",402.75,1,Nc1cccc(CO)c1,le15
1624,"Phenol, 5-amino-2-methyl-",389.45,1,Cc1ccc(N)cc1O,le15
1625,"Phenol, 2-amino-3-methyl-",372.05,1,Cc1cccc(O)c1N,le15
1626,"Phenol, 2-amino-5-methyl-",372.95,1,Cc1ccc(N)c(O)c1,le15
1627,4-Pyridineethanol,374.65,1,OCCc1ccncc1,le15
1628,"Benzenemethanol, 2-amino-",399.45,1,Nc1ccccc1CO,le15
1629,"p-Cresol, 2-amino- (8CI)",371.75,1,Cc1ccc(O)c(N)c1,le15
1630,"Benzenamine, 4-methoxy-",377.65,1,COc1ccc(N)cc1,le15
1631,"Ethanone, 1-(1-methyl-1H-pyrrol-2-yl)-",349.35,1,CC(=O)c1cccn1C,le15
1632,"3-ethyl-2,4-dimethyl-1H-pyrrole",344.15,1,CCc1c(C)c[nH]c1C,le15
1633,1-butylpyrrole,330.05,1,CCCCn1cccc1,le15
1634,"Propane, 2-chloro-2-nitro-",310.55,1,CC(C)(Cl)[N+](=O)[O-],le15
1635,2-chloro-1-nitropropane,332.95,1,CC(Cl)C[N+](=O)[O-],le15
1636,"Propane, 1-chloro-2-nitro-",332.95,1,CC(CCl)[N+](=O)[O-],le15
1637,"Propionitrile, 2,3-dichloro- (6CI,7CI,8CI)",357.05,1,N#CC(Cl)CCl,le15
1638,"Phosphorous acid, trimethyl ester",356.85,1,COP(OC)OC,le15
1639,"Phosphonic acid, methyl-, dimethyl ester",342.05,1,COP(C)(=O)OC,le15
1640,"Methanol, phosphinidynetri- (7CI,8CI)",415.45,1,OCP(CO)CO,le15
1641,Trimethylphosphite,300.0,1,COP(OC)OC,le15
1642,"Acetic acid, 2,2-difluoro-, ethyl ester",298.15,1,CCOC(=O)C(F)F,le15
1643,benzoyl fluoride,327.45,1,O=C(F)c1ccccc1,le15
1644,"Benzaldehyde, m-fluoro- (8CI)",329.85,1,O=Cc1cccc(F)c1,le15
1645,"Benzaldehyde, p-fluoro- (8CI)",329.85,1,O=Cc1ccc(F)cc1,le15
1646,"Benzaldehyde, o-fluoro- (8CI)",328.15,1,O=Cc1ccccc1F,le15
1647,"1,3,2-Dioxathiolane, 2,2-dioxide",366.65,1,O=S1(=O)OCCO1,le15
1648,"Phenol, 2-methoxy-",355.35,1,COc1ccccc1O,le15
1649,"1,4-Benzenediol, 2-methyl-",413.35,1,Cc1cc(O)ccc1O,le15
1650,"Phenol, 3-methoxy-",392.25,1,COc1cccc(O)c1,le15
1651,"Phenol, 4-methoxy-",393.95,1,COc1ccc(O)cc1,le15
1652,"1,2-Benzenediol, 4-methyl- (9CI)",394.25,1,Cc1ccc(O)c(O)c1,le15
1653,"1,2-Benzenediol, 3-methyl-",389.85,1,Cc1cccc(O)c1O,le15
1654,"4-methylbenzene-1,3-diol",403.25,1,Cc1ccc(O)cc1O,le15
1655,"1,3-Benzenediol, 5-methyl-",432.15,1,Cc1cc(O)cc(O)c1,le15
1656,"1,3-Benzenediol, 2-methyl-",416.05,1,Cc1c(O)cccc1O,le15
1657,"Benzyl alcohol, m-hydroxy- (8CI)",420.485,1,OCc1cccc(O)c1,le15
1658,"4,6-dimethylpyran-2-one",363.25,1,Cc1cc(C)oc(=O)c1,le15
1659,"2,6-dimethylpyran-4-one",376.55,1,Cc1cc(=O)cc(C)o1,le15
1660,"Benzyl alcohol, p-hydroxy- (8CI)",418.95,1,OCc1ccc(O)cc1,le15
1661,ethyl methanesulfonate,373.15,1,CCOS(C)(=O)=O,le15
1662,"Cyclohexanol, 1-ethynyl-",346.15,1,C#CC1(O)CCCCC1,le15
1663,"3-Cyclohexene-1-carboxaldehyde, 6-methyl-",326.35,1,CC1CC=CCC1C=O,le15
1664,"7-Oxabicyclo(4.1.0)heptane, 3-ethenyl-",321.25,1,C=CC1CCC2OC2C1,le15
1665,1-(cyclohexen-1-yl)ethanone,346.35,1,CC(=O)C1=CCCCC1,le15
1666,"3,5-dimethylcyclohex-2-en-1-one",352.15,1,CC1=CC(=O)CC(C)C1,le15
1667,2tertbutylfuran,280.0,1,CC(C)(C)c1ccco1,le15
1668,Benzenemethanethiol,343.15,1,SCc1ccccc1,le15
1669,"Sulfide, methyl phenyl (6CI,8CI)",330.35,1,CSc1ccccc1,le15
1670,3-methylbenzenethiol,345.95,1,Cc1cccc(S)c1,le15
1671,2-methylbenzenethiol,337.05,1,Cc1ccccc1S,le15
1672,4-methylbenzenethiol,342.65,1,Cc1ccc(S)cc1,le15
1673,Benzenemethanethiol,343.0,1,SCc1ccccc1,le15
1674,bicyclo[3.3.1]nonane,310.45,1,C1CC2CCCC(C1)C2,le15
1675,"1H-Indene, octahydro-",310.45,1,C1CCC2CCCC2C1,le15
1676,non-2-yne,312.15,1,CC#CCCCCCC,le15
1677,non-3-yne,310.75,1,CCC#CCCCCC,le15
1678,non-4-yne,311.45,1,CCCC#CCCCC,le15
1679,"2-chloro-1,1-dimethoxyethane",302.039,1,COC(CCl)OC,le15
1680,"Ethanol, 2-(2-chloroethoxy)-",363.75,1,OCCOCCCl,le15
1681,"Formic acid, chlorothio-, S-ethyl ester (7CI,8CI)",303.75,1,CCSC(=O)Cl,le15
1682,1-chloro-5-fluoropentane,310.05,1,FCCCCCCl,le15
1683,"Sulfide, 2-chloroethyl ethyl (8CI)",325.15,1,CCSCCCl,le15
1684,"2-Propenal, 3,3-dichloro- (9CI)",327.15,1,O=CC=C(Cl)Cl,le15
1685,2-Bromo-1-ethanol,313.15,1,OCCBr,le15
1686,bromo(methoxy)methane,299.85,1,COCBr,le15
1687,"2-Butene, 1,4-dichloro-",327.55,1,ClCC=CCCl,le15
1688,"1-Propene, 3-chloro-2-(chloromethyl)- (9CI)",309.85,1,C=C(CCl)CCl,le15
1689,"(Z)-1,2-dichlorobut-2-ene",305.55,1,C/C=C(\Cl)CCl,le15
1690,"1H-Pyrrole-2,5-dione, 1-ethyl-",346.15,1,CCN1C(=O)C=CC1=O,le15
1691,"2-Propenoic acid, 2-cyano-, ethyl ester",352.35,1,C=C(C#N)C(=O)OCC,le15
1692,"s-Triazine, 2,4-diamino-6-methyl- (8CI)",525.15,1,Cc1nc(N)nc(N)n1,le15
1693,4-Fluoro-N-methylaniline,336.65,1,CNc1ccc(F)cc1,le15
1694,1-Hydroxy-1-cyclohexanecarbonitrile,385.25,1,N#CC1(O)CCCCC1,le15
1695,"Benzenethiol, 2-amino-",368.95,1,Nc1ccccc1S,le15
1696,8-methyl-8-azabicyclo[3.2.1]octane,315.35,1,CN1C2CCCC1CC2,le15
1697,"2,3,3a,4,5,6,7,7a-octahydro-1H-indole",332.55,1,C1CCC2NCCC2C1,le15
1698,Octanenitrile,346.0,1,CCCCCCCC#N,le15
1699,"Phosphoric acid, dimethyl ester",323.55,1,COP(=O)([O-])OC,le15
1700,"Phosphoric acid, monoethyl ester",379.55,1,CCOP(=O)([O-])[O-],le15
1701,Bis-(hydroxymethyl)-phosphinic acid,578.25,1,O=P(O)(CO)CO,le15
1702,"2-Furancarboxaldehyde, 5-(hydroxymethyl)-",352.55,1,O=Cc1ccc(CO)o1,le15
1703,"1,3,5-Benzenetriol",448.05,1,Oc1cc(O)cc(O)c1,le15
1704,"4H-Pyran-4-one, 3-hydroxy-2-methyl-",400.47,1,Cc1occc(=O)c1O,le15
1705,"1,2,4-Trihydroxybenzene",307.35,1,Oc1ccc(O)c(O)c1,le15
1706,"2-Furancarboxylic acid, methyl ester",331.75,1,COC(=O)c1ccco1,le15
1707,"2(1H)-Pyrimidinone, 4-hydroxy-6-methyl- (8CI)",481.15,1,Cc1cc(O)nc(=O)[nH]1,le15
1708,1-fluoro-2-methoxybenzene,322.95,1,COc1ccccc1F,le15
1709,1-fluoro-3-methoxybenzene,317.05,1,COc1cccc(F)c1,le15
1710,"Benzenemethanol, 4-fluoro- (9CI)",363.15,1,OCc1ccc(F)cc1,le15
1711,1-fluoro-4-methoxybenzene,316.15,1,COc1ccc(F)cc1,le15
1712,"Sulfuric acid, dimethyl ester",356.483,1,COS(=O)(=O)OC,le15
1713,"2-Propenoic acid, 2-methyl-, 2-propenyl ester",310.15,1,C=CCOC(=O)C(=C)C,le15
1714,cyclohexene-1-carboxylic acid,384.15,1,O=C(O)C1=CCCCC1,le15
1715,"methyl (2E,4E)-hexa-2,4-dienoate",343.15,1,C/C=C/C=C/C(=O)OC,le15
1716,"methyl (2E,4E)-hexa-2,4-dienoate",336.25,1,C/C=C/C=C/C(=O)OC,le15
1717,2-Acetylcyclopentan-1-one,345.95,1,CC(=O)C1CCCC1=O,le15
1718,Cyclohex-3-ene-1-carboxylic acid,383.05,1,O=C(O)C1CC=CCC1,le15
1719,2-(ethoxymethyl)furan,314.35,1,CCOCc1ccco1,le15
1720,4-Morpholineacetonitrile,360.15,1,N#CCN1CCOCC1,le15
1721,"Phenol, o-mercapto- (6CI,7CI,8CI)",362.25,1,Oc1ccccc1S,le15
1722,1-thiophen-2-ylethanone,355.55,1,CC(=O)c1cccs1,le15
1723,1-thiophen-3-ylethanone,342.15,1,CC(=O)c1ccsc1,le15
1724,"1-Hexyn-3-ol, 3,5-dimethyl-",317.55,1,C#CC(C)(O)CC(C)C,le15
1725,"5-Hepten-2-one, 6-methyl-",323.15,1,CC(=O)CCC=C(C)C,le15
1726,9-Oxabicyclo(6.1.0)nonane (8CI)(9CI),329.25,1,C1CCCC2OC2CC1,le15
1727,"2-Hexenal, 2-ethyl-",341.15,1,CCCC=C(C=O)CC,le15
1728,1-cyclohexylethanone,334.55,1,CC(=O)C1CCCCC1,le15
1729,"2,2-dimethylcyclohexan-1-one",323.25,1,CC1(C)CCCCC1=O,le15
1730,"(Z)-3,4-dimethylhex-3-en-2-one",334.55,1,CC/C(C)=C(/C)C(C)=O,le15
1731,"2,6-dimethylcyclohexan-1-one",326.95,1,CC1CCCC(C)C1=O,le15
1732,"3,3-dimethylcyclohexan-1-one",323.25,1,CC1(C)CCCC(=O)C1,le15
1733,Bicyclo(2.2.1)heptane-2-methanol,357.15,1,OCC1CC2CCC1C2,le15
1734,4-ethylcyclohexan-1-one,331.65,1,CCC1CCC(=O)CC1,le15
1735,"4-methylhepta-1,6-dien-4-ol",341.95,1,C=CCC(C)(O)CC=C,le15
1736,"2,2,4-trimethylcyclopentan-1-one",318.55,1,CC1CC(=O)C(C)(C)C1,le15
1737,cyclooctanone,345.92800000000005,1,O=C1CCCCCCC1,le15
1738,"2,4,4-trimethylcyclopentan-1-one",318.55,1,CC1CC(C)(C)CC1=O,le15
1739,2-propylthiophene,305.45,1,CCCc1cccs1,le15
1740,"2,3,5-trimethylthiophene",309.35,1,Cc1cc(C)c(C)s1,le15
1741,2-ethyl-3-methylthiophene,306.85,1,CCc1sccc1C,le15
1742,"1,2,3-trimethylcyclohexane",301.05,1,CC1CCCC(C)C1C,le15
1743,propylcyclohexane,308.15,1,CCCC1CCCCC1,le15
1744,"1,3,5-trimethylcyclohexane",301.05,1,CC1CC(C)CC(C)C1,le15
1745,"1,3,5-Trimethylcyclohexane",301.05,1,CC1CC(C)CC(C)C1,le15
1746,butylcyclopentane,307.85,1,CCCCC1CCCC1,le15
1747,"1,1,3-trimethylcyclohexane",298.35,1,CC1CCCC(C)(C)C1,le15
1748,2-methylpropylcyclopentane,304.65,1,CC(C)CC1CCCC1,le15
1749,1-ethyl-2-methylcyclohexane,305.05,1,CCC1CCCCC1C,le15
1750,1-ethyl-2-methylcyclohexane,305.05,1,CCC1CCCCC1C,le15
1751,1-ethyl-1-methylcyclohexane,302.35,1,CCC1(C)CCCCC1,le15
1752,"1,1,2-trimethylcyclohexane",298.35,1,CC1CCCCC1(C)C,le15
1753,"(1R,3R)-1,2,3-trimethylcyclohexane",301.05,1,CC1[C@H](C)CCC[C@H]1C,le15
1754,"1,2,4-trimethylcyclohexane",301.05,1,CC1CCC(C)C(C)C1,le15
1755,"(1R,3S)-1-ethyl-3-methylcyclohexane",305.05,1,CC[C@@H]1CCC[C@H](C)C1,le15
1756,"1,1,3,3-tetramethylcyclopentane",291.05,1,CC1(C)CCC(C)(C)C1,le15
1757,1-Nonene,297.15,1,C=CCCCCCCC,le15
1758,propan-2-ylcyclohexane,308.75,1,CC(C)C1CCCCC1,le15
1759,(E)-non-2-ene,305.35,1,C/C=C/CCCCCC,le15
1760,IsopropylCyclohexane,308.0,1,CC(C)C1CCCCC1,le15
1761,propylcyclohexane,308.0,1,CCCC1CCCCC1,le15
1762,"Benzene, (chloromethyl)-",347.039,1,ClCc1ccccc1,le15
1763,4chlorotoluene,322.0,1,Cc1ccc(Cl)cc1,le15
1764,oxalyl dichloride,277.65,1,O=C(Cl)C(=O)Cl,le15
1765,"Ethane, 1-bromo-2-fluoro-",272.15,1,FCCBr,le15
1766,"2-Propanone, 1,1-dichloro-",297.55,1,CC(=O)C(Cl)Cl,le15
1767,3-chloropropanoyl chloride,334.85,1,O=C(Cl)CCCl,le15
1768,"2-Propanone, 1,3-dichloro-",362.15,1,O=C(CCl)CCl,le15
1769,"1,1-dichlorobutane",291.45,1,CCCC(Cl)Cl,le15
1770,"1,1-dichloro-2-methylpropane",288.75,1,CC(C)C(Cl)Cl,le15
1771,"1,1-dichloro-2-methylpropane",288.85,1,CC(C)C(Cl)Cl,le15
1772,"1,3-dichlorobutane",303.75,1,CC(Cl)CCCl,le15
1773,"(2R,3R)-2,3-dichlorobutane",291.45,1,C[C@@H](Cl)[C@@H](C)Cl,le15
1774,"2,2-dichlorobutane",288.75,1,CCC(C)(Cl)Cl,le15
1775,"Butane, 1,4-dichloro-",313.95,1,ClCCCCCl,le15
1776,"4(1H)-Pyrimidinone, 2-amino-6-hydroxy-",553.55,1,Nc1nc(=O)cc(O)[nH]1,le15
1777,1-Methyl-5-nitro-1H-imidazole,425.85,1,Cn1cncc1[N+](=O)[O-],le15
1778,"1H-Imidazole, 1-methyl-2-nitro- (9CI)",413.75,1,Cn1ccnc1[N+](=O)[O-],le15
1779,Adipimide,421.95,1,O=C1CCCCC(=O)N1,le15
1780,"Valeric acid, 5-cyano-",419.55,1,N#CCCCCC(=O)O,le15
1781,1-piperidin-1-ylethanone,370.15,1,CC(=O)N1CCCCC1,le15
1782,N-cyclohexylformamide,422.15,1,O=CNC1CCCCC1,le15
1783,"2H-Azepin-2-one, hexahydro-1-methyl- (8CI)(9CI)",376.45,1,CN1CCCCCC1=O,le15
1784,"2-Propenamide, N,N-diethyl- (9CI)",364.625,1,C=CC(=O)N(CC)CC,le15
1785,"2-Pyrrolidinone, 1-(1-methylethyl)-",366.15,1,CC(C)N1CCCC1=O,le15
1786,"Propanenitrile, 3-butoxy-",361.35,1,CCCCOCCC#N,le15
1787,"Piperidine, 5-ethyl-2-methyl-",317.35,1,CCC1CCC(C)NC1,le15
1788,1-butylpyrrolidine,309.25,1,CCCCN1CCCC1,le15
1789,cyclooctanamine,335.95,1,NC1CCCCCCC1,le15
1790,"Cyclohexanamine, N-ethyl-",316.05,1,CCNC1CCCCC1,le15
1791,1-propylpiperidine,312.95,1,CCCN1CCCCC1,le15
1792,4-propylpiperidine,321.55,1,CCCC1CCNCC1,le15
1793,"Cyclohexanemethylamine, N-methyl-",314.45,1,CNCC1CCCCC1,le15
1794,2-propylpiperidine,321.55,1,CCCC1CCCCN1,le15
1795,"Benzenamine, 2-chloro-",371.15,1,Nc1ccccc1Cl,le15
1796,"Benzenamine, 3-chloro-",397.05,1,Nc1cccc(Cl)c1,le15
1797,6-Chloro-2-methylpyridine,346.15,1,Cc1cccc(Cl)n1,le15
1798,"Benzenamine, 4-chloro-",333.85,1,Nc1ccc(Cl)cc1,le15
1799,2-chloro-4-methylpyridine,362.75,1,Cc1ccnc(Cl)c1,le15
1800,difluoro(methyl)arsane,279.05,1,C[As](F)F,le15
1801,"Acetamide, 2,2-dichloro-",377.45,1,NC(=O)C(Cl)Cl,le15
1802,"methyl 2,2,2-trifluoroacetate",266.15,1,COC(=O)C(F)(F)F,le15
1803,"2,4,6(1H,3H,5H)-Pyrimidinetrione",423.15,1,O=C1CC(=O)NC(=O)N1,le15
1804,"1,1,1-Trifluoro-2-methylpropan-2-ol",320.55,1,CC(C)(O)C(F)(F)F,le15
1805,"4,4,4-trifluorobutan-1-ol",306.95,1,OCCCC(F)(F)F,le15
1806,"1,4-Benzenedicarbonitrile",415.95,1,N#Cc1ccc(C#N)cc1,le15
1807,"6,8-Dioxabicyclo(3.2.1)octan-7-one",362.95,1,O=C1OC2CCCC1O2,le15
1808,"1,2-Benzenedicarbonitrile",426.45,1,N#Cc1ccccc1C#N,le15
1809,"2-Propenoic acid, oxiranylmethyl ester",349.25,1,C=CC(=O)OCC1CO1,le15
1810,"1,3-Benzenedicarbonitrile",416.15,1,N#Cc1cccc(C#N)c1,le15
1811,Cyclohexanecarboxylic acid,380.15,1,O=C(O)C1CCCCC1,le15
1812,"2-Propenoic acid, 2-methylpropyl ester",305.95,1,C=CC(=O)OCC(C)C,le15
1813,Acrylic acid butyl ester (8CI),312.55,1,C=CC(=O)OCCCC,le15
1814,hept-6-enoic acid,386.45,1,C=CCCCCC(=O)O,le15
1815,2-cyclopentylacetic acid,387.15,1,O=C(O)CC1CCCC1,le15
1816,"2-Buten-1-ol, 3-methyl-, acetate",322.15,1,CC(=O)OCC=C(C)C,le15
1817,"2-Oxepanone, methyl-",359.15,1,CC1CCCCOC1=O,le15
1818,"2-Propenoic acid, 2-methyl-, propyl ester",307.85,1,C=C(C)C(=O)OCCC,le15
1819,"3,3-dimethylpentane-2,4-dione",330.15,1,CC(=O)C(C)(C)C(C)=O,le15
1820,ethenyl pentanoate,311.55,1,C=COC(=O)CCCC,le15
1821,cyclohexyl formate,326.45,1,O=COC1CCCCC1,le15
1822,"3-methylhexane-2,5-dione",344.15,1,CC(=O)CC(C)C(C)=O,le15