,compound,flashpoint,pure substance,smiles,source
5973,"1,2,3,4-Butanetetracarboxylic acid",415.85,1,O=C(O)CC(C(=O)O)C(CC(=O)O)C(=O)O,le15
5974,"2-Benzothiazolamine, 6-(trifluoromethoxy)-",406.15,1,Nc1nc2ccc(OC(F)(F)F)cc2s1,le15
5975,"trimethyl 2-hydroxypropane-1,2,3-tricarboxylate",352.35,1,COC(=O)CC(O)(CC(=O)OC)C(=O)OC,le15
5976,"Ethanol, 2,2'-(1,2-ethanediylbis(oxy))bis-, diacetate",447.15,1,CC(=O)O.CC(=O)O.OCCOCCOCCO,le15
5977,"Tartaric acid, diisopropyl ester",382.55,1,CC(C)OC(=O)C(O)C(O)C(=O)OC(C)C,le15
5978,"Benzeneacetic acid, alpha-cyclohexyl-alpha-hydroxy- (9CI)",488.25,1,O=C(O)C(O)(c1ccccc1)C1CCCCC1,le15
5979,"Benzo(b)naphtho(1,2-d)thiophene",436.15,1,c1ccc2c(c1)ccc1sc3ccccc3c12,le15
5980,"Benzo(b)naphtho(2,1-d)thiophene (8CI)(9CI)",436.15,1,c1ccc2c(c1)ccc1c3ccccc3sc21,le15
5981,"1H-Cyclopentapyrimidine-2,4(3H,5H)-dione, 6,7-dihydro-3-cyclohexyl-",475.55,1,O=c1[nH]c2c(c(=O)n1C1CCCCC1)CCC2,le15
5982,"Phenanthrene, 7-isopropyl-1-methyl- (8CI)",450.962,1,Cc1cccc2c1ccc1cc(C(C)C)ccc12,le15
5983,"2-Propenoic acid, 3-(trimethoxysilyl)propyl ester",355.45,1,C=CC(=O)OCCC[Si](OC)(OC)OC,le15
5984,"Acetamide, 2-(diethylamino)-N-(2,6-dimethylphenyl)-",439.15,1,CCN(CC)CC(=O)Nc1c(C)cccc1C,le15
5985,"Phenol, 2,4-bis(1,1-dimethylpropyl)-",416.15,1,CCC(C)(C)c1ccc(O)c(C(C)(C)CC)c1,le15
5986,"Phenol, 2,6-di-tert-butyl-4-ethyl- (8CI)",378.15,1,CCc1cc(C(C)(C)C)c(O)c(C(C)(C)C)c1,le15
5987,"Phosphine sulfide, tributyl-",409.65,1,CCCCP(=S)(CCCC)CCCC,le15
5988,"7,14-Methano-2H,6H-dipyrido(1,2-a:1',2'-e)(1,5)diazocine, dodecahydro-",421.45,1,C1CCN2CC3CC(CN4CCCCC34)C2C1,le15
5989,"Silane, pentyltriethoxy-",351.05,1,CCCCC[Si](OCC)(OCC)OCC,le15
5990,"Propanoic acid, 2-(2,4-dichlorophenoxy)-",437.65,1,CC(Oc1ccc(Cl)cc1Cl)C(=O)O,le15
5991,"Acetic acid, (2,4-dichlorophenoxy)-, methyl ester",397.25,1,COC(=O)COc1ccc(Cl)cc1Cl,le15
5992,"Adenosine, 2',3'-dideoxy-",553.05,1,Nc1ncnc2c1ncn2[C@H]1CC[C@@H](CO)O1,le15
5993,"1,4-Oxathiin-3-carboxamide, 5,6-dihydro-2-methyl-N-phenyl-",481.35,1,CC1=C(C(=O)Nc2ccccc2)SCCO1,le15
5994,"Carbamic acid, methyl-, 3,5-diisopropylphenyl ester",406.95,1,CNC(=O)Oc1cc(C(C)C)cc(C(C)C)c1,le15
5995,"Benzamide, 4-amino-N-(2-(diethylamino)ethyl)- (9CI)",482.05,1,CCN(CC)CCNC(=O)c1ccc(N)cc1,le15
5996,"1,3,5-trichloro-2,4,6-trifluorobenzene",375.35,1,Fc1c(Cl)c(F)c(Cl)c(F)c1Cl,le15
5997,"Butylamine, 4-(triethoxysilyl)-",378.25,1,CCO[Si](CCCCN)(OCC)OCC,le15
5998,"Benzenesulfonyl chloride, 2-methyl-5-nitro- (9CI)",450.25,1,Cc1ccc([N+](=O)[O-])cc1S(=O)(=O)Cl,le15
5999,"Benzene, 1,4-dibromo-",362.45,1,Brc1ccc(Br)cc1,le15
6000,"Benzene, o-dibromo- (8CI)",368.65,1,Brc1ccccc1Br,le15
6001,2-Fluoro-4-bromo-6-nitrophenol,372.95,1,O=[N+]([O-])c1cc(Br)cc(F)c1O,le15
6002,"Benzoic acid, 2,5-dichloro-3-nitro-",448.65,1,O=C(O)c1cc(Cl)cc([N+](=O)[O-])c1Cl,le15
6003,"1,1,1,3,3,3-hexafluoro-2-(trifluoromethyl)propan-2-ol",278.25,1,OC(C(F)(F)F)(C(F)(F)F)C(F)(F)F,le15
6004,"1,2,3,4,5-pentafluoro-6-(trifluoromethyl)benzene",293.15,1,Fc1c(F)c(F)c(C(F)(F)F)c(F)c1F,le15
6005,"9,10-Anthracenedione, 2-ethyl-",428.55,1,CCc1ccc2c(c1)C(=O)c1ccccc1C2=O,le15
6006,"5H-Dibenz(b,f)azepine-5-carboxamide",475.55,1,NC(=O)N1c2ccccc2C=Cc2ccccc21,le15
6007,"Propane, 1,2-dibromo-3-chloro-",350.15,1,ClCC(Br)CBr,le15
6008,"Benzoic acid, 4-amino-, 2-(diethylamino)ethyl ester",452.95,1,CCN(CC)CCOC(=O)c1ccc(N)cc1,le15
6009,"Silane, trimethoxy(3-(oxiranylmethoxy)propyl)-",355.05,1,CO[Si](CCCOCC1CO1)(OC)OC,le15
6010,"1,1,3-trimethyl-3-phenyl-2H-indene",429.65,1,CC1(C)CC(C)(c2ccccc2)c2ccccc21,le15
6011,"Benzenemethanol, 3,5-bis(1,1-dimethylethyl)-4-hydroxy-",404.35,1,CC(C)(C)c1cc(CO)cc(C(C)(C)C)c1O,le15
6012,Di(morpholin-4-yl) disulphide,427.15,1,C1CN(SSN2CCOCC2)CCO1,le15
6013,5-cyclohexylpentylcyclohexane,412.35,1,C1CCC(CCCCCC2CCCCC2)CC1,le15
6014,"Trisiloxane, 1,1,1,3,3,5,5,5-octamethyl-",302.15,1,C[Si](C)(C)O[Si](C)(C)O[Si](C)(C)C,le15
6015,"Ethane, hexachloro-",334.45,1,ClC(Cl)(Cl)C(Cl)(Cl)Cl,le15
6016,"Urea, 3-(p-chlorophenyl)-1-methyl-1-(1-methyl-2-propynyl)-",465.75,1,C#CC(C)N(C)C(=O)Nc1ccc(Cl)cc1,le15
6017,"3,5-dibromopyridine",357.45,1,Brc1cncc(Br)c1,le15
6018,"Benzene, 1,5-dichloro-2,4-dinitro-",431.15,1,O=[N+]([O-])c1cc([N+](=O)[O-])c(Cl)cc1Cl,le15
6019,"Benzene, 1,2-dichloro-4,5-dinitro-",440.05,1,O=[N+]([O-])c1cc(Cl)c(Cl)cc1[N+](=O)[O-],le15
6020,"Dibenzofuran, 2,8-dichloro- (8CI)(9CI)",442.45,1,Clc1ccc2oc3ccc(Cl)cc3c2c1,le15
6021,"Benzene, 1,1'-methylenebis(4-chloro-",412.95,1,Clc1ccc(Cc2ccc(Cl)cc2)cc1,le15
6022,"9,10-Anthracenedione, 1-amino-2-methyl-",517.95,1,Cc1ccc2c(c1N)C(=O)c1ccccc1C2=O,le15
6023,"Acetamide, N-(9-oxo-9H-fluoren-2-yl)- (9CI)",490.15,1,CC(=O)Nc1ccc2c(c1)C(=O)c1ccccc1-2,le15
6024,"Benzoic acid, 4-(acetylamino)-2-ethoxy-, methyl ester",484.65,1,CCOc1cc(NC(C)=O)ccc1C(=O)OC,le15
6025,"Carbamic acid, methyl-, o-(4-methyl-1,3-dioxolan-2-yl)phenyl ester",424.75,1,CNC(=O)Oc1ccccc1C1OCC(C)O1,le15
6026,"5H-Dibenzo(a,d)cycloheptene-5-carboxamide, 10,11-dihydro-",492.35,1,NC(=O)C1c2ccccc2CCc2ccccc21,le15
6027,"Propane, 1,2,2-trichloropentafluoro-",277.55,1,FC(F)(F)C(Cl)(Cl)C(F)(F)Cl,le15
6028,"1,1,1-trichloro-2,2,3,3,3-pentafluoropropane",276.15,1,FC(F)(F)C(F)(F)C(Cl)(Cl)Cl,le15
6029,"4,5-Isoxazoledione, 3-methyl-, 4-((o-chlorophenyl)hydrazone)",421.55,1,CC1=NOC(=O)C1=NNc1ccccc1Cl,le15
6030,"1,1,1,2,2,3,3,4,4,4-decafluorobutane",277.35,1,FC(F)(F)C(F)(F)C(F)(F)C(F)(F)F,le15
6031,"9,10-Anthracenedione, 1,5-diamino-",560.75,1,Nc1cccc2c1C(=O)c1cccc(N)c1C2=O,le15
6032,"9,10-Anthracenedione, 2,6-diamino-",560.75,1,Nc1ccc2c(c1)C(=O)c1ccc(N)cc1C2=O,le15
6033,"9,10-Anthracenedione, 1,4-diamino-",556.05,1,Nc1ccc(N)c2c1C(=O)c1ccccc1C2=O,le15
6034,"9,10-Anthracenedione, 1,2-diamino-",558.85,1,Nc1ccc2c(c1N)C(=O)c1ccccc1C2=O,le15
6035,"2-Propenoic acid, 3-phenyl-, phenylmethyl ester",498.85,1,O=C(C=Cc1ccccc1)OCc1ccccc1,le15
6036,"2-Propen-1-one, 1-(4-methoxyphenyl)-3-phenyl-",453.65,1,COc1ccc(C(=O)C=Cc2ccccc2)cc1,le15
6037,"2-Propen-1-ol, 3-phenyl-, benzoate",449.25,1,O=C(OCC=Cc1ccccc1)c1ccccc1,le15
6038,2butoxyethylsalicylate,430.35,1,CCCCOCCOc1ccccc1C(=O)[O-],le15
6039,"7H-Pyrrolo(2,3-d)pyrimidin-4-amine, 2-methyl-N-(phenylmethyl)-",458.45,1,Cc1nc(NCc2ccccc2)c2cc[nH]c2n1,le15
6040,"1,5-diphenylpentan-3-one",426.85,1,O=C(CCc1ccccc1)CCc1ccccc1,le15
6041,"Ergoline, 8,9-didehydro-6,8-dimethyl-",482.45,1,CC1=C[C@@H]2c3cccc4[nH]cc(c34)C[C@H]2N(C)C1,le15
6042,"(2,3-dimethyl-3-phenylbutan-2-yl)benzene",415.85,1,CC(C)(c1ccccc1)C(C)(C)c1ccccc1,le15
6043,1-chloro-3-iodobenzene,374.85,1,Clc1cccc(I)c1,le15
6044,"Benzene, 1-chloro-4-iodo-",381.15,1,Clc1ccc(I)cc1,le15
6045,1-chloro-2-iodobenzene,384.85,1,Clc1ccccc1I,le15
6046,3-Methylcyclopentadecan-1-one,418.45,1,CC1CCCCCCCCCCCCC(=O)C1,le15
6047,"11-Hexadecenal, (11Z)-",334.25,1,CCCC/C=C\CCCCCCCCCC=O,le15
6048,dodecylcyclopentane,408.95,1,CCCCCCCCCCCCC1CCCC1,le15
6049,"Octane, 1-((3-chloropropyl)sulfinyl)- (9CI)",450.25,1,CCCCCCCCS(=O)CCCCl,le15
6050,"Benzoyl chloride, m-(chlorosulfonyl)- (7CI,8CI)",434.95,1,O=C(Cl)c1cccc(S(=O)(=O)Cl)c1,le15
6051,Sebacoyl chloride (8CI),424.55,1,O=C(Cl)CCCCCCCCC(=O)Cl,le15
6052,"1,4-Benzenedicarboxylic acid, 2-nitro-, dimethyl ester",433.35,1,COC(=O)c1ccc(C(=O)OC)c([N+](=O)[O-])c1,le15
6053,"9,10-Anthracenedione, 1-amino-4-hydroxy-",535.85,1,Nc1ccc(O)c2c1C(=O)c1ccccc1C2=O,le15
6054,"Hydrocinnamic acid, alpha-amino-3-carboxy-4-methoxy-, DL-",508.65,1,COc1ccc(CC(N)C(=O)O)cc1C(=O)O,le15
6055,"Acetamide, N-9H-fluoren-2-yl-N-hydroxy- (9CI)",502.15,1,CC(=O)N(O)c1ccc2c(c1)Cc1ccccc1-2,le15
6056,"Acetamide, N-(7-hydroxyfluoren-2-yl)- (8CI)",553.05,1,CC(=O)Nc1ccc2c(c1)Cc1cc(O)ccc1-2,le15
6057,"Acetamide, N-(5-hydroxy-9H-fluoren-2-yl)-",553.05,1,CC(=O)Nc1ccc2c(c1)Cc1cccc(O)c1-2,le15
6058,"Acetamide, N-(3-hydroxy-9H-fluoren-2-yl)- (9CI)",523.55,1,CC(=O)Nc1cc2c(cc1O)-c1ccccc1C2,le15
6059,"Acetamide, N-(1-hydroxy-9H-fluoren-2-yl)- (9CI)",513.45,1,CC(=O)Nc1ccc2c(c1O)Cc1ccccc1-2,le15
6060,"Carbamic acid, methyl-, o-(1,3-oxathiolan-2-yl)phenyl ester",449.25,1,CNC(=O)Oc1ccccc1C1OCCS1,le15
6061,"Benzeneacetamide, N,N-dimethyl-alpha-phenyl- (9CI)",446.45,1,CN(C)C(=O)C(c1ccccc1)c1ccccc1,le15
6062,"Benzenamine, N,N,3-trimethyl-4-(phenylazo)- (9CI)",463.35,1,Cc1cc(N(C)C)ccc1N=Nc1ccccc1,le15
6063,"Guanidine, N,N'-bis(2-methylphenyl)-",466.45,1,Cc1ccccc1NC(=N)Nc1ccccc1C,le15
6064,"Benzenamine, N,N-dimethyl-4-((2-methylphenyl)azo)- (9CI)",463.35,1,Cc1ccccc1N=Nc1ccc(N(C)C)cc1,le15
6065,"1,3,5-Triazine-2,4-diamine, N,N-diethyl-6-methoxy-N'-(1-methylethyl)-",449.25,1,CCN(CC)c1nc(NC(C)C)nc(OC)n1,le15
6066,"Acetic acid, (2,3,6-trichlorophenyl)-",440.75,1,O=C(O)Cc1c(Cl)ccc(Cl)c1Cl,le15
6067,"Silane, trichloro(2-phenylethyl)-",390.95,1,Cl[Si](Cl)(Cl)CCc1ccccc1,le15
6068,"Disulfide, isopropyl 1,2,2-trichloroethyl",368.15,1,CC(C)SSC(Cl)C(Cl)Cl,le15
6069,"3-Isoxazolidinone, 2-((2-chlorophenyl)methyl)-4,4-dimethyl-",419.05,1,CC1(C)CON(Cc2ccccc2Cl)C1=O,le15
6070,"Acetic acid, dichloro-, anhydride",363.75,1,O=C(OC(=O)C(Cl)Cl)C(Cl)Cl,le15
6071,"1,3-Dioxolane, 4-chloromethyl-2-(trichloromethyl)-",380.15,1,ClCC1COC(C(Cl)(Cl)Cl)O1,le15
6072,1-iodooctane,368.15,1,CCCCCCCCI,le15
6073,"Ethanol, 2,2'-(1,2-ethanediylbis(oxy))bis-, dinitrate",420.05,1,O=[N+]([O-])O.O=[N+]([O-])O.OCCOCCOCCO,le15
6074,"9,10-Anthracenedione, 1,2-dihydroxy-",501.15,1,O=C1c2ccccc2C(=O)c2c1ccc(O)c2O,le15
6075,"9,10-Anthracenedione, 1,4-dihydroxy-",495.15,1,O=C1c2ccccc2C(=O)c2c(O)ccc(O)c21,le15
6076,"9,10-Anthracenedione, 2,6-dihydroxy-",508.45,1,O=C1c2ccc(O)cc2C(=O)c2ccc(O)cc21,le15
6077,"9,10-Anthracenedione, 1,8-dihydroxy-",514.85,1,O=C1c2cccc(O)c2C(=O)c2c(O)cccc21,le15
6078,"9,10-Anthracenedione, 1,5-dihydroxy-",514.85,1,O=C1c2cccc(O)c2C(=O)c2cccc(O)c21,le15
6079,"9,10-Anthracenedione, 1,3-dihydroxy- (9CI)",552.15,1,O=C1c2ccccc2C(=O)c2c(O)cc(O)cc21,le15
6080,"Phenol, 2-(1,1-dimethylethyl)-4,6-dinitro- (9CI)",398.15,1,CC(C)(C)c1cc([N+](=O)[O-])cc([N+](=O)[O-])c1O,le15
6081,"Phenol, 4-(1,1-dimethylethyl)-2,6-dinitro-",382.45,1,CC(C)(C)c1cc([N+](=O)[O-])c(O)c([N+](=O)[O-])c1,le15
6082,"Benzoic acid, o-benzoyl-, methyl ester (8CI)",427.55,1,COC(=O)c1ccccc1C(=O)c1ccccc1,le15
6083,"Benzoic acid, 6-benzoyl-3-methyl- (9CI)",517.55,1,Cc1ccc(C(=O)c2ccccc2)c(C(=O)O)c1,le15
6084,"Anthraquinone, 1,4-diamino-2,3-dihydro- (8CI)",453.85,1,NC1=C2C(=O)c3ccccc3C(=O)C2=C(N)CC1,le15
6085,"Benzenamine, 4-(2-(4-nitrophenyl)ethenyl)-",477.85,1,Nc1ccc(C=Cc2ccc([N+](=O)[O-])cc2)cc1,le15
6086,"Phosphoric acid, diethyl 1-methyl-2-(methylthio)ethenyl ester (9CI)",389.55,1,CCOP(=O)(OCC)OC(C)=CSC,le15
6087,4H-Cyclopenta(def)chrysene,502.65,1,c1ccc2c(c1)cc1c3c2ccc2cccc(c23)C1,le15
6088,"Benzeneacetic acid, 2-phenylethyl ester",418.95,1,O=C(Cc1ccccc1)OCCc1ccccc1,le15
6089,"Propane, 1,2-epoxy-3-((alpha-phenyl-o-tolyl)oxy)- (7CI,8CI)",418.05,1,c1ccc(Cc2ccccc2OCC2CO2)cc1,le15
6090,"Propane, 1,2-epoxy-3-((alpha-phenyl-p-tolyl)oxy)- (7CI,8CI)",424.55,1,c1ccc(Cc2ccc(OCC3CO3)cc2)cc1,le15
6091,"1,3-dimethyl-1,3-diphenylurea",415.75,1,CN(C(=O)N(C)c1ccccc1)c1ccccc1,le15
6092,"Acetic acid, phenyl-, 2-benzylhydrazide",416.75,1,O=C(Cc1ccccc1)NNCc1ccccc1,le15
6093,"diethyl 2,2-bis(prop-2-enyl)propanedioate",379.87800000000004,1,C=CCC(CC=C)(C(=O)OCC)C(=O)OCC,le15
6094,"Toluene-2,4-diamine, 5-(o-tolylazo)- (8CI)",510.75,1,Cc1cc(N=Nc2ccccc2C)c(N)cc1N,le15
6095,"Benzenamine, 4-(6-methyl-2-benzothiazolyl)-",490.45,1,Cc1ccc2nc(-c3ccc(N)cc3)sc2c1,le15
6096,"2-Pyridinepropanamine, N,N-dimethyl-gamma-phenyl- (9CI)",437.65,1,CN(C)CCC(c1ccccc1)c1ccccn1,le15
6097,"(1,1'-Biphenyl)-4,4'-diamine, N4,N4,N4',N4'-tetramethyl-",446.55,1,CN(C)c1ccc(-c2ccc(N(C)C)cc2)cc1,le15
6098,"Ergoline, 6,8beta-dimethyl- (8CI)",473.35,1,C[C@@H]1C[C@@H]2c3cccc4[nH]cc(c34)C[C@H]2N(C)C1,le15
6099,"10-Undecenoic acid, butyl ester",401.15,1,C=CCCCCCCCCC(=O)OCCCC,le15
6100,"Urea, 1,3-dicyclohexyl-2-thio-",435.75,1,S=C(NC1CCCCC1)NC1CCCCC1,le15
6101,"4,5-Dichloro-2,3-dihydro-2-phenylpyridazin-3-one",441.45,1,O=c1c(Cl)c(Cl)cnn1-c1ccccc1,le15
6102,"Phenol, 2,4-dichloro-, methanesulfonate",441.95,1,CS(=O)(=O)Oc1ccc(Cl)cc1Cl,le15
6103,"Benzoic acid, 2-((phenylamino)carbonyl)-",443.85,1,O=C(O)c1ccccc1C(=O)Nc1ccccc1,le15
6104,"Benzoic acid, (4-(hydroxyimino)-2,5-cyclohexadien-1-ylidene)hydrazide",451.05,1,O=C(NN=C1C=CC(=NO)C=C1)c1ccccc1,le15
6105,"1,2-Propanediol, 3-(2-methoxyphenoxy)-, 1-carbamate",512.75,1,COc1ccccc1OCC(O)COC(N)=O,le15
6106,9-Benzyladenine 1-oxide,537.65,1,Nc1c2ncn(Cc3ccccc3)c2nc[n+]1[O-],le15
6107,"Benzoic acid, 2-((2,3-dimethylphenyl)amino)-",468.15,1,Cc1cccc(Nc2ccccc2C(=O)O)c1C,le15
6108,"Benzoic acid, 2-amino-, 2-phenylethyl ester",509.25,1,Nc1ccccc1C(=O)OCCc1ccccc1,le15
6109,"ethyl N,N-diphenylcarbamate",444.65,1,CCOC(=O)N(c1ccccc1)c1ccccc1,le15
6110,"Carbamic acid, methyl-, 4-(methylsulfinyl)-3,5-xylyl ester",468.25,1,CNC(=O)Oc1cc(C)c(S(C)=O)c(C)c1,le15
6111,"2-Pyridinecarboxylic acid, 4-amino-3,5,6-trichloro-",481.25,1,Nc1c(Cl)c(Cl)nc(C(=O)O)c1Cl,le15
6112,"2,4-Imidazolidinedione, 3-bromo-1-chloro-5,5-dimethyl-",367.65,1,CC1(C)C(=O)N(Br)C(=O)N1Cl,le15
6113,"Ethanol, 2-(2,4,5-trichlorophenoxy)-",434.65,1,OCCOc1cc(Cl)c(Cl)cc1Cl,le15
6114,"1-Hexanamine, 2-ethyl-N-(2-ethylhexyl)-",401.15,1,CCCCC(CC)CNCC(CC)CCCC,le15
6115,1-Hexadecanamine,413.15,1,CCCCCCCCCCCCCCCCN,le15
6116,"Phosphoramidic acid, diethyl-, 2-chloroethenyl ethyl ester",382.15,1,CCOP(=O)(OC=CCl)N(CC)CC,le15
6117,"1,2-dibromo-1,1,2-trifluoroethane",274.15,1,FC(Br)C(F)(F)Br,le15
6118,"Phenol, 4-bromo-2,5-dichloro-",391.35,1,Oc1cc(Cl)c(Br)cc1Cl,le15
6119,"Phenol, 4-bromo-2,6-dichloro- (8CI)(9CI)",376.05,1,Oc1c(Cl)cc(Br)cc1Cl,le15
6120,"2,3-dibromothiophene",324.85,1,Brc1ccsc1Br,le15
6121,"3,4-dibromothiophene",363.55,1,Brc1cscc1Br,le15
6122,"2,5-dibromothiophene",372.55,1,Brc1ccc(Br)s1,le15
6123,"2-Propenoic acid, 2-cyano-3-(2,4-dichlorophenyl)- (9CI)",474.15,1,N#CC(=Cc1ccc(Cl)cc1Cl)C(=O)O,le15
6124,"ethyl 2,2,3,3,4,4,4-heptafluorobutanoate",287.55,1,CCOC(=O)C(F)(F)C(F)(F)C(F)(F)F,le15
6125,2-Bromo-2-methyl-N-phenylpropanamide,442.45,1,CC(C)(Br)C(=O)Nc1ccccc1,le15
6126,"Maleic anhydride, dihydroxy-, dipropionate",424.65,1,CCC(=O)O.CCC(=O)O.O=C1OC(=O)C(O)=C1O,le15
6127,"1,4,9,10-Tetrahydroxyanthracene",595.85,1,Oc1ccc(O)c2c(O)c3ccccc3c(O)c12,le15
6128,"Peroxide, dibenzoyl",427.389,1,O=C(OOC(=O)c1ccccc1)c1ccccc1,le15
6129,"Benzimidazole, 5-tert-butyl-2-(trifluoromethyl)-",413.85,1,CC(C)(C)c1ccc2nc(C(F)(F)F)[nH]c2c1,le15
6130,"1,4-Naphthalenedione, 2-hydroxy-3-(3-methyl-2-butenyl)- (9CI)",482.15,1,CC(C)=CCC1=C(O)C(=O)c2ccccc2C1=O,le15
6131,"3-Pyridinecarboxylic acid, 2-((2,6-dimethylphenyl)amino)- (9CI)",465.25,1,Cc1cccc(C)c1Nc1ncccc1C(=O)O,le15
6132,"Benz(a)anthracene, 6-methyl-",490.95,1,Cc1cc2ccccc2c2cc3ccccc3cc12,le15
6133,"Benz(a)anthracene, 4-methyl-",490.95,1,Cc1cccc2c1ccc1cc3ccccc3cc12,le15
6134,"Chrysene, 6-methyl-",490.95,1,Cc1cc2c3ccccc3ccc2c2ccccc12,le15
6135,"Benz(a)anthracene, 5-methyl-",490.95,1,Cc1cc2cc3ccccc3cc2c2ccccc12,le15
6136,"Benz(a)anthracene, 10-methyl-",490.95,1,Cc1ccc2cc3ccc4ccccc4c3cc2c1,le15
6137,"Benz(a)anthracene, 8-methyl-",490.95,1,Cc1cccc2cc3c(ccc4ccccc43)cc12,le15
6138,"Benz(a)anthracene, 12-methyl-",490.95,1,Cc1c2ccccc2cc2ccc3ccccc3c12,le15
6139,"Benz(a)anthracene, 3-methyl-",490.95,1,Cc1ccc2c(ccc3cc4ccccc4cc32)c1,le15
6140,"Benz(a)anthracene, 1-methyl-",490.95,1,Cc1cccc2ccc3cc4ccccc4cc3c12,le15
6141,"Chrysene, 1-methyl-",490.95,1,Cc1cccc2c1ccc1c3ccccc3ccc21,le15
6142,"Benz(a)anthracene, 9-methyl-",490.95,1,Cc1ccc2cc3c(ccc4ccccc43)cc2c1,le15
6143,"Benz(a)anthracene, 2-methyl-",490.95,1,Cc1ccc2ccc3cc4ccccc4cc3c2c1,le15
6144,heptanoyl heptanoate,403.05,1,CCCCCCC(=O)OC(=O)CCCCCC,le15
6145,pentadecanoic acid,422.75,1,CCCCCCCCCCCCCCC(=O)O,le15
6146,heptyl octanoate,403.15,1,CCCCCCCOC(=O)CCCCCCC,le15
6147,1-octoxyoctane,386.65,1,CCCCCCCCOCCCCCCCC,le15
6148,"Heptane, 3,3'-(oxybis(methylene))bis-",380.65,1,CCCCC(CC)COCC(CC)CCCC,le15
6149,Hexadecan-2-ol,384.45,1,CCCCCCCCCCCCCCC(C)O,le15
6150,"9,10-Anthracenedione, 2-chloro-",452.85,1,O=C1c2ccccc2C(=O)c2cc(Cl)ccc21,le15
6151,"9,10-Anthracenedione, 1-chloro-",452.85,1,O=C1c2ccccc2C(=O)c2c(Cl)cccc21,le15
6152,dibromo(dichloro)methane,309.35,1,ClC(Cl)(Br)Br,le15
6153,"Acetic acid, (4-chlorophenoxy)-, 2-(1-methylethyl)hydrazide (9CI)",430.45,1,CC(C)NNC(=O)COc1ccc(Cl)cc1,le15
6154,"1,3-Dioxolo(4,5-g)furo(2,3-b)quinoline, 9-methoxy-",474.15,1,COc1c2cc3c(cc2nc2occc12)OCO3,le15
6155,"2(1H)-Pyrimidinone, 4-amino-1-beta-D-arabinofuranosyl-",556.95,1,Nc1ccn([C@@H]2O[C@H](CO)[C@@H](O)[C@@H]2O)c(=O)n1,le15
6156,Chrysen-6-ylamine,560.05,1,Nc1cc2c3ccccc3ccc2c2ccccc12,le15
6157,"Benz(c)acridine, 7-methyl-",478.65,1,Cc1c2ccccc2nc2c1ccc1ccccc12,le15
6158,"Dodecanamide, N-(2-hydroxyethyl)-",475.35,1,CCCCCCCCCCCC(=O)NCCO,le15
6159,"3(2H)-Benzothiazoleacetic acid, 4-chloro-2-oxo-",510.25,1,O=C(O)Cn1c(=O)sc2cccc(Cl)c21,le15
6160,"Hexane, 1,2-dibromo-",356.35,1,CCCCC(Br)CBr,le15
6161,"Hexane, 1,6-dibromo-",383.95,1,BrCCCCCCBr,le15
6162,"1,1,1,3,3,3-hexafluoro-2-phenylpropan-2-ol",333.15,1,OC(c1ccccc1)(C(F)(F)F)C(F)(F)F,le15
6163,"Xanthen-9-one, 1,3,7-trihydroxy-",497.85,1,O=c1c2cc(O)ccc2oc2cc(O)cc(O)c12,le15
6164,"1,1'-Biphenyl, 4,4'-dinitro-",481.95,1,O=[N+]([O-])c1ccc(-c2ccc([N+](=O)[O-])cc2)cc1,le15
6165,1-nitro-2-(2-nitrophenyl)benzene,461.05,1,O=[N+]([O-])c1ccccc1-c1ccccc1[N+](=O)[O-],le15
6166,"s-Triazin-2(1H)-one, 4-amino-1-beta-D-ribofuranosyl- (8CI)",550.15,1,Nc1ncn([C@@H]2O[C@H](CO)[C@@H](O)[C@H]2O)c(=O)n1,le15
6167,"1,2,4-Triazin-3(2H)-one, 5-amino-2-beta-D-ribofuranosyl-",550.15,1,Nc1cnn([C@@H]2O[C@H](CO)[C@@H](O)[C@H]2O)c(=O)n1,le15
6168,"dimethyl naphthalene-2,6-dicarboxylate",462.35,1,COC(=O)c1ccc2cc(C(=O)OC)ccc2c1,le15
6169,"Methanone, (2-hydroxy-4-methoxyphenyl)(2-hydroxyphenyl)-",419.15,1,COc1ccc(C(=O)c2ccccc2O)c(O)c1,le15
6170,"Benz(3,4)anthra(1,2-b)oxirene, 1a,11b-dihydro- (9CI)",485.55,1,c1ccc2c(c1)-c1cc3ccccc3cc1C1OC21,le15
6171,"2-Propanol, 1,3-diphenoxy-",466.95,1,OC(COc1ccccc1)COc1ccccc1,le15
6172,"2H-1-Benzopyran-2-one, 7-methoxy-8-(3-methyl-2-butenyl)- (9CI)",440.75,1,COc1ccc2ccc(=O)oc2c1CC=C(C)C,le15
6173,"Aziridine, 1,1'-(1,3-phenylenedicarbonyl)bis(2-methyl-",484.05,1,CC1CN1C(=O)c1cccc(C(=O)N2CC2C)c1,le15
6174,"Phosphorothioic acid, O,O-diethyl S-(ethylthio)methyl ester",399.15,1,CCOP(=O)(OCC)SCSCC,le15
6175,"Methane, triphenyl- (8CI)",433.45,1,c1ccc(C(c2ccccc2)c2ccccc2)cc1,le15
6176,"3-Cyclohexene-1-carboxylic acid, 5-ethyl-6-methyl-4-phenyl-",456.45,1,CCC1C(c2ccccc2)=CCC(C(=O)O)C1C,le15
6177,diethyl 2-hexylpropanedioate,395.85,1,CCCCCCC(C(=O)OCC)C(=O)OCC,le15
6178,"Phosphorotrithioic acid, O-methyl S,S-dipropyl ester",411.05,1,CCCSP(=S)(OC)SCCC,le15
6179,"Urea, 1,1,3-tributyl-2-thio- (8CI)",416.55,1,CCCCNC(=S)N(CCCC)CCCC,le15
6180,"Urea, 1-dodecyl-2-thio-",434.75,1,CCCCCCCCCCCCNC(N)=S,le15
6181,"2,3-Phenazinediamine, 7-chloro-",544.45,1,Nc1cc2nc3ccc(Cl)cc3nc2cc1N,le15
6182,"Benzenesulfonic acid, 4-((methoxycarbonyl)amino)-, hydrazide (9CI)",549.35,1,COC(=O)Nc1ccc(S(=O)(=O)NN)cc1,le15
6183,"Benzenamine, N,N-diphenyl-",430.45,1,c1ccc(N(c2ccccc2)c2ccccc2)cc1,le15
6184,"Pyridine, 2-((2-(dimethylamino)ethyl)furfurylamino)- (8CI)",447.35,1,CN(C)CCN(Cc1ccco1)c1ccccn1,le15
6185,"2,5-Cyclohexadiene-1,4-dione, 2,3,5,6-tetrachloro-",384.85,1,O=C1C(Cl)=C(Cl)C(=O)C(Cl)=C1Cl,le15
6186,"ethyl 2,2-dibromoacetate",342.65,1,CCOC(=O)C(Br)Br,le15
6187,"methyl 2,3-dibromopropanoate",344.25,1,COC(=O)C(Br)CBr,le15
6188,"Benzene, 1,2,3,4-tetrachloro-5-methoxy-",390.75,1,COc1cc(Cl)c(Cl)c(Cl)c1Cl,le15
6189,"Pentanoic acid, 2,2,3,3,4,4,5,5-octafluoro-",323.05,1,O=C(O)C(F)(F)C(F)(F)C(F)(F)C(F)F,le15
6190,"2H-Furo(2,3-h)-1-benzopyran-2-one, 5,6-dimethoxy-",493.65,1,COc1c(OC)c2occc2c2oc(=O)ccc12,le15
6191,"Benzophenone, 2,2',4,4'-tetrahydroxy-",562.35,1,O=C(c1ccc(O)cc1O)c1ccc(O)cc1O,le15
6192,"7H-Furo(3,2-g)(1)benzopyran-7-one, 4,9-dimethoxy- (8CI)(9CI)",498.25,1,COc1c2ccoc2c(OC)c2oc(=O)ccc12,le15
6193,"1,2-Benzenedicarboxylic acid, di-2-propenyl ester",439.15,1,C=CCOC(=O)c1ccccc1C(=O)OCC=C,le15
6194,"2,4,6(1H,3H,5H)-Pyrimidinetrione, 5-ethyl-1-methyl-5-phenyl-",466.35,1,CCC1(c2ccccc2)C(=O)NC(=O)N(C)C1=O,le15
6195,"Tryptophan, N-acetyl-, L-",581.75,1,CC(=O)N[C@@H](Cc1c[nH]c2ccccc12)C(=O)O,le15