,compound,flashpoint,pure substance,smiles,source
2449,"4,5-dimethylbenzene-1,3-diol",405.65,1,Cc1cc(O)cc(O)c1C,le15
2450,"Hydroquinone, 2,3-dimethyl- (8CI)",418.55,1,Cc1c(O)ccc(O)c1C,le15
2451,"Phenol, 4-ethoxy-",397.15,1,CCOc1ccc(O)cc1,le15
2452,1-hydroperoxyethylbenzene,377.85,1,CC(OO)c1ccccc1,le15
2453,"1-phenylethane-1,2-diol",418.85,1,OCC(O)c1ccccc1,le15
2454,Hydroquinone dimethyl ether,346.65,1,COc1ccc(OC)cc1,le15
2455,4-Hydroxyphenethyl alcohol,416.35,1,OCCc1ccc(O)cc1,le15
2456,(3-methoxyphenyl)methanol,383.05,1,COc1cccc(CO)c1,le15
2457,Benzenecarbothioic acid,367.15,1,OC(=S)c1ccccc1,le15
2458,"Sulfurous acid, diethyl ester",326.15,1,CCOS(=O)OCC,le15
2459,"Methanesulfonic acid, 1-methylethyl ester",377.15,1,CC(C)OS(C)(=O)=O,le15
2460,"Methanesulfonic acid, propyl ester",365.55,1,CCCOS(C)(=O)=O,le15
2461,"Ethanol, 2-(ethylsulfonyl)-",428.25,1,CCS(=O)(=O)CCO,le15
2462,"2-Cyclohexen-1-one, 3,5,5-trimethyl-",357.55,1,CC1=CC(=O)CC(C)(C)C1,le15
2463,"3-Cyclohexen-1-one, 3,5,5-trimethyl-",337.35,1,CC1=CC(C)(C)CC(=O)C1,le15
2464,"2,6-dimethylhepta-2,5-dien-4-one",352.15,1,CC(C)=CC(=O)C=C(C)C,le15
2465,"1,3,3a,4,5,6,7,7a-octahydroinden-2-one",352.75,1,O=C1CC2CCCCC2C1,le15
2466,"1,3,3a,4,5,6,7,7a-octahydroinden-2-one",352.75,1,O=C1CC2CCCCC2C1,le15
2467,Isophorone,357.0,1,CC1=CC(=O)CC(C)(C)C1,le15
2468,"Sulfide, ethyl phenyl (8CI)",347.05,1,CCSc1ccccc1,le15
2469,methylsulfanylmethylbenzene,346.45,1,CSCc1ccccc1,le15
2470,Benzylmethylsulfide,346.0,1,CSCc1ccccc1,le15
2471,"Naphthalene, decahydro-",330.15,1,C1CCC2CCCCC2C1,le15
2472,"4,7,7-trimethylbicyclo[2.2.1]heptane",305.55,1,CC12CCC(CC1)C2(C)C,le15
2473,Pinane (8CI),309.15,1,CC1CCC2CC1C2(C)C,le15
2474,"Naphthalene, decahydro-, cis-",330.35,1,C1CC[C@H]2CCCC[C@H]2C1,le15
2475,"Naphthalene, decahydro-, trans-",330.35,1,C1CC[C@H]2CCCC[C@@H]2C1,le15
2476,"Cyclohexene, 4-methyl-1-(1-methylethyl)-",316.45,1,CC1CC=C(C(C)C)CC1,le15
2477,cyclodecene,332.25,1,C1=CCCCCCCCC1,le15
2478,dec-3-yne,325.35,1,CCC#CCCCCCC,le15
2479,"1,6-Octadiene, 3,7-dimethyl-",315.45,1,C=CC(C)CCC=C(C)C,le15
2480,1-pentylcyclopentene,324.45,1,CCCCCC1=CCCC1,le15
2481,"4,6,6-trimethylbicyclo[3.1.1]heptane",309.15,1,CC1CCC2CC1C2(C)C,le15
2482,"2,7-Dimethyl-2,6-octadiene",317.05,1,CC(C)=CCCC=C(C)C,le15
2483,1-methyl-4-prop-1-en-2-ylcyclohexane,316.85,1,C=C(C)C1CCC(C)CC1,le15
2484,(4R)-1-methyl-4-propan-2-ylcyclohexene,316.45,1,CC1=CC[C@H](C(C)C)CC1,le15
2485,1decyne,323.0,1,C#CCCCCCCCC,le15
2486,2octyne,301.0,1,CC#CCCCCC,le15
2487,1-chloroethenylbenzene,343.25,1,C=C(Cl)c1ccccc1,le15
2488,"Benzene, 1-chloro-2-ethenyl- (9CI)",333.593,1,C=Cc1ccccc1Cl,le15
2489,1-chloro-4-ethenylbenzene,334.346,1,C=Cc1ccc(Cl)cc1,le15
2490,1-chloro-6-fluorohexane,316.95,1,FCCCCCCCl,le15
2491,Monobromoacetic acid,352.163,1,O=C(O)CBr,le15
2492,"1-Propanol, 3-bromo-",367.05,1,OCCCBr,le15
2493,"2-Propanol, 1-bromo-",327.55,1,CC(O)CBr,le15
2494,"Phenol, 4-nitro-",415.05,1,O=[N+]([O-])c1ccc(O)cc1,le15
2495,"Phenol, 2-nitro-",381.15,1,O=[N+]([O-])c1ccccc1O,le15
2496,"Phenol, 3-nitro-",400.05,1,O=[N+]([O-])c1cccc(O)c1,le15
2497,"2-Propenoic acid, 2-methyl-, 2-cyanoethyl ester (9CI)",381.95,1,C=C(C)C(=O)OCCC#N,le15
2498,"2,6-dimethoxypyridine",334.15,1,COc1cccc(OC)n1,le15
2499,(sulfinylamino)benzene,357.55,1,O=S=Nc1ccccc1,le15
2500,8-methyl-8-azabicyclo[3.2.1]octan-3-one,363.15,1,CN1C2CCC1CC(=O)C2,le15
2501,2-methylsulfanylaniline,368.95,1,CSc1ccccc1N,le15
2502,n-Octanenitrile,354.25,1,CCCCCCCC#N,le15
2503,"(4aR,8aR)-1,2,3,4,4a,5,6,7,8,8a-decahydroquinoline",341.45,1,C1CC[C@H]2NCCC[C@H]2C1,le15
2504,bromo(nitro)methane,308.55,1,O=[N+]([O-])CBr,le15
2505,Methanearsonic acid,478.95,1,C[As](=O)(O)O,le15
2506,"Phosphoric acid, trimethyl ester",356.85,1,COP(=O)(OC)OC,le15
2507,"Phosphonofluoridic acid, methyl-, 1-methylethyl ester",315.85,1,CC(C)OP(C)(=O)F,le15
2508,"Pyridine, 4-nitro-, 1-oxide",467.15,1,O=[N+]([O-])c1cc[n+]([O-])cc1,le15
2509,ethyl furan-2-carboxylate,343.15,1,CCOC(=O)c1ccco1,le15
2510,"2-Furanmethanol, 2-acetate",338.15,1,CC(=O)OCc1ccco1,le15
2511,"Pyrocatechol, 3-methoxy- (8CI)",392.65,1,COc1cccc(O)c1O,le15
2512,3-(furan-2-yl)propanoic acid,376.15,1,O=C(O)CCc1ccco1,le15
2513,"4H-Pyran-4-one, 2-ethyl-3-hydroxy-",397.95,1,CCc1occc(=O)c1O,le15
2514,1-ethoxy-2-fluorobenzene,333.25,1,CCOc1ccccc1F,le15
2515,1-ethoxy-3-fluorobenzene,324.45,1,CCOc1cccc(F)c1,le15
2516,4-Fluorophenetole,335.45,1,CCOc1ccc(F)cc1,le15
2517,"5,10-Dioxatricyclo(7.1.0.04,6)decane",378.15,1,C1CC2OC2CCC2OC12,le15
2518,"Acetic acid, 2,4-hexadienyl ester",352.75,1,CC=CC=CCOC(C)=O,le15
2519,"ethyl (2E,4E)-hexa-2,4-dienoate",342.55,1,C/C=C/C=C/C(=O)OCC,le15
2520,"3,3-dimethyl-4-propan-2-ylideneoxetan-2-one",335.95,1,CC(C)=C1OC(=O)C1(C)C,le15
2521,"3-prop-2-enylpentane-2,4-dione",349.95,1,C=CCC(C(C)=O)C(C)=O,le15
2522,Oct-2-ynoic acid,374.25,1,CCCCCC#CC(=O)O,le15
2523,"4-Pentenoic acid, 2-(2-propenyl)- (9CI)",329.55,1,C=CCC(CC=C)C(=O)O,le15
2524,"7-Oxabicyclo(4.1.0)heptane, 3-(epoxyethyl)-",359.55,1,C1CC2OC2CC1C1CO1,le15
2525,"1,3-Cyclohexanedione, 5,5-dimethyl-",358.25,1,CC1(C)CC(=O)CC(=O)C1,le15
2526,"4-Morpholineacetonitrile, alpha-methyl-",363.85,1,CC(C#N)N1CCOCC1,le15
2527,methylsulfinylbenzene,390.95,1,CS(=O)c1ccccc1,le15
2528,"Benzenethiol, 2-methoxy-",368.15,1,COc1ccccc1S,le15
2529,3-methoxybenzenethiol,369.25,1,COc1cccc(S)c1,le15
2530,"1,3,5,7-Tetraazatricyclo(3.3.1.13,7)decane",377.095,1,C1N2CN3CN1CN(C2)C3,le15
2531,4-methoxybenzenethiol,362.95,1,COc1ccc(S)cc1,le15
2532,"Propanenitrile, 3,3'-thiobis-",432.75,1,N#CCCSCCC#N,le15
2533,"5-Heptenal, 2,6-dimethyl-",333.75,1,CC(C)=CCCC(C)C=O,le15
2534,"3,3,5-trimethylcyclohexan-1-one",337.15,1,CC1CC(=O)CC(C)(C)C1,le15
2535,1-cyclohexylpropan-1-one,347.65,1,CCC(=O)C1CCCCC1,le15
2536,"2,4,4-trimethylcyclohexan-1-one",331.65,1,CC1CC(C)(C)CCC1=O,le15
2537,Non-2-yn-1-ol,328.05,1,CCCCCCC#CCO,le15
2538,2-Nonenal,357.55,1,CCCCCCC=CC=O,le15
2539,2-butylthiophene,316.25,1,CCCCc1cccs1,le15
2540,1-methyl-4-propan-2-ylcyclohexane,317.85,1,CC1CCC(C(C)C)CC1,le15
2541,cyclodecane,331.931,1,C1CCCCCCCCC1,le15
2542,butylcyclohexane,314.25,1,CCCCC1CCCCC1,le15
2543,Isobutylcyclohexane,321.45,1,CC(C)CC1CCCCC1,le15
2544,"Cyclohexane, 1,2,4,5-tetramethyl-",313.65,1,CC1CC(C)C(C)CC1C,le15
2545,2-methylnon-1-ene,315.75,1,C=C(C)CCCCCCC,le15
2546,tert-butylcyclohexane,315.35,1,CC(C)(C)C1CCCCC1,le15
2547,"1,2,3,4-tetramethylcyclohexane",313.65,1,CC1CCC(C)C(C)C1C,le15
2548,"2,6-dimethyloct-2-ene",305.15,1,CCC(C)CCC=C(C)C,le15
2549,1-methyl-2-propylcyclohexane,320.85,1,CCCC1CCCCC1C,le15
2550,1-methyl-3-propylcyclohexane,320.85,1,CCCC1CCCC(C)C1,le15
2551,"3,7-dimethyloct-1-ene",316.95,1,C=CC(C)CCCC(C)C,le15
2552,(E)-dec-5-ene,319.25,1,CCCC/C=C/CCCC,le15
2553,1-methyl-3-propan-2-ylcyclohexane,317.85,1,CC1CCCC(C(C)C)C1,le15
2554,"Cyclohexane, 1,1,3,5-tetramethyl-, trans-",311.25,1,C[C@H]1C[C@H](C)CC(C)(C)C1,le15
2555,"Cyclohexane, 1,1,3,5-tetramethyl-, cis-",311.25,1,C[C@H]1C[C@@H](C)CC(C)(C)C1,le15
2556,butan-2-ylcyclohexane,321.35,1,CCC(C)C1CCCCC1,le15
2557,(Z)-dec-5-ene,318.65,1,CCCC/C=C\CCCC,le15
2558,1decene,320.15,1,C=CCCCCCCCC,le15
2559,2octene,287.0,1,CC=CCCCCC,le15
2560,5decene,319.0,1,CCCCC=CCCCC,le15
2561,Butylcyclohexane,314.0,1,CCCCC1CCCCC1,le15
2562,Cyclodecane,338.0,1,C1CCCCCCCCC1,le15
2563,tertButylCyclohexane,315.0,1,CC(C)(C)C1CCCCC1,le15
2564,chloro(dimethyl)arsane,299.05,1,C[As](C)Cl,le15
2565,ethyl 2-chloro-2-fluoroacetate,317.45,1,CCOC(=O)C(F)Cl,le15
2566,"Benzaldehyde, 4-chloro-",360.92800000000005,1,O=Cc1ccc(Cl)cc1,le15
2567,"Benzaldehyde, m-chloro- (8CI)",358.55,1,O=Cc1cccc(Cl)c1,le15
2568,"Benzaldehyde, 2-chloro-",360.95,1,O=Cc1ccccc1Cl,le15
2569,1-chloro-2-ethylbenzene,333.15,1,CCc1ccccc1Cl,le15
2570,"1,3-Dimethyl-4-chlorobenzene",335.25,1,Cc1ccc(Cl)c(C)c1,le15
2571,"2-chloro-1,4-dimethylbenzene",330.35,1,Cc1ccc(C)c(Cl)c1,le15
2572,"Benzene, 1-(chloromethyl)-4-methyl-",348.75,1,Cc1ccc(CCl)cc1,le15
2573,1-(chloromethyl)-2-methylbenzene,349.15,1,Cc1ccccc1CCl,le15
2574,"1,2-Dimethyl-3-chlorobenzene",336.75,1,Cc1cccc(Cl)c1C,le15
2575,"4-chloro-1,2-dimethylbenzene",340.15,1,Cc1ccc(Cl)cc1C,le15
2576,1-(chloromethyl)-3-methylbenzene,348.75,1,Cc1cccc(CCl)c1,le15
2577,1-chloro-2-ethylbenzene,339.15,1,CCc1ccccc1Cl,le15
2578,"2-chloro-1,3-dimethylbenzene",336.45,1,Cc1cccc(C)c1Cl,le15
2579,1-bromo-3-fluoropropane,289.55,1,FCCCBr,le15
2580,"Butane, 1,4-dichloro-2,3-epoxy-",406.65,1,ClCC1OC1CCl,le15
2581,"1,3-dichlorobutan-2-one",332.15,1,CC(Cl)C(=O)CCl,le15
2582,4-chlorobutanoyl chloride,343.35,1,O=C(Cl)CCCCl,le15
2583,"1,1-dichloro-3-methylbutane",304.75,1,CC(C)CC(Cl)Cl,le15
2584,"2,4-dichloropentane",309.65,1,CC(Cl)CC(C)Cl,le15
2585,"1,2-dichloropentane",315.55,1,CCCC(Cl)CCl,le15
2586,"1,2-dichloro-2-methylbutane",308.95,1,CCC(C)(Cl)CCl,le15
2587,"2,3-dichloro-2-methylbutane",302.65,1,CC(Cl)C(C)(C)Cl,le15
2588,"Silane, dichloroethenylmethyl-",277.55,1,C[SiH2]C=C(Cl)Cl,le15
2589,"5-Furancarboxaldehyde, 5-nitro- (9CI)",306.15,1,O=CC1([N+](=O)[O-])C=CCO1,le15
2590,"Benzene, 1-fluoro-4-nitro-",356.45,1,O=[N+]([O-])c1ccc(F)cc1,le15
2591,"Benzene, 1-fluoro-3-nitro- (8CI)(9CI)",349.85,1,O=[N+]([O-])c1cccc(F)c1,le15
2592,"Benzene, 1-fluoro-2-nitro-",367.15,1,O=[N+]([O-])c1ccccc1F,le15
2593,"1H-Imidazole, 1,2-dimethyl-5-nitro- (9CI)",416.65,1,Cc1ncc([N+](=O)[O-])n1C,le15
2594,"2,5-Pyrrolidinedione, 3-ethyl-3-methyl-",396.95,1,CCC1(C)CC(=O)NC1=O,le15
2595,1-acetylpiperidin-4-one,361.05,1,CC(=O)N1CCC(=O)CC1,le15
2596,"Acetic acid, cyano-, butyl ester",364.15,1,CCCCOC(=O)CC#N,le15
2597,8-methyl-8-azabicyclo[3.2.1]octan-3-ol,385.65,1,CN1C2CCC1CC(O)C2,le15
2598,1-piperidin-2-ylpropan-2-one,347.45,1,CC(=O)CC1CCCCN1,le15
2599,1-(3-methylpiperidin-1-yl)ethanone,379.85,1,CC(=O)N1CCCC(C)C1,le15
2600,8-methyl-8-azabicyclo[3.2.1]octan-3-ol,385.65,1,CN1C2CCC1CC(O)C2,le15
2601,isothiocyanatocyclohexane,368.75,1,S=C=NC1CCCCC1,le15
2602,1-cyclopentyl-N-methylpropan-2-amine,318.65,1,CNC(C)CC1CCCC1,le15
2603,"2,2,6,6-tetramethylpiperidine",297.55,1,CC1(C)CCCC(C)(C)N1,le15
2604,1-butylpiperidine,332.95,1,CCCCN1CCCCC1,le15
2605,"Cyclohexanemethylamine, N,N-dimethyl- (6CI,7CI,8CI)",313.85,1,CN(C)CC1CCCCC1,le15
2606,"N,6-dimethylhept-5-en-2-amine",319.45,1,CNC(C)CCC=C(C)C,le15
2607,N-(oxomethylidene)sulfamoyl chloride,291.65,1,O=C=NS(=O)(=O)Cl,le15
2608,"Benzenamine, 3-chloro-2-methyl-",385.95,1,Cc1c(N)cccc1Cl,le15
2609,"Benzenamine, 6-chloro-2-methyl- (9CI)",372.05,1,Cc1cccc(Cl)c1N,le15
2610,"Benzenamine, 4-chloro-2-methyl-",372.55,1,Cc1cc(Cl)ccc1N,le15
2611,"Benzenamine, 3-chloro-4-methyl-",373.95,1,Cc1ccc(N)cc1Cl,le15
2612,"Benzenamine, 5-chloro-2-methyl-",433.15,1,Cc1ccc(Cl)cc1N,le15
2613,2-Chloro-5-methylaniline,380.15,1,Cc1ccc(Cl)c(N)c1,le15
2614,"Benzylamine, p-chloro- (8CI)",365.75,1,NCc1ccc(Cl)cc1,le15
2615,"Benzenamine, 2-chloro-4-methyl-",372.15,1,Cc1ccc(N)c(Cl)c1,le15
2616,4-chloro-N-methylaniline,372.55,1,CNc1ccc(Cl)cc1,le15
2617,4-chloro-3-methylaniline,372.95,1,Cc1cc(N)ccc1Cl,le15
2618,"Methane, iodo-",280.948,1,CI,le15
2619,"Ethanamine, 2-chloro-N-(2-chloroethyl)- (9CI)",350.45,1,ClCCNCCCl,le15
2620,"Acetic acid, trifluoro-, ethyl ester",272.15,1,CCOC(=O)C(F)(F)F,le15
2621,"Phosphinic acid, phenyl-",399.381,1,O=[PH](O)c1ccccc1,le15
2622,"4H-Pyran-4-one, 5-hydroxy-2-(hydroxymethyl)-",453.05,1,O=c1cc(CO)occ1O,le15
2623,"Hexa-2,4-dienedioic acid",450.05,1,O=C(O)C=CC=CC(=O)O,le15
2624,"Phosphorothioic acid, O,O-dimethyl ester",331.25,1,COP([O-])(=S)OC,le15
2625,"2-Propenoic acid, 2-methyl-, oxiranylmethyl ester",349.26099999999997,1,C=C(C)C(=O)OCC1CO1,le15
2626,prop-2-enyl 3-oxobutanoate,348.15,1,C=CCOC(=O)CC(C)=O,le15
2627,bis(prop-2-enyl) carbonate,332.05,1,C=CCOC(=O)OCC=C,le15
2628,"4(1H)-Pyrimidinone, 2,3-dihydro-6-methyl-2-thioxo-",433.95,1,Cc1cc(=O)[nH]c(=S)[nH]1,le15
2629,1methylnaphthalene,355.0,1,Cc1cccc2ccccc12,le15
2630,2methylnaphthalene,370.0,1,Cc1ccc2ccccc2c1,le15
2631,"2-Propenoic acid, 2-methyl-, 2-methylpropyl ester",319.15,1,C=C(C)C(=O)OCC(C)C,le15
2632,"2-Propenoic acid, 2-methyl-, butyl ester",323.75,1,C=C(C)C(=O)OCCCC,le15
2633,"2(3H)-Furanone, dihydro-5-butyl-",365.05,1,CCCCC1CCC(=O)O1,le15
2634,"3-Hexyne-2,5-diol, 2,5-dimethyl-",359.15,1,CC(C)(O)C#CC(C)(C)O,le15
2635,"2-Propenoic acid, 2-methyl-, 1,1-dimethylethyl ester",314.25,1,C=C(C)C(=O)OC(C)(C)C,le15
2636,"2H-Pyran-2-one, tetrahydro-6-propyl-",398.15,1,CCCC1CCCC(=O)O1,le15
2637,1-methylcyclohexane-1-carboxylic acid,387.15,1,CC1(C(=O)O)CCCCC1,le15
2638,1-(1-hydroxycyclohexyl)ethanone,369.05,1,CC(=O)C1(O)CCCCC1,le15
2639,ethyl (E)-hex-2-enoate,335.45,1,CCC/C=C/C(=O)OCC,le15
2640,"Cyclohex-2-ene-1,1-dimethanol",378.15,1,OCC1(CO)C=CCCC1,le15
2641,"Oxirane, 2,2'-(1,4-butanediyl)bis- (9CI)",370.95,1,C(CCC1CO1)CC1CO1,le15
2642,"2-Hexen-1-ol, acetate, (2E)-",331.15,1,CCC/C=C/COC(C)=O,le15
2643,"2-Propenoic acid, pentyl ester",321.35,1,C=CC(=O)OCCCCC,le15
2644,"3-Hexen-1-ol, acetate, (3Z)-",330.35,1,CC/C=C\CCOC(C)=O,le15
2645,"Cyclohexanecarboxylic acid, methyl ester",331.85,1,COC(=O)C1CCCCC1,le15
2646,2-cyclohexylacetic acid,397.05,1,O=C(O)CC1CCCCC1,le15
2647,"2-Hexenoic acid, 2-ethyl-",594.05,1,CCCC=C(CC)C(=O)O,le15
2648,"octane-4,5-dione",329.65,1,CCCC(=O)C(=O)CCC,le15
2649,"2-Butenoic acid, 2-methyl-, 1-methylethyl ester, (E)- (9CI)",328.05,1,C/C=C(\C)C(=O)OC(C)C,le15
2650,ethyl (E)-hex-3-enoate,332.55,1,CC/C=C/CC(=O)OCC,le15
2651,"2,5-dimethylhexane-3,4-dione",323.65,1,CC(C)C(=O)C(=O)C(C)C,le15
2652,"Urea, (1-methylcyclopentyl)-",360.95,1,CC1(NC(N)=O)CCCC1,le15
2653,"benzene-1,2-dithiol",385.85,1,Sc1ccccc1S,le15
2654,"benzene-1,2-dithiol",381.75,1,Sc1ccccc1S,le15
2655,"4-Heptanone, 2,6-dimethyl-",317.85,1,CC(C)CC(=O)CC(C)C,le15
2656,"Cyclohexanol, 3,3,5-trimethyl-",354.15,1,CC1CC(O)CC(C)(C)C1,le15
2657,"2,2,4,4-tetramethylpentan-3-one",305.95,1,CC(C)(C)C(=O)C(C)(C)C,le15
2658,nonan-3-one,340.95,1,CCCCCCC(=O)CC,le15
2659,nonan-4-one,334.55,1,CCCCCC(=O)CCC,le15
2660,"Cyclohexanol, 4-(1-methylethyl)-",353.95,1,CC(C)C1CCC(O)CC1,le15
2661,"Hexanal, 3,5,5-trimethyl-",319.85,1,CC(CC=O)CC(C)(C)C,le15
2662,"5-Hepten-2-ol, 2,6-dimethyl-",363.25,1,CC(C)=CCCC(C)(C)O,le15
2663,"(3S,5S)-3,5-dimethylheptan-4-one",317.85,1,CC[C@H](C)C(=O)[C@@H](C)CC,le15
2664,7-methyloctan-4-one,330.75,1,CCCC(=O)CCC(C)C,le15
2665,non-1-en-3-ol,342.65,1,C=CC(O)CCCCCC,le15
2666,"3,3,5-trimethylcyclohexan-1-ol",346.35,1,CC1CC(O)CC(C)(C)C1,le15
2667,"Cyclohexanol, 3,3,5-trimethyl-, (1R,5R)-rel-",361.15,1,C[C@H]1C[C@@H](O)CC(C)(C)C1,le15
2668,5nonanone,333.0,1,CCCCC(=O)CCCC,le15
2669,Diisobutylketone,322.0,1,CC(C)CC(=O)CC(C)C,le15
2670,"1,3-Cyclohexanebis(methylamine) (8CI)",379.15,1,NCC1CCCC(CN)C1,le15
2671,"Octane, 2,7-dimethyl-",354.45,1,CC(C)CCCCC(C)C,le15
2672,"2,5,5-trimethylheptane",312.85,1,CCC(C)(C)CCC(C)C,le15
2673,"2,4,6-trimethylheptane",310.25,1,CC(C)CC(C)CC(C)C,le15
2674,4-propylheptane,308.35,1,CCCC(CCC)CCC,le15
2675,"2,4,4-trimethylheptane",311.65,1,CCCC(C)(C)CC(C)C,le15
2676,"2,4-dimethyloctane",351.65,1,CCCCC(C)CC(C)C,le15
2677,"3,3-dimethyloctane",316.65,1,CCCCCC(C)(C)CC,le15
2678,5-ethyl-2-methylheptane,355.15,1,CCC(CC)CCC(C)C,le15
2679,"2,2,3,3-tetramethylhexane",316.85,1,CCCC(C)(C)C(C)(C)C,le15
2680,3-ethyl-2-methylheptane,358.05,1,CCCCC(CC)C(C)C,le15
2681,5-methylnonane,310.35,1,CCCCC(C)CCCC,le15
2682,"2,2-Dimethyloctane",314.05,1,CCCCCCC(C)(C)C,le15
2683,"3,4-dimethyloctane",359.65,1,CCCCC(C)C(C)CC,le15
2684,"3,5-dimethyloctane",354.15,1,CCCC(C)CC(C)CC,le15
2685,"3,6-dimethyloctane",356.65,1,CCC(C)CCC(C)CC,le15
2686,"4,5-dimethyloctane",359.05,1,CCCC(C)C(C)CCC,le15
2687,"2,2,4,5-tetramethylhexane",309.55,1,CC(C)C(C)CC(C)(C)C,le15
2688,3-ethyl-3-methylheptane,318.35,1,CCCCC(C)(CC)CC,le15
2689,"3,4-diethylhexane",358.95,1,CCC(CC)C(CC)CC,le15
2690,"2,4,5-trimethylheptane",313.85,1,CCC(C)C(C)CC(C)C,le15
2691,"3,3,4-trimethylheptane",317.55,1,CCCC(C)C(C)(C)CC,le15
2692,3-ethyl-5-methylheptane,355.85,1,CCC(C)CC(CC)CC,le15
2693,"2,2,5,5-tetramethylhexane",304.75,1,CC(C)(C)CCC(C)(C)C,le15
2694,"2,6-dimethyloctane",355.55,1,CCC(C)CCCC(C)C,le15
2695,"4,4-dimethyloctane",314.95,1,CCCCC(C)(C)CCC,le15
2696,4methylnonane,311.0,1,CCCCCC(C)CCC,le15
2697,"p-Benzoquinone, 2-chloro- (8CI)",356.35,1,O=C1C=CC(=O)C(Cl)=C1,le15
2698,"Phenol, 4-chloro-3-methyl-",366.55,1,Cc1cc(O)ccc1Cl,le15
2699,2-chloro-6-methylphenol,348.15,1,Cc1cccc(Cl)c1O,le15
2700,"Phenol, 2-chloro-5-methyl-",354.15,1,Cc1ccc(Cl)c(O)c1,le15
2701,"Anisole, p-chloro- (8CI)",345.45,1,COc1ccc(Cl)cc1,le15
2702,1-chloro-2-methoxybenzene,349.15,1,COc1ccccc1Cl,le15
2703,"Benzenemethanol, 4-chloro- (9CI)",343.15,1,OCc1ccc(Cl)cc1,le15
2704,"Phenol, 4-chloro-2-methyl-",363.25,1,Cc1cc(Cl)ccc1O,le15
2705,3-chloro-2-methylphenol,357.95,1,Cc1c(O)cccc1Cl,le15
2706,(2-chlorophenyl)methanol,368.55,1,OCc1ccccc1Cl,le15
2707,2-chloro-3-methylphenol,351.25,1,Cc1cccc(O)c1Cl,le15
2708,3-chloro-4-methylphenol,361.65,1,Cc1ccc(O)cc1Cl,le15
2709,3-Chlorobenzyl alcohol,368.55,1,OCc1cccc(Cl)c1,le15
2710,1-chloro-3-methoxybenzene,346.45,1,COc1cccc(Cl)c1,le15
2711,2-chloro-4-methylphenol,359.25,1,Cc1ccc(O)c(Cl)c1,le15
2712,"1,2-Benzenediamine, 4-chloro-",408.55,1,Nc1ccc(Cl)cc1N,le15
2713,"1,3-Benzenediamine, 4-chloro-",407.55,1,Nc1ccc(Cl)c(N)c1,le15
2714,chloro(phenyl)silicon,327.05,1,Cl[Si]c1ccccc1,le15
2715,"Carbonochloridic acid, 2-chloroethyl ester",343.15,1,O=C(Cl)OCCCl,le15
2716,"Propanoic acid, 2,3-dichloro- (9CI)",358.95,1,O=C(O)C(Cl)CCl,le15
2717,"1,2-dichloro-1-ethoxyethane",316.45,1,CCOC(Cl)CCl,le15
2718,chloro-(chloromethyl)-dimethylsilane,295.15,1,C[Si](C)(Cl)CCl,le15
2719,"2,4-Oxazolidinedione, 3,5,5-trimethyl-",321.15,1,CN1C(=O)OC(C)(C)C1=O,le15
2720,2-Naphthalenamine,430.25,1,Nc1ccc2ccccc2c1,le15
2721,"Quinoline, 6-methyl-",382.15,1,Cc1ccc2ncccc2c1,le15
2722,"Quinoline, 8-methyl-",377.15,1,Cc1cccc2cccnc12,le15
2723,"Quinoline, 7-methyl-",383.15,1,Cc1ccc2cccnc2c1,le15
2724,1-phenylpyrrole,368.45,1,c1ccc(-n2cccc2)cc1,le15
2725,3-methylisoquinoline,379.85,1,Cc1cc2ccccc2cn1,le15
2726,1-methylisoquinoline,379.85,1,Cc1nccc2ccccc12,le15
2727,2-phenyl-1H-pyrrole,397.75,1,c1ccc(-c2ccc[nH]2)cc1,le15
2728,"Quinoline, 5-methyl-",377.55,1,Cc1cccc2ncccc12,le15
2729,6-methylisoquinoline,385.45,1,Cc1ccc2cnccc2c1,le15
2730,"Quinoline, 2-methyl-",352.55,1,Cc1ccc2ccccc2n1,le15
2731,1-Naphthalenamine,425.25,1,Nc1cccc2ccccc12,le15
2732,"Quinoline, 4-methyl-",379.25,1,Cc1ccnc2ccccc12,le15
2733,"Acrylic acid, 3-(dimethylamino)-, ethyl ester, (E)-",342.05,1,CCOC(=O)/C=C/N(C)C,le15
2734,"2-Propenoic acid, 2-(dimethylamino)ethyl ester",302.15,1,C=CC(=O)OCCN(C)C,le15
2735,"N,N-diethylbutanamide",351.35,1,CCCC(=O)N(CC)CC,le15
2736,"N,N-dipropylacetamide",351.35,1,CCCN(CCC)C(C)=O,le15
2737,"Ethanol, 2-(cyclohexylamino)-",390.75,1,OCCNC1CCCCC1,le15
2738,"Pentanamide, 2-ethyl-3-methyl-",392.95,1,CCC(C)C(CC)C(N)=O,le15
2739,4-Isobutylmorpholine,322.95,1,CC(C)CN1CCOCC1,le15
2740,1-piperidin-2-ylpropan-1-ol,355.45,1,CCC(O)C1CCCCN1,le15
2741,"Morpholine, 4-butyl-",325.05,1,CCCCN1CCOCC1,le15
2742,"Valeramide, 2-propyl-",393.05,1,CCCC(CCC)C(N)=O,le15
2743,"Hexane, 1-isothiocyanato-",363.75,1,CCCCCCN=C=S,le15
2744,"1-Propanamine, N,N-dipropyl-",309.85,1,CCCN(CCC)CCC,le15
2745,"1-Butanamine, N-butyl-N-methyl-",315.35,1,CCCCN(C)CCCC,le15
2746,"Ethane, 1-bromo-2-chloro-",282.65,1,ClCCBr,le15
2747,"Hydroxylamine, N-(p-chlorophenyl)- (8CI)",379.15,1,ONc1ccc(Cl)cc1,le15
2748,2-chloro-6-methoxypyridine,349.25,1,COc1cccc(Cl)n1,le15
2749,"2-Pyrimidinamine, 4-chloro-6-methyl- (9CI)",424.15,1,Cc1cc(Cl)nc(N)n1,le15
2750,"Ethane, 1,1-dichloro-1-nitro-",304.85,1,CC(Cl)(Cl)[N+](=O)[O-],le15
2751,"p-Dioxane-2,5-dione, 3,6-dimethyl- (8CI)",423.75,1,CC1OC(=O)C(C)OC1=O,le15
2752,"Piperazine, 1,4-dinitroso-",472.55,1,O=NN1CCN(N=O)CC1,le15
2753,"4,6(1H,5H)-Pyrimidinedione, dihydro-2-thioxo-",507.15,1,O=C1CC(=O)NC(=S)N1,le15
2754,1-Naphthalenol,417.15,1,Oc1cccc2ccccc12,le15
2755,"2-Propenoic acid, 2-ethoxyethyl ester",325.95,1,C=CC(=O)OCCOCC,le15
2756,"Pentanoic acid, 4-oxo-, ethyl ester",351.05,1,CCOC(=O)CCC(C)=O,le15
2757,propan-2-yl 3-oxobutanoate,342.05,1,CC(=O)CC(=O)OC(C)C,le15
2758,"Quinoline, 8-amino-",444.65,1,Nc1cccc2cccnc12,le15
2759,"Quinoline, 6-amino- (8CI)",455.05,1,Nc1ccc2ncccc2c1,le15