,compound,flashpoint,pure substance,smiles,source
5742,"9,10-Anthracenedione, 1-hydroxy-",491.95,1,O=C1c2ccccc2C(=O)c2c(O)cccc21,le15
5743,"4-[cyclopropyl(hydroxy)methylidene]-3,5-dioxocyclohexane-1-carboxylic",523.85,1,O=C1CC(C(=O)O)CC(=O)C1=C(O)C1CC1,le15
5744,"Benzenebutanoic acid, alpha,2-diamino-3-hydroxy-gamma-oxo- (9CI)",541.05,1,Nc1c(O)cccc1C(=O)CC(N)C(=O)O,le15
5745,tripropan-2-yl phosphate,375.55,1,CC(C)OP(=O)(OC(C)C)OC(C)C,le15
5746,"Chalcone, 4'-hydroxy- (8CI)",452.25,1,O=C(C=Cc1ccccc1)c1ccc(O)cc1,le15
5747,"Phosphoric acid, tripropyl ester",394.45,1,CCCOP(=O)(OCCC)OCCC,le15
5748,"1H-Benzimidazol-5-amine, 2-(4-aminophenyl)-",590.75,1,Nc1ccc(-c2nc3cc(N)ccc3[nH]2)cc1,le15
5749,"2-Propanol, 1-butoxy-3-phenoxy-",436.25,1,CCCCOCC(O)COc1ccccc1,le15
5750,decylcyclohexane,400.65,1,CCCCCCCCCCC1CCCCC1,le15
5751,1hexadecene,405.0,1,C=CCCCCCCCCCCCCCC,le15
5752,"Toluene, o-bromo-alpha,alpha,alpha-trifluoro-",324.85,1,FC(F)(F)c1ccccc1Br,le15
5753,1-bromo-3-(trifluoromethyl)benzene,316.45,1,FC(F)(F)c1cccc(Br)c1,le15
5754,1-bromo-4-(trifluoromethyl)benzene,322.039,1,FC(F)(F)c1ccc(Br)cc1,le15
5755,"Pyrimidine, 4,6-dichloro-2-phenyl-",392.05,1,Clc1cc(Cl)nc(-c2ccccc2)n1,le15
5756,"Naphthalene, 1,4-bis(chloromethyl)-",460.35,1,ClCc1ccc(CCl)c2ccccc12,le15
5757,"2-Oxazolidinone, 3-(((5-nitro-2-furanyl)methylene)amino)-",440.65,1,O=C1OCCN1N=Cc1ccc([N+](=O)[O-])o1,le15
5758,"Benzamide, 2-methyl-3,5-dinitro-",407.15,1,Cc1c(C(N)=O)cc([N+](=O)[O-])cc1[N+](=O)[O-],le15
5759,"9H-Fluoren-9-one, 2-nitro-",488.25,1,O=C1c2ccccc2-c2ccc([N+](=O)[O-])cc21,le15
5760,1-Nitrophenazine,490.65,1,O=[N+]([O-])c1cccc2nc3ccccc3nc12,le15
5761,"Tyrosine, 3-carboxy-, DL-",520.15,1,NC(Cc1ccc(O)c(C(=O)O)c1)C(=O)O,le15
5762,"Benzene, 1-nitro-4-(2-phenylethenyl)- (9CI)",446.25,1,O=[N+]([O-])c1ccc(C=Cc2ccccc2)cc1,le15
5763,"Benzoic acid, 2-((phenylmethylene)amino)- (9CI)",493.65,1,O=C(O)c1ccccc1N=Cc1ccccc1,le15
5764,"Phenanthrene, 9,10-dihydro-2-nitro-",459.05,1,O=[N+]([O-])c1ccc2c(c1)CCc1ccccc1-2,le15
5765,"1,2-Propanediol, 3-(2-methylphenoxy)-, 1-carbamate (9CI)",505.95,1,Cc1ccccc1OCC(O)COC(N)=O,le15
5766,"1H-Purin-6-amine, N-(phenylmethyl)-",547.15,1,c1ccc(CNc2[nH]cnc3ncnc2-3)cc1,le15
5767,"9H-Purin-6-amine, 9-(phenylmethyl)- (9CI)",522.15,1,Nc1ncnc2c1ncn2Cc1ccccc1,le15
5768,"Benzenamine, 4-(2-(4-methoxyphenyl)ethenyl)-",488.55,1,COc1ccc(C=Cc2ccc(N)cc2)cc1,le15
5769,"Benzenamine, N,N-dimethyl-4-(phenylazo)-",451.35,1,CN(C)c1ccc(N=Nc2ccccc2)cc1,le15
5770,"1-Triazene, 1-(1,1'-biphenyl)-4-yl-3,3-dimethyl- (9CI)",433.65,1,CN(C)N=Nc1ccc(-c2ccccc2)cc1,le15
5771,"1,3,5-Triazine-2,4-diamine, 6-methoxy-N,N'-bis(1-methylethyl)-",444.05,1,COc1nc(NC(C)C)nc(NC(C)C)n1,le15
5772,"Phenol, 3,5-dimethyl-4-(methylthio)-, methylcarbamate (9CI)",414.85,1,CNC(=O)Oc1cc(C)c(SC)c(C)c1,le15
5773,"Benzenemethanamine, alpha-methyl-N-(1-phenylethyl)- (9CI)",410.35,1,CC(NC(C)c1ccccc1)c1ccccc1,le15
5774,"Benzoic acid, 2,3,6-trichloro-",423.25,1,O=C(O)c1c(Cl)ccc(Cl)c1Cl,le15
5775,"5-Chloro-alpha,alpha,alpha-trifluoro-2-nitrotoluene",367.05,1,O=[N+]([O-])c1ccc(Cl)cc1C(F)(F)F,le15
5776,"Toluene, 4-chloro-alpha,alpha,alpha-trifluoro-3-nitro- (8CI)",374.81699999999995,1,O=[N+]([O-])c1cc(C(F)(F)F)ccc1Cl,le15
5777,1-chloro-4-nitro-2-(trifluoromethyl)benzene,371.15,1,O=[N+]([O-])c1ccc(Cl)c(C(F)(F)F)c1,le15
5778,"Acetamide, 2-chloro-N-(2,6-diethylphenyl)-",450.25,1,CCc1cccc(CC)c1NC(=O)CCl,le15
5779,"Imidazole, 4,5-dibromo- (7CI,8CI)",461.95,1,Brc1nc[nH]c1Br,le15
5780,"1-bromo-2,4-dichlorobenzene",379.85,1,Clc1ccc(Br)c(Cl)c1,le15
5781,"2-bromo-1,3-dichlorobenzene",384.45,1,Clc1cccc(Cl)c1Br,le15
5782,"1-bromo-3,5-dichlorobenzene",377.05,1,Clc1cc(Cl)cc(Br)c1,le15
5783,"1-bromo-2,3-dichlorobenzene",381.85,1,Clc1cccc(Br)c1Cl,le15
5784,"2-bromo-1,4-dichlorobenzene",379.55,1,Clc1ccc(Cl)c(Br)c1,le15
5785,"4-bromo-1,2-dichlorobenzene",377.25,1,Clc1ccc(Br)cc1Cl,le15
5786,"Phenol, 2-(1-methylethyl)-4,6-dinitro- (9CI)",400.65,1,CC(C)c1cc([N+](=O)[O-])cc([N+](=O)[O-])c1O,le15
5787,"Tyrosine, 3-nitro-, L- (8CI)",487.95,1,N[C@@H](Cc1ccc(O)c([N+](=O)[O-])c1)C(=O)O,le15
5788,benzoyl benzoate,441.55,1,O=C(OC(=O)c1ccccc1)c1ccccc1,le15
5789,"9(10H)-Anthracenone, 1,8-dihydroxy- (9CI)",521.75,1,O=C1c2c(O)cccc2Cc2cccc(O)c21,le15
5790,"methyl 3,4,5-trimethoxybenzoate",388.35,1,COC(=O)c1cc(OC)c(OC)c(OC)c1,le15
5791,"9H-Fluoren-2-amine, 7-nitro- (9CI)",504.15,1,Nc1ccc2c(c1)Cc1cc([N+](=O)[O-])ccc1-2,le15
5792,"2-Propen-1-one, 1-(4-fluorophenyl)-3-phenyl- (9CI)",433.45,1,O=C(C=Cc1ccccc1)c1ccc(F)cc1,le15
5793,"2-Propen-1-one, 3-(4-fluorophenyl)-1-phenyl- (9CI)",430.45,1,O=C(C=Cc1ccc(F)cc1)c1ccccc1,le15
5794,"Benzoic acid, 2-phenylethyl ester",433.85,1,O=C(OCCc1ccccc1)c1ccccc1,le15
5795,"Acetic acid, phenyl-, p-tolyl ester (6CI,7CI,8CI)",395.45,1,Cc1ccc(OC(=O)Cc2ccccc2)cc1,le15
5796,"Benzeneacetic acid, phenylmethyl ester",528.45,1,O=C(Cc1ccccc1)OCc1ccccc1,le15
5797,"Propane, 1-(2-biphenylyloxy)-2,3-epoxy- (6CI,7CI,8CI)",410.45,1,c1ccc(-c2ccccc2OCC2CO2)cc1,le15
5798,"Propane, 1-(4-biphenyloxy)-2,3-epoxy- (7CI,8CI)",430.75,1,c1ccc(-c2ccc(OCC3CO3)cc2)cc1,le15
5799,"1-Propanone, 2-methyl-1,2-di-3-pyridinyl-",462.45,1,CC(C)(C(=O)c1cccnc1)c1cccnc1,le15
5800,"Acetamide, N-(4'-amino(1,1'-biphenyl)-4-yl)- (9CI)",508.45,1,CC(=O)Nc1ccc(-c2ccc(N)cc2)cc1,le15
5801,"Benzenemethanamide, N-nitroso-N-(phenylmethyl)- (9CI)",481.55,1,O=NN(Cc1ccccc1)C(=O)c1ccccc1,le15
5802,"Phosphorothioic acid, S-tert-butyl O,O-diethyl ester",383.35,1,CCOP(=O)(OCC)SC(C)(C)C,le15
5803,"1,4-Benzenediamine, N-(1-methylethyl)-N'-phenyl-",504.05,1,CC(C)Nc1ccc(Nc2ccccc2)cc1,le15
5804,"o-Toluidine, 4,4'-methylenedi- (8CI)",512.05,1,Cc1cc(Cc2ccc(N)c(C)c2)ccc1N,le15
5805,"2-Propenoic acid, 2-methyl-, decyl ester",387.85,1,C=C(C)C(=O)OCCCCCCCCCC,le15
5806,"Benzene, 1,2,4-trichloro-5-nitro-",402.85,1,O=[N+]([O-])c1cc(Cl)c(Cl)cc1Cl,le15
5807,pentadecan-8-one,356.25,1,CCCCCCCC(=O)CCCCCCC,le15
5808,pentadecan-2-one,357.05,1,CCCCCCCCCCCCCC(C)=O,le15
5809,"Nonane, 2,2,4,4,6,8,8-heptamethyl-",368.75,1,CC(CC(C)(C)C)CC(C)(C)CC(C)(C)C,le15
5810,"2,2,4,4,6,6,8-heptamethylnonane",383.35,1,CC(C)CC(C)(C)CC(C)(C)CC(C)(C)C,le15
5811,"1,4-Cyclohexadiene-1,2-dicarbonitrile, 4,5-dichloro-3,6-dioxo-",409.45,1,N#CC1=C(C#N)C(=O)C(Cl)=C(Cl)C1=O,le15
5812,"1,4-Naphthalenedione, 2,3-dichloro-",400.65,1,O=C1C(Cl)=C(Cl)C(=O)c2ccccc21,le15
5813,"1,2,3-Propanetriol, trinitrate",285.15,1,O=[N+]([O-])OCC(CO[N+](=O)[O-])O[N+](=O)[O-],le15
5814,"Benzene, 2-methyl-1,3,5-trinitro-",440.25,1,Cc1c([N+](=O)[O-])cc([N+](=O)[O-])cc1[N+](=O)[O-],le15
5815,"1-methyl-2,3,4-trinitrobenzene",504.65,1,Cc1ccc([N+](=O)[O-])c([N+](=O)[O-])c1[N+](=O)[O-],le15
5816,"Diazene, (4-nitrophenyl)phenyl- (9CI)",464.55,1,O=[N+]([O-])c1ccc(N=Nc2ccccc2)cc1,le15
5817,"Benzeneacetamide, alpha-hydroxy-alpha-phenyl- (9CI)",489.75,1,NC(=O)C(O)(c1ccccc1)c1ccccc1,le15
5818,N-(4-Phenoxyphenyl)acetamide,475.35,1,CC(=O)Nc1ccc(Oc2ccccc2)cc1,le15
5819,"Benzenamine, 2-methoxy-4-(phenylazo)- (9CI)",468.15,1,COc1cc(N=Nc2ccccc2)ccc1N,le15
5820,"Benzenamine, 4-(1-methylethoxy)-N-phenyl-",420.55,1,CC(C)Oc1ccc(Nc2ccccc2)cc1,le15
5821,"1,3,5-Triazine-2,4-diamine, N-ethyl-N'-(1-methylethyl)-6-(methylthio)-",466.65,1,CCNc1nc(NC(C)C)nc(SC)n1,le15
5822,"Phenol, 2,3,4-trichloro-6-methoxy-",403.05,1,COc1cc(Cl)c(Cl)c(Cl)c1O,le15
5823,"1-Pentanamine, N,N-dipentyl-",370.95,1,CCCCCN(CCCCC)CCCCC,le15
5824,"3-methyl-N,N-bis(3-methylbutyl)butan-1-amine",357.25,1,CC(C)CCN(CCC(C)C)CCC(C)C,le15
5825,1-Pentadecanamine,402.45,1,CCCCCCCCCCCCCCCN,le15
5826,"Benzonitrile, 4-chloro-3,5-dinitro-",424.35,1,N#Cc1cc([N+](=O)[O-])c(Cl)c([N+](=O)[O-])c1,le15
5827,"Phenol, 2-chloro-3-(1-methylethyl)-, methylcarbamate (9CI)",401.75,1,CNC(=O)Oc1cccc(C(C)C)c1Cl,le15
5828,"Benzene, (2-bromo-2-nitroethenyl)-",399.35,1,O=[N+]([O-])C(Br)=Cc1ccccc1,le15
5829,"8-Quinolinol, 5,7-dichloro-2-methyl-",439.05,1,Cc1ccc2c(Cl)cc(Cl)c(O)c2n1,le15
5830,2-Bromo-N-(4-methylphenyl)acetamide,441.85,1,Cc1ccc(NC(=O)CBr)cc1,le15
5831,"1-Triazene, 1-(4-bromophenyl)-3,3-dimethyl- (9CI)",385.25,1,CN(C)N=Nc1ccc(Br)cc1,le15
5832,"Benzoic acid, 2-hydroxy-3,5-dinitro-",446.95,1,O=C(O)c1cc([N+](=O)[O-])cc([N+](=O)[O-])c1O,le15
5833,"4-bromo-N,N-diethylaniline",398.25,1,CCN(CC)c1ccc(Br)cc1,le15
5834,"Benzeneacetic acid, alpha-hydroxy-alpha-phenyl-",488.45,1,O=C(O)C(O)(c1ccccc1)c1ccccc1,le15
5835,"Benzoic acid, 2-hydroxy-, phenylmethyl ester",410.15,1,O=C(OCc1ccccc1)c1ccccc1O,le15
5836,"Methanone, (2-hydroxy-4-methoxyphenyl)phenyl-",413.65,1,COc1ccc(C(=O)c2ccccc2)c(O)c1,le15
5837,"7H-Furo(3,2-g)(1)benzopyran-7-one, 2,5,9-trimethyl-",462.25,1,Cc1cc2cc3c(C)cc(=O)oc3c(C)c2o1,le15
5838,"Benzenamine, 4-methyl-N-(4-nitrophenyl)-",468.15,1,Cc1ccc(Nc2ccc([N+](=O)[O-])cc2)cc1,le15
5839,"Phosphine, diphenylpropyl-",423.65,1,PCCC(c1ccccc1)c1ccccc1,le15
5840,Triphenylene,482.25,1,c1ccc2c(c1)c1ccccc1c1ccccc21,le15
5841,Chrysene,482.25,1,c1ccc2c(c1)ccc1c3ccccc3ccc21,le15
5842,"Phenol, 4,4'-(1-methylethylidene)bis-",500.15,1,CC(C)(c1ccc(O)cc1)c1ccc(O)cc1,le15
5843,"Thiourea, N,N'-diphenyl-",437.85,1,S=C(Nc1ccccc1)Nc1ccccc1,le15
5844,"p-Toluenesulfonic acid, isobutyl ester",425.95,1,Cc1ccc(S(=O)(=O)OCC(C)C)cc1,le15
5845,"Benzenesulfonamide, 4-amino-N,N-diethyl-",454.25,1,CCN(CC)S(=O)(=O)c1ccc(N)cc1,le15
5846,"Phosphorodithioic acid, O-methyl S,S-dipropyl ester",404.45,1,CCCSP(=O)(OC)SCCC,le15
5847,"2,2-bis(ethylsulfonyl)propane",556.05,1,CCS(=O)(=O)C(C)(C)S(=O)(=O)CC,le15
5848,"Lauric acid, ethyl ester (8CI)",391.75,1,CCCCCCCCCCCC(=O)OCC,le15
5849,"Phosphonotrithioic acid, methyl-, dipropyl ester",409.45,1,CCCSP(C)(=S)SCCC,le15
5850,"Octanoic acid, hexyl ester",393.15,1,CCCCCCCC(=O)OCCCCCC,le15
5851,octyl hexanoate,393.15,1,CCCCCCCCOC(=O)CCCCC,le15
5852,pentadecan-1-ol,403.25,1,CCCCCCCCCCCCCCCO,le15
5853,pentadecan-2-ol,382.15,1,CCCCCCCCCCCCCC(C)O,le15
5854,"Butanoic acid, 4-(4-chloro-2-methylphenoxy)- (9CI)",464.65,1,Cc1cc(Cl)ccc1OCCCC(=O)O,le15
5855,"Acetic acid, bromo-, phenylmethyl ester",389.65,1,O=C(CBr)OCc1ccccc1,le15
5856,"Benzoic acid, p-bromo-, ethyl ester (8CI)",386.15,1,CCOC(=O)c1ccc(Br)cc1,le15
5857,ethyl 2-bromobenzoate,383.25,1,CCOC(=O)c1ccccc1Br,le15
5858,"2-(3-bromophenyl)-1,3-dioxolane",386.15,1,Brc1cccc(C2OCCO2)c1,le15
5859,ethyl 3-bromobenzoate,385.15,1,CCOC(=O)c1cccc(Br)c1,le15
5860,"Phenol, 2,4,6-trinitro-",407.05,1,O=[N+]([O-])c1cc([N+](=O)[O-])c(O)c([N+](=O)[O-])c1,le15
5861,"Salicylic acid, 4-amino-, phenyl ester (8CI)",472.75,1,Nc1ccc(C(=O)Oc2ccccc2)c(O)c1,le15
5862,"Furo(2,3-b)quinoline, 4,7-dimethoxy-",457.35,1,COc1ccc2c(OC)c3ccoc3nc2c1,le15
5863,"Furo(2,3-b)quinoline, 4,8-dimethoxy-",457.35,1,COc1c2ccoc2nc2c(OC)cccc12,le15
5864,"Benzamide, 2-hydroxy-N-(4-hydroxyphenyl)- (9CI)",439.05,1,O=C(Nc1ccc(O)cc1)c1ccccc1O,le15
5865,"Benzidine, 2-nitro-",486.85,1,Nc1ccc(-c2ccc(N)cc2[N+](=O)[O-])cc1,le15
5866,"Acetamide, N-(4'-fluoro(1,1'-biphenyl)-4-yl)- (9CI)",478.65,1,CC(=O)Nc1ccc(-c2ccc(F)cc2)cc1,le15
5867,"Acetanilide, 2-fluoro-4'-phenyl-",486.25,1,O=C(CF)Nc1ccc(-c2ccccc2)cc1,le15
5868,"Naphtho(1,2-h)quinoline",476.35,1,c1ccc2c(c1)ccc1c2ccc2cccnc21,le15
5869,"Naphtho(2,3-h)quinoline",476.35,1,c1ccc2cc3c(ccc4cccnc43)cc2c1,le15
5870,"Naphth(2,1-f)isoquinoline",486.35,1,c1ccc2c(c1)ccc1c3ccncc3ccc21,le15
5871,"Naphtho(2,1-f)quinoline",476.35,1,c1ccc2c(c1)ccc1c3cccnc3ccc21,le15
5872,"Benzenamine, 4-methoxy-N-(4-methoxyphenyl)-",423.65,1,COc1ccc(Nc2ccc(OC)cc2)cc1,le15
5873,"2-Naphthalenemethanol, alpha-(((1-methylethyl)amino)methyl)-",357.45,1,CC(C)NCC(O)c1ccc2ccccc2c1,le15
5874,"Melamine, N2,N4,N6-trichloro- (8CI)",478.55,1,ClNc1nc(NCl)nc(NCl)n1,le15
5875,"Pyrazinecarboxamide, 3,5-diamino-N-(aminoiminomethyl)-6-chloro-",606.85,1,NN=CNC(=O)c1nc(Cl)c(N)nc1N,le15
5876,"Benzoxazole, 2-(p-chlorophenyl)-",421.95,1,Clc1ccc(-c2nc3ccccc3o2)cc1,le15
5877,"4-Stilbenamine, 4'-chloro-",467.15,1,Nc1ccc(C=Cc2ccc(Cl)cc2)cc1,le15
5878,"1,3,5-Triazine-2,4-diamine, 6-chloro-N,N'-bis(1-methylethyl)-",452.55,1,CC(C)Nc1nc(Cl)nc(NC(C)C)n1,le15
5879,"1,3,5-Triazine-2,4-diamine, 6-chloro-N,N,N'-triethyl-",453.25,1,CCNc1nc(Cl)nc(N(CC)CC)n1,le15
5880,"Ether, 2-fluoroethyl (1,2,2,2-tetrachloro)ethyl",363.65,1,FCCOC(Cl)C(Cl)(Cl)Cl,le15
5881,2-bromo-2-methylpropanoyl bromide,376.15,1,CC(C)(Br)C(=O)Br,le15
5882,1-chloro-3-(trichloromethyl)benzene,375.05,1,Clc1cccc(C(Cl)(Cl)Cl)c1,le15
5883,1-chloro-2-(trichloromethyl)benzene,371.45,1,Clc1ccccc1C(Cl)(Cl)Cl,le15
5884,"1,2,4-trichloro-5-(chloromethyl)benzene",400.95,1,ClCc1cc(Cl)c(Cl)cc1Cl,le15
5885,"1,2-dichloro-4-(dichloromethyl)benzene",397.15,1,Clc1ccc(C(Cl)Cl)cc1Cl,le15
5886,"2,3-dibromopentane",327.55,1,CCC(Br)C(C)Br,le15
5887,"Pentane, 1,5-dibromo-",367.85,1,BrCCCCCBr,le15
5888,"Cyclopropanecarboxanilide, 3',4'-dichloro-",470.45,1,O=C(Nc1ccc(Cl)c(Cl)c1)C1CC1,le15
5889,"1H-Imidazol-2-amine, N-(2,6-dichlorophenyl)-4,5-dihydro-",420.05,1,Clc1cccc(Cl)c1NC1=NCCN1,le15
5890,"Benzophenone, 2,3,4-trihydroxy- (8CI)",507.05,1,O=C(c1ccccc1)c1ccc(O)c(O)c1O,le15
5891,"5H-Furo(3,2-g)(1)benzopyran-5-one, 4-methoxy-7-methyl-",455.65,1,COc1c2ccoc2cc2oc(C)cc(=O)c12,le15
5892,"4-Biphenylacetic acid, 2'-fluoro-",457.85,1,O=C(O)Cc1ccc(-c2ccccc2F)cc1,le15
5893,7H-Benz(de)anthracen-7-one,469.25,1,O=C1c2ccccc2-c2cccc3cccc1c23,le15
5894,"Phosphorodithioic acid, S-hydroxymethyl O,O-dimethyl ester, acetate",383.05,1,CC(=O)O.COP(=S)(OC)SCO,le15
5895,1-Pyrene carboxaldehyde,567.75,1,O=Cc1ccc2ccc3cccc4ccc1c2c34,le15
5896,11H-Benzo(a)fluoren-11-one,467.05,1,O=C1c2ccccc2-c2ccc3ccccc3c21,le15
5897,"Dibenzo(c,f)(2,7)naphthyridine",486.05,1,c1ccc2c(c1)ncc1cnc3ccccc3c12,le15
5898,"Phosphonothioic acid, ethyl-, O-ethyl S-phenyl ester",416.65,1,CCOP(=O)(CC)Sc1ccccc1,le15
5899,"2-Propanone, 1,1,1,3,3-pentachloro-",347.55,1,O=C(C(Cl)Cl)C(Cl)(Cl)Cl,le15
5900,"1H-Pyrido(3,4-b)indole-3-carboxylic acid, 2,3,4,9-tetrahydro-1-methyl-",522.05,1,CC1NC(C(=O)O)Cc2c1[nH]c1ccccc21,le15
5901,"Heptanedioic acid, 4-oxo-, diethyl ester",410.55,1,CCOC(=O)CCC(=O)CCC(=O)OCC,le15
5902,"diethyl piperazine-1,4-dicarboxylate",417.45,1,CCOC(=O)N1CCN(C(=O)OCC)CC1,le15
5903,"1,1':2',1''-Terphenyl",386.15,1,c1ccc(-c2ccccc2-c2ccccc2)cc1,le15
5904,"1,1':3',1''-Terphenyl",464.15,1,c1ccc(-c2cccc(-c3ccccc3)c2)cc1,le15
5905,"1,1':4',1''-Terphenyl",480.15,1,c1ccc(-c2ccc(-c3ccccc3)cc2)cc1,le15
5906,"Butanedioic acid, dibutyl ester",417.15,1,CCCCOC(=O)CCC(=O)OCCCC,le15
5907,"3H-Pyrazol-3-one, 1,2-dihydro-1,5-dimethyl-4-(1-methylethyl)-2-phenyl-",396.95,1,Cc1c(C(C)C)c(=O)n(-c2ccccc2)n1C,le15
5908,dibutan-2-yl butanedioate,382.95,1,CCC(C)OC(=O)CCC(=O)OC(C)CC,le15
5909,Dodecanedioic acid,493.15,1,O=C(O)CCCCCCCCCCC(=O)O,le15
5910,bis(3-methylbutyl) oxalate,387.45,1,CC(C)CCOC(=O)C(=O)OCCC(C)C,le15
5911,diethyl 2-(3-methylbutyl)propanedioate,382.95,1,CCOC(=O)C(CCC(C)C)C(=O)OCC,le15
5912,"Sebacic acid, dimethyl ester (8CI)",418.15,1,COC(=O)CCCCCCCCC(=O)OC,le15
5913,"Decanedioic acid, dihydrazide",538.55,1,NNC(=O)CCCCCCCCC(=O)NN,le15
5914,"Phosphorotrithioic acid, O,S,S-triethyl ester",400.85,1,CCOP(=S)(SCC)SCC,le15
5915,1-heptylsulfanylheptane,422.05,1,CCCCCCCSCCCCCCC,le15
5916,"2,3,4,5,6-pentafluorobenzoyl chloride",322.85,1,O=C(Cl)c1c(F)c(F)c(F)c(F)c1F,le15
5917,"Benzoyl chloride, 3,5-dinitro-",431.95,1,O=C(Cl)c1cc([N+](=O)[O-])cc([N+](=O)[O-])c1,le15
5918,"2H-1,2,4-Benzothiadiazine, 7-chloro-3-methyl-, 1,1-dioxide",477.85,1,CC1=Nc2ccc(Cl)cc2S(=O)(=O)N1,le15
5919,"Pyridine, 2-chloro-6-(trichloromethyl)-",408.05,1,Clc1cccc(C(Cl)(Cl)Cl)n1,le15
5920,"Benzenamine, 2,3,5,6-tetrachloro- (9CI)",407.85,1,Nc1c(Cl)c(Cl)cc(Cl)c1Cl,le15
5921,2-(2-carbonochloridoyloxyethoxy)ethyl carbonochloridate,391.35,1,O=C(Cl)OCCOCCOC(=O)Cl,le15
5922,"Benzaldehyde, 3-bromo-4-hydroxy-5-methoxy-",402.05,1,COc1cc(C=O)cc(Br)c1O,le15
5923,"Ethane, 1,1'-oxybis(2-(2-chloroethoxy)- (9CI)",381.85,1,ClCCOCCOCCOCCCl,le15
5924,"Bicyclo(2.2.1)heptan-2-one, 3-bromo-1,7,7-trimethyl-",308.95,1,CC12CCC(C(Br)C1=O)C2(C)C,le15
5925,"Benzimidazole, 5-nitro-2-(trifluoromethyl)-",446.65,1,O=[N+]([O-])c1ccc2nc(C(F)(F)F)[nH]c2c1,le15
5926,"3-Isoxazolecarboxylic acid, 5-methyl-, 2-(phenylmethyl)hydrazide",465.55,1,Cc1cc(C(=O)NNCc2ccccc2)no1,le15
5927,"Benzeneethanamine, N-ethyl-alpha-methyl-3-(trifluoromethyl)- (9CI)",373.95,1,CCNC(C)Cc1cccc(C(F)(F)F)c1,le15
5928,"Pyridine, 2,6-diphenyl-",439.55,1,c1ccc(-c2cccc(-c3ccccc3)n2)cc1,le15
5929,"2H-1-Benzopyran-2-one, 7-(diethylamino)-4-methyl-",425.15,1,CCN(CC)c1ccc2c(C)cc(=O)oc2c1,le15
5930,"Benzenesulfonamide, 4-amino-N-(aminothioxomethyl)- (9CI)",503.55,1,NC(=S)NS(=O)(=O)c1ccc(N)cc1,le15
5931,"3H-Pyrazol-3-one, 4-(dimethylamino)-1,2-dihydro-1,5-dimethyl-2-phenyl-",399.05,1,Cc1c(N(C)C)c(=O)n(-c2ccccc2)n1C,le15
5932,"Butanenitrile, 4-(triethoxysilyl)-",388.85,1,CCO[Si](CCCC#N)(OCC)OCC,le15
5933,2-Amino-4'-chlorobenzophenone,480.85,1,Nc1ccccc1C(=O)c1ccc(Cl)cc1,le15
5934,"Phenol, 2,3,4,6-tetrachloro-",388.85,1,Oc1c(Cl)cc(Cl)c(Cl)c1Cl,le15
5935,"Phenol, 2,3,5,6-tetrachloro-",384.85,1,Oc1c(Cl)c(Cl)cc(Cl)c1Cl,le15
5936,"Phenol, 2,3,4,5-tetrachloro-",401.95,1,Oc1cc(Cl)c(Cl)c(Cl)c1Cl,le15
5937,"Acetamide, N-(4-bromophenyl)-2-fluoro- (9CI)",447.45,1,O=C(CF)Nc1ccc(Br)cc1,le15
5938,"2-iodo-1,3-dimethylbenzene",375.15,1,Cc1cccc(C)c1I,le15
5939,"2,2,3,3,4,4,5,5-octafluoropentan-1-ol",348.75,1,OCC(F)(F)C(F)(F)C(F)(F)C(F)F,le15
5940,"Benzenamine, N,N-bis(2-chloroethyl)-4-methyl- (9CI)",430.65,1,Cc1ccc(N(CCCl)CCCl)cc1,le15
5941,"Succinimide, 2-methylene-N-(m-nitrophenyl)-",479.35,1,C=C1CC(=O)N(c2cccc([N+](=O)[O-])c2)C1=O,le15
5942,"Urea, 1,1-dimethyl-3-(alpha,alpha,alpha-trifluoro-m-tolyl)-",423.15,1,CN(C)C(=O)Nc1cccc(C(F)(F)F)c1,le15
5943,"1,6-Pyrenequinone",450.95,1,O=c1ccc2ccc3c(=O)ccc4ccc1c2c43,le15
5944,"1,8-Pyrenequinone",450.95,1,O=c1ccc2ccc3ccc(=O)c4ccc1c2c34,le15
5945,"2,4,6(1H,3H,5H)-Pyrimidinetrione, 5-ethyl-5-phenyl-",284.15,1,CCC1(c2ccccc2)C(=O)NC(=O)NC1=O,le15
5946,"2,6-Piperidinedione, 3-(4-aminophenyl)-3-ethyl-",503.55,1,CCC1(c2ccc(N)cc2)CCC(=O)NC1=O,le15
5947,"Acetamide, N-(2-(5-methoxy-1H-indol-3-yl)ethyl)- (9CI)",537.15,1,COc1ccc2[nH]cc(CCNC(C)=O)c2c1,le15
5948,"Phosphonodithioic acid, ethyl-, O-methyl S-phenyl ester",413.05,1,CCP(=S)(OC)Sc1ccccc1,le15
5949,"Urea, N-(2-methylcyclohexyl)-N'-phenyl- (9CI)",394.65,1,CC1CCCCC1NC(=O)Nc1ccccc1,le15
5950,"Phosphorodithioic acid, O,O-dimethyl S-2-(methylthio)ethyl ester",397.05,1,COP(=S)(OC)SCCSC,le15
5951,"1,3,5-Triazine-2,4,6(1H,3H,5H)-trione, 1,3,5-trichloro-",498.15,1,O=c1n(Cl)c(=O)n(Cl)c(=O)n1Cl,le15
5952,ethenyl-tri(propan-2-yloxy)silane,359.75,1,C=C[Si](OC(C)C)(OC(C)C)OC(C)C,le15
5953,Undecylbenzene,417.0,1,CCCCCCCCCCCc1ccccc1,le15
5954,"1H,3H-Naphtho(1,8-cd)pyran-1,3-dione, 6-chloro-",481.45,1,O=C1OC(=O)c2ccc(Cl)c3cccc1c23,le15
5955,2biphenylyl2chloroethylether,433.15,1,ClC(COCC(Cl)c1ccccc1-c1ccccc1)c1ccccc1-c1ccccc1,le15
5956,1-chlorotetradecane,403.15,1,CCCCCCCCCCCCCCCl,le15
5957,"(E)-2,3-dichloro-1,1,1,4,4,4-hexafluorobut-2-ene",276.35,1,FC(F)(F)/C(Cl)=C(\Cl)C(F)(F)F,le15
5958,"Phosphonic acid, ethenyl-, bis(2-chloroethyl) ester",438.65,1,C=CP(=O)(OCCCl)OCCCl,le15
5959,"2,3,5,6-Tetrafluoro-4-aminobenzotrifluoride",341.05,1,Nc1c(F)c(F)c(C(F)(F)F)c(F)c1F,le15
5960,"5-bromo-1,2-dihydroacenaphthylene",435.45,1,Brc1ccc2c3c(cccc13)CC2,le15
5961,1-bromo-2-phenylbenzene,406.85,1,Brc1ccccc1-c1ccccc1,le15
5962,"1,1'-Biphenyl, 3-bromo-",408.75,1,Brc1cccc(-c2ccccc2)c1,le15
5963,"Urea, N'-(3,4-dichlorophenyl)-N,N-dimethyl-",459.85,1,CN(C)C(=O)Nc1ccc(Cl)c(Cl)c1,le15
5964,"1,2,4-Triazin-3-amine, 6-(2-(5-nitro-2-furanyl)ethenyl)- (9CI)",525.95,1,Nc1ncc(C=Cc2ccc([N+](=O)[O-])o2)nn1,le15
5965,"2,2':6',2''-Terpyridine",455.65,1,c1ccc(-c2cccc(-c3ccccn3)n2)nc1,le15
5966,"2-Piperidineacetic acid, alpha-phenyl-, methyl ester",425.15,1,COC(=O)C(c1ccccc1)C1CCCCN1,le15
5967,"Sulfanilyl chloride, N-acetyl- (6CI,7CI,8CI)",485.05,1,CC(=O)Nc1ccc(S(=O)(=O)Cl)cc1,le15
5968,1-iodo-2-methoxybenzene,371.65,1,COc1ccccc1I,le15
5969,"Benzenemethanol, 2-iodo-",401.35,1,OCc1ccccc1I,le15
5970,1-iodo-4-methoxybenzene,368.25,1,COc1ccc(I)cc1,le15
5971,"2,3,5,6-Tetrafluoro-4-(trifluoromethyl)phenol",326.15,1,Oc1c(F)c(F)c(C(F)(F)F)c(F)c1F,le15
5972,"Carbamic acid, N-methyl-, 3,4-dichlorobenzyl ester",439.35,1,CNC(=O)OCc1ccc(Cl)c(Cl)c1,le15