,compound,flashpoint,pure substance,smiles,source
5684,methyl 3-methoxypropanoate,320.15,1.0,COCCC(=O)OC,le15
5685,ethyl 2-methoxyacetate,319.25,1.0,CCOC(=O)COC,le15
5686,"Ethanol, 2-methoxy-, acetate",317.0499999999999,1.0,COCCOC(C)=O,le15
5687,1H-indazole,401.65,1.0,c1ccc2[nH]ncc2c1,le15
5688,"Benzonitrile, p-amino- (8CI)",400.25,1.0,N#Cc1ccc(N)cc1,le15
5689,DiethylCarbonate,298.0,1.0,CCOC(=O)OCC,le15
5690,"Ethene, 1,1'-sulfonylbis-",375.15,1.0,C=CS(=O)(=O)C=C,le15
5691,"Thiophene, 2,5-dihydro-, 1,1-dioxide",385.15,1.0,O=S1(=O)CC=CC1,le15
5692,triethylphosphane,255.95,1.0,CCP(CC)CC,le15
5693,"Acetamide, N-(aminothioxomethyl)-",353.15,1.0,CC(=O)NC(N)=S,le15
5694,"Benzene, (1-methylethenyl)-",318.70599999999996,1.0,C=C(C)c1ccccc1,le15
5695,1-ethenyl-3-methylbenzene,320.5499999999999,1.0,C=Cc1cccc(C)c1,le15
5696,"Benzene, 2-propenyl-",306.45,1.0,CC=Cc1ccccc1,le15
5697,"1H-Indene, 2,3-dihydro-",323.15,1.0,c1ccc2c(c1)CCC2,le15
5698,"Benzene, 1-ethenyl-4-methyl-",321.85,1.0,C=Cc1ccc(C)cc1,le15
5699,cyclopropylbenzene,317.0499999999999,1.0,c1ccc(C2CC2)cc1,le15
5700,"Benzene, 1-propenyl-, (Z)-",322.5499999999999,1.0,C/C=C\c1ccccc1,le15
5701,3methylstyrene,324.0,1.0,C=Cc1cccc(C)c1,le15
5702,4methylstyrene,318.0,1.0,C=Cc1ccc(C)cc1,le15
5703,"2,3-dimethylbutane-2,3-diol",350.35,1.0,CC(C)(O)C(C)(C)O,le15
5704,"2-ethyl-2-methylpropane-1,3-diol",369.25,1.0,CCC(C)(CO)CO,le15
5705,"2,4-Pentanediol, 2-methyl-",367.05,1.0,CC(O)CC(C)(C)O,le15
5706,"1-Propanol, 3-(1-methylethoxy)- (9CI)",328.35,1.0,CC(C)OCCCO,le15
5707,"1-Butanol, 4-ethoxy-",330.0499999999999,1.0,CCOCCCCO,le15
5708,"Ethanol, 2-butoxy-",333.15,1.0,CCCCOCCO,le15
5709,"1,3-Pentanediol, 2-methyl-",381.65,1.0,CCC(O)C(C)CO,le15
5710,"Ethane, 1,2-diethoxy-",293.75,1.0,CCOCCOCC,le15
5711,"2-Propanol, 1-propoxy-",321.15,1.0,CCCOCC(C)O,le15
5712,"Ethanol, 2-(2-methylpropoxy)-",323.5499999999999,1.0,CC(C)COCCO,le15
5713,"3-methylpentane-2,4-diol",364.45,1.0,CC(O)C(C)C(C)O,le15
5714,"1,2-Hexanediol",395.15,1.0,CCCCC(O)CO,le15
5715,"1,3-Butanediol, 2,2-dimethyl-",360.75,1.0,CC(O)C(C)(C)CO,le15
5716,"2,4-Hexanediol",374.15,1.0,CCC(O)CC(C)O,le15
5717,1-propan-2-yloxypropan-2-ol,321.35,1.0,CC(O)COC(C)C,le15
5718,"Ethanol, 2-sec-butoxy-",323.35,1.0,CCC(C)OCCO,le15
5719,"Sulfide, methylvinyloxyethyl-",319.0499999999999,1.0,CC=COCCSCCOC=CC,le15
5720,1fluoroheptane,286.0,1.0,CCCCCCCF,le15
5721,1-Hexanethiol,303.15,1.0,CCCCCCS,le15
5722,Propyl sulfide (8CI),301.45,1.0,CCCSCCC,le15
5723,2-propan-2-ylsulfanylpropane,280.15,1.0,CC(C)SC(C)C,le15
5724,1-propan-2-ylsulfanylpropane,296.15,1.0,CCCSC(C)C,le15
5725,1-methylsulfanylpentane,312.85,1.0,CCCCCSC,le15
5726,ethoxy(trimethyl)silane,255.15,1.0,CCO[Si](C)(C)C,le15
5727,3-methylbut-2-enoyl chloride,324.15,1.0,CC(C)=CC(=O)Cl,le15
5728,2-chlorothiophene,295.15,1.0,Clc1cccs1,le15
5729,"Cyclohexane, chloro-",301.15,1.0,ClC1CCCCC1,le15
5730,"1-Propyne, 3-bromo-",290.25,1.0,C#CCBr,le15
5731,"Propanoic acid, 3-nitro- (9CI)",421.55,1.0,O=C(O)CC[N+](=O)[O-],le15
5732,"Acetic acid, nitro-, methyl ester",378.15,1.0,COC(=O)C[N+](=O)[O-],le15
5733,"2,1-benzoxazole",367.05,1.0,c1ccc2nocc2c1,le15
5734,"1,3-benzoxazole",338.45,1.0,c1ccc2ocnc2c1,le15
5735,"Benzonitrile, 4-hydroxy-",397.05,1.0,N#Cc1ccc(O)cc1,le15
5736,"Benzonitrile, 3-hydroxy-",380.75,1.0,N#Cc1cccc(O)c1,le15
5737,(E)-3-(furan-2-yl)prop-2-enenitrile,360.35,1.0,N#C/C=C/c1ccco1,le15
5738,1H-Benzotriazole,407.05,1.0,c1ccc2[nH]nnc2c1,le15
5739,2-methylpropyl nitrate,314.0499999999999,1.0,CC(C)CO[N+](=O)[O-],le15
5740,butan-2-yl nitrate,314.0499999999999,1.0,CCC(C)O[N+](=O)[O-],le15
5741,"Ethanol, 2-methoxy-, carbamate",404.15,1.0,COCCOC(N)=O,le15
5742,"Hydrazinecarbothioamide, 1-formyl- (9CI)",364.65,1.0,NC(=S)N(N)C=O,le15
5743,"Pyridine, 5-ethenyl-2-methyl-",329.75,1.0,C=Cc1ccc(C)nc1,le15
5744,"2,3-dihydro-1H-indole",365.95,1.0,c1ccc2c(c1)CCN2,le15
5745,N-methyl-1-phenylmethanimine,386.15,1.0,CN=Cc1ccccc1,le15
5746,"Benzenamine, 4-ethenyl-",381.75,1.0,C=Cc1ccc(N)cc1,le15
5747,"Ethanol, 2,2'-(methylimino)bis-",399.85,1.0,CN(CCO)CCO,le15
5748,"2,2-dimethoxy-N-methylethanamine",302.5499999999999,1.0,CNCC(OC)OC,le15
5749,MethylDiethanolAmine,411.0,1.0,CN(CCO)CCO,le15
5750,2-Thiazolidinethione,341.25,1.0,S=C1NCCS1,le15
5751,"Acetonitrile, bromo-",297.45,1.0,N#CCBr,le15
5752,trimethylarsane,373.15,1.0,C[As](C)C,le15
5753,"1,1-dinitroethane",352.15,1.0,CC([N+](=O)[O-])[N+](=O)[O-],le15
5754,"Urea, 1,3-bis(hydroxymethyl)- (8CI)",505.45,1.0,O=C(NCO)NCO,le15
5755,"Benzene, (epoxyethyl)-",352.54999999999984,1.0,c1ccc(C2CO2)cc1,le15
5756,"Acetaldehyde, phenyl- (8CI)",362.35,1.0,O=CCc1ccccc1,le15
5757,"Isobenzofuran, 1,3-dihydro-",336.15,1.0,c1ccc2c(c1)COC2,le15
5758,"Benzofuran, 2,3-dihydro-",339.15,1.0,c1ccc2c(c1)CCO2,le15
5759,o-Tolualdehyde (8CI),352.65,1.0,Cc1ccccc1C=O,le15
5760,"Benzaldehyde, 3-methyl-",351.15,1.0,Cc1cccc(C=O)c1,le15
5761,4-ethenylphenol,365.45,1.0,C=Cc1ccc(O)cc1,le15
5762,"Ethanone, 1-phenyl-",354.04999999999984,1.0,CC(=O)c1ccccc1,le15
5763,"2-(hydroxymethyl)-2-methylpropane-1,3-diol",418.65,1.0,CC(CO)(CO)CO,le15
5764,"Ethanol, 2-(2-methoxyethoxy)-",357.04999999999984,1.0,COCCOCCO,le15
5765,"1,3-dimethoxypropan-2-ol",331.35,1.0,COCC(O)COC,le15
5766,"1,1,1-trimethoxyethane",289.15,1.0,COC(C)(OC)OC,le15
5767,"3-ethoxypropane-1,2-diol",372.65,1.0,CCOCC(O)CO,le15
5768,"Thiophene, tetrahydro-, 1,1-dioxide",443.828,1.0,O=S1(=O)CCCC1,le15
5769,"Acetic acid, mercapto-, ethyl ester",320.95,1.0,CCOC(=O)CS,le15
5770,(Ethylsulphonyl)ethylene,382.15,1.0,C=CS(=O)(=O)CC,le15
5771,methyl 3-sulfanylpropanoate,333.15,1.0,COC(=O)CCS,le15
5772,"Benzene, (1-methylethyl)-",304.15,1.0,CC(C)c1ccccc1,le15
5773,1-ethyl-2-methylbenzene,312.5499999999999,1.0,CCc1ccccc1C,le15
5774,"Bicyclo(2.2.1)hept-2-ene, 5-ethenyl-",299.35,1.0,C=CC1CC2C=CC1C2,le15
5775,"Bicyclo(2.2.1)hept-2-ene, 5-ethylidene-",311.45,1.0,CC=C1CC2C=CC1C2,le15
5776,"1H-Indene, 3a,4,7,7a-tetrahydro-",306.95,1.0,C1=CCC2CC=CC2C1,le15
5777,5ethylidene2norbornene,311.0,1.0,CC=C1CC2C=CC1C2,le15
5778,mEthyltoluene,311.0,1.0,CCc1ccccc1,le15
5779,Ethanedithioamide,379.35,1.0,NC(=S)C(N)=S,le15
5780,"1,3-Dithiane",363.15,1.0,C1CSCSC1,le15
5781,"1,4-Dithiane",355.25,1.0,C1CSCCS1,le15
5782,"Carbonochloridic acid, 2-propenyl ester",361.15,1.0,C=CCOC(=O)Cl,le15
5783,prop-1-en-2-yl carbonochloridate,289.25,1.0,C=C(C)OC(=O)Cl,le15
5784,Pentanoyl chloride,305.95,1.0,CCCCC(=O)Cl,le15
5785,"Oxetane, 3-(chloromethyl)-3-methyl-",316.0499999999999,1.0,CC1(CCl)COC1,le15
5786,2-methylbutanoyl chloride,298.65,1.0,CCC(C)C(=O)Cl,le15
5787,3-methylbutanoyl chloride,298.65,1.0,CC(C)CC(=O)Cl,le15
5788,"2,2-dimethylpropanoyl chloride",282.0499999999999,1.0,CC(C)(C)C(=O)Cl,le15
5789,1-chlorohexane,299.15,1.0,CCCCCCCl,le15
5790,3-chloro-3-methylpentane,282.5499999999999,1.0,CCC(C)(Cl)CC,le15
5791,3-chlorohexane,298.15,1.0,CCCC(Cl)CC,le15
5792,"1-chloro-3,3-dimethylbutane",292.15,1.0,CC(C)(C)CCCl,le15
5793,3-(chloromethyl)pentane,298.15,1.0,CCC(CC)CCl,le15
5794,[(E)-2-chloroethenyl]-dimethylsilicon,269.15,1.0,C[Si](C)/C=C/Cl,le15
5795,"Methane, dichlorodifluoro-",284.15,1.0,FC(F)(Cl)Cl,le15
5796,2-bromoprop-1-ene,327.15,1.0,C=C(C)Br,le15
5797,"1-Propene, 3-bromo-",272.15,1.0,C=CCBr,le15
5798,"Peroxide, acetyl nitro",357.85,1.0,CC(=O)OO[N+](=O)[O-],le15
5799,4-fluorobenzonitrile,338.75,1.0,N#Cc1ccc(F)cc1,le15
5800,3-fluorobenzonitrile,340.15,1.0,N#Cc1cccc(F)c1,le15
5801,"Ethanone, 1-(3-pyridinyl)-",377.15,1.0,CC(=O)c1cccnc1,le15
5802,"Benzaldehyde, p-amino- (8CI)",395.14099999999996,1.0,Nc1ccc(C=O)cc1,le15
5803,"Benzene, 1-methyl-2-nitroso- (9CI)",347.85,1.0,Cc1ccccc1N=O,le15
5804,"Benzaldehyde, oxime, (Z)-",382.05,1.0,O/N=C\c1ccccc1,le15
5805,"Ethanone, 1-(4-pyridinyl)-",360.15,1.0,CC(=O)c1ccncc1,le15
5806,"Ethanone, 1-(2-pyridinyl)-",346.45,1.0,CC(=O)c1ccccn1,le15
5807,"Formamide, N-phenyl-",423.35,1.0,O=CNc1ccccc1,le15
5808,L-Cysteine,404.65,1.0,N[C@@H](CS)C(=O)O,le15
5809,2-phenylethanamine,363.75,1.0,NCCc1ccccc1,le15
5810,"Benzenamine, 2,3-dimethyl-",369.15,1.0,Cc1cccc(N)c1C,le15
5811,"Benzenamine, 2,6-dimethyl-",364.15,1.0,Cc1cccc(C)c1N,le15
5812,"Benzenemethanamine, 2-methyl-",357.04999999999984,1.0,Cc1ccccc1CN,le15
5813,"Benzenamine, 2,4-dimethyl-",363.75,1.0,Cc1ccc(N)c(C)c1,le15
5814,"Benzenamine, 2,5-dimethyl-",367.05,1.0,Cc1ccc(C)c(N)c1,le15
5815,(3-methylphenyl)methanamine,353.75,1.0,Cc1cccc(CN)c1,le15
5816,"Benzenamine, N-ethyl-",358.15,1.0,CCNc1ccccc1,le15
5817,"Benzylamine, p-methyl- (8CI)",348.15,1.0,Cc1ccc(CN)cc1,le15
5818,"Benzenamine, 3,5-dimethyl-",366.45,1.0,Cc1cc(C)cc(N)c1,le15
5819,3-ethyl-4-methylpyridine,343.251,1.0,CCc1cnccc1C,le15
5820,4-ethyl-2-methylpyridine,330.15,1.0,CCc1ccnc(C)c1,le15
5821,"Aniline, o-ethyl- (8CI)",358.15,1.0,CCc1ccccc1N,le15
5822,"o-Toluidine, N-methyl- (8CI)",349.54999999999984,1.0,CNc1ccccc1C,le15
5823,"Benzenemethanamine, alpha-methyl-",348.95300000000015,1.0,CC(N)c1ccccc1,le15
5824,"m-Toluidine, N-methyl- (8CI)",350.45,1.0,CNc1cccc(C)c1,le15
5825,"2,4,5-trimethylpyridine",331.0499999999999,1.0,Cc1cc(C)c(C)cn1,le15
5826,2-ethyl-6-methylpyridine,316.5499999999999,1.0,CCc1cccc(C)n1,le15
5827,4-propylpyridine,337.66,1.0,CCCc1ccncc1,le15
5828,"2,3,6-trimethylpyridine",320.75,1.0,Cc1ccc(C)c(C)n1,le15
5829,"2,3,4-trimethylpyridine",335.0499999999999,1.0,Cc1ccnc(C)c1C,le15
5830,"Benzenamine, 3,4-dimethyl-",371.45,1.0,Cc1ccc(N)cc1C,le15
5831,N-methyl-1-phenylmethanamine,350.95,1.0,CNCc1ccccc1,le15
5832,"Pyridine, 5-ethyl-2-methyl-",339.25,1.0,CCc1ccc(C)nc1,le15
5833,"Benzenamine, 3-ethyl- (9CI)",358.15,1.0,CCc1cccc(N)c1,le15
5834,"Aniline, p-ethyl- (8CI)",358.15,1.0,CCc1ccc(N)cc1,le15
5835,"N,4-dimethylaniline",345.25,1.0,CNc1ccc(C)cc1,le15
5836,2-propan-2-ylpyridine,296.35,1.0,CC(C)c1ccccn1,le15
5837,"2,3,5-trimethylpyridine",315.95,1.0,Cc1cnc(C)c(C)c1,le15
5838,"Benzaldehyde, 2-hydroxy-",349.85,1.0,O=Cc1ccccc1O,le15
5839,"Benzaldehyde, 4-hydroxy-",374.45,1.0,O=Cc1ccc(O)cc1,le15
5840,"Benzene, 1,2-methylenedioxy-",328.15,1.0,c1ccc2c(c1)OCO2,le15
5841,"2,5-Cyclohexadiene-1,4-dione, 2-methyl-",338.0499999999999,1.0,CC1=CC(=O)C=CC1=O,le15
5842,"Benzaldehyde, 3-hydroxy-",371.75,1.0,O=Cc1cccc(O)c1,le15
5843,"2-Propenal, 3-(2-furanyl)-",361.95,1.0,O=CC=Cc1ccco1,le15
5844,3-Pyridinecarboxamide,429.15,1.0,NC(=O)c1cccnc1,le15
5845,"1,2,3,4-Butanetetrol, (2R,3S)-rel-",481.95,1.0,OC[C@H](O)[C@H](O)CO,le15
5846,"4-Pyridinecarboxaldehyde, oxime",345.25,1.0,ON=Cc1ccncc1,le15
5847,"2-Pyridinecarboxaldehyde, oxime",346.65,1.0,ON=Cc1ccccn1,le15
5848,4-Pyridinecarboxamide,429.15,1.0,NC(=O)c1ccncc1,le15
5849,"1,2-Oxathiolane, 2,2-dioxide",406.931,1.0,O=S1(=O)CCCO1,le15
5850,Phenethyl alcohol,371.55,1.0,OCCc1ccccc1,le15
5851,"Benzyl alcohol, o-methyl- (8CI)",377.55,1.0,Cc1ccccc1CO,le15
5852,"Phenol, 2-ethyl-",351.45,1.0,CCc1ccccc1O,le15
5853,"Phenol, 3,4-dimethyl-",367.15,1.0,Cc1ccc(O)cc1C,le15
5854,1-methoxy-3-methylbenzene,327.15,1.0,COc1cccc(C)c1,le15
5855,"Benzene, 1-methoxy-4-methyl-",326.45,1.0,COc1ccc(C)cc1,le15
5856,"Ether, benzyl methyl (8CI)",326.15,1.0,COCc1ccccc1,le15
5857,"Phenol, 2,6-dimethyl-",351.45,1.0,Cc1cccc(C)c1O,le15
5858,1-methoxy-2-methylbenzene,324.15,1.0,COc1ccccc1C,le15
5859,"Benzenemethanol, 3-methyl-",378.75,1.0,Cc1cccc(CO)c1,le15
5860,4-Methyl-benzenemethanol (9CI),378.15,1.0,Cc1ccc(CO)cc1,le15
5861,"Phenol, m-ethyl- (8CI)",367.15,1.0,CCc1cccc(O)c1,le15
5862,1-phenylethanol,358.15,1.0,CC(O)c1ccccc1,le15
5863,"Ether, 1,3,5-cycloheptatrien-1-yl methyl (7CI,8CI)",345.65,1.0,COC1=CC=CC=CC1,le15
5864,"Benzene, ethoxy-",328.15,1.0,CCOc1ccccc1,le15
5865,"Phenol, 3,5-dimethyl-",365.45,1.0,Cc1cc(C)cc(O)c1,le15
5866,"1,4-Benzenediamine, 2-methyl-",413.75,1.0,Cc1cc(N)ccc1N,le15
5867,"1,3-Benzenediamine, 4-methyl-",422.65,1.0,Cc1ccc(N)cc1N,le15
5868,"1,2-Benzenediamine, 4-methyl-",405.25,1.0,Cc1ccc(N)c(N)c1,le15
5869,"1,3-Benzenediamine, 2-methyl-",421.45,1.0,Cc1c(N)cccc1N,le15
5870,"4-Pyridinamine, N,N-dimethyl-",344.85,1.0,CN(C)c1ccncc1,le15
5871,"2,6-dimethylpyridin-4-amine",399.60699999999997,1.0,Cc1cc(N)cc(C)n1,le15
5872,"2-Pyridinamine, N,N-dimethyl- (9CI)",347.15,1.0,CN(C)c1ccccn1,le15
5873,"2,3,5-Trimethylpyrazine",327.5499999999999,1.0,Cc1cnc(C)c(C)n1,le15
5874,1-methyl-1-phenylhydrazine,366.75,1.0,CN(N)c1ccccc1,le15
5875,"1,2-Benzenediamine, 3-methyl-",404.25,1.0,Cc1cccc(N)c1N,le15
5876,Ethyl sulfone (8CI),391.55,1.0,CCS(=O)(=O)CC,le15
5877,"Silane, trimethoxy-",268.75,1.0,CO[SiH](OC)OC,le15
5878,prop-2-ynylcyclohexane,310.65,1.0,C#CCC1CCCCC1,le15
5879,methyl(phenyl)silicon,311.65,1.0,C[Si]c1ccccc1,le15
5880,Ethyl disulfide (8CI),313.15,1.0,CCSSCC,le15
5881,"1,2-bis(methylsulfanyl)ethane",333.0499999999999,1.0,CSCCSC,le15
5882,DiethylDisulfide,313.0,1.0,CCSSCC,le15
5883,methyl 2-chloro-2-oxoacetate,319.85,1.0,COC(=O)C(=O)Cl,le15
5884,"Carbonochloridic acid, 1-methylethyl ester",298.15,1.0,CC(C)OC(=O)Cl,le15
5885,propyl carbonochloridate,302.25,1.0,CCCOC(=O)Cl,le15
5886,"Butyric acid, 4-chloro- (8CI)",374.25,1.0,O=C(O)CCCCl,le15
5887,methyl 3-chloropropanoate,313.65,1.0,COC(=O)CCCl,le15
5888,2-ethoxyacetyl chloride,480.55,1.0,CCOCC(=O)Cl,le15
5889,methyl 2-chloropropanoate,310.75,1.0,COC(=O)C(C)Cl,le15
5890,"Acetic acid, chloro-, ethyl ester",338.75,1.0,CCOC(=O)CCl,le15
5891,Ethylchloroacetate,326.0,1.0,CCOC(=O)CCl,le15
5892,Acetyl bromide,322.75,1.0,CC(=O)Br,le15
5893,"Acetaldehyde, bromo-",346.75,1.0,O=CCBr,le15
5894,"1,4-dichlorobut-2-yne",433.15,1.0,ClCC#CCCl,le15
5895,"2,3-dichlorobuta-1,3-diene",310.35,1.0,C=C(Cl)C(=C)Cl,le15
5896,"Propane, 2-bromo-",292.5499999999999,1.0,CC(C)Br,le15
5897,3-Pyridinecarboxylic acid,403.85,1.0,O=C(O)c1cccnc1,le15
5898,4-Pyridinecarboxylic acid,466.45,1.0,O=C(O)c1ccncc1,le15
5899,2-Pyrazinecarboxamide,443.05,1.0,NC(=O)c1cnccn1,le15
5900,"Benzenamine, 2-methoxy-",380.15,1.0,COc1ccccc1N,le15
5901,2-(2-Pyridyl)ethanol,365.95,1.0,OCCc1ccccn1,le15
5902,"Phenol, 4-(methylamino)- (9CI)",421.75,1.0,CNc1ccc(O)cc1,le15
5903,"Benzenamine, 3-methoxy-",382.75,1.0,COc1cccc(N)c1,le15
5904,"Benzenemethanol, 3-amino- (9CI)",402.75,1.0,Nc1cccc(CO)c1,le15
5905,"Phenol, 5-amino-2-methyl-",389.45,1.0,Cc1ccc(N)cc1O,le15
5906,"Phenol, 2-amino-3-methyl-",372.05,1.0,Cc1cccc(O)c1N,le15
5907,"Phenol, 2-amino-5-methyl-",372.95,1.0,Cc1ccc(N)c(O)c1,le15
5908,4-Pyridineethanol,374.65,1.0,OCCc1ccncc1,le15
5909,"Benzenemethanol, 2-amino-",399.45,1.0,Nc1ccccc1CO,le15
5910,"p-Cresol, 2-amino- (8CI)",371.75,1.0,Cc1ccc(O)c(N)c1,le15
5911,"Benzenamine, 4-methoxy-",377.65,1.0,COc1ccc(N)cc1,le15
5912,"Ethanone, 1-(1-methyl-1H-pyrrol-2-yl)-",349.35,1.0,CC(=O)c1cccn1C,le15
5913,"3-ethyl-2,4-dimethyl-1H-pyrrole",344.15,1.0,CCc1c(C)c[nH]c1C,le15
5914,1-butylpyrrole,330.0499999999999,1.0,CCCCn1cccc1,le15
5915,"Propane, 2-chloro-2-nitro-",310.5499999999999,1.0,CC(C)(Cl)[N+](=O)[O-],le15
5916,2-chloro-1-nitropropane,332.95,1.0,CC(Cl)C[N+](=O)[O-],le15
5917,"Propane, 1-chloro-2-nitro-",332.95,1.0,CC(CCl)[N+](=O)[O-],le15
5918,"Propionitrile, 2,3-dichloro- (6CI,7CI,8CI)",357.04999999999984,1.0,N#CC(Cl)CCl,le15
5919,"Phosphorous acid, trimethyl ester",356.85,1.0,COP(OC)OC,le15
5920,"Phosphonic acid, methyl-, dimethyl ester",342.0499999999999,1.0,COP(C)(=O)OC,le15
5921,"Methanol, phosphinidynetri- (7CI,8CI)",415.45,1.0,OCP(CO)CO,le15
5922,Trimethylphosphite,300.0,1.0,COP(OC)OC,le15
5923,"Acetic acid, 2,2-difluoro-, ethyl ester",298.15,1.0,CCOC(=O)C(F)F,le15
5924,benzoyl fluoride,327.45,1.0,O=C(F)c1ccccc1,le15
5925,"Benzaldehyde, m-fluoro- (8CI)",329.85,1.0,O=Cc1cccc(F)c1,le15
5926,"Benzaldehyde, p-fluoro- (8CI)",329.85,1.0,O=Cc1ccc(F)cc1,le15
5927,"Benzaldehyde, o-fluoro- (8CI)",328.15,1.0,O=Cc1ccccc1F,le15
5928,"1,3,2-Dioxathiolane, 2,2-dioxide",366.65,1.0,O=S1(=O)OCCO1,le15
5929,"Phenol, 2-methoxy-",355.35,1.0,COc1ccccc1O,le15
5930,"1,4-Benzenediol, 2-methyl-",413.35,1.0,Cc1cc(O)ccc1O,le15
5931,"Phenol, 3-methoxy-",392.25,1.0,COc1cccc(O)c1,le15
5932,"Phenol, 4-methoxy-",393.95,1.0,COc1ccc(O)cc1,le15
5933,"1,2-Benzenediol, 4-methyl- (9CI)",394.25,1.0,Cc1ccc(O)c(O)c1,le15
5934,"1,2-Benzenediol, 3-methyl-",389.85,1.0,Cc1cccc(O)c1O,le15
5935,"4-methylbenzene-1,3-diol",403.25,1.0,Cc1ccc(O)cc1O,le15
5936,"1,3-Benzenediol, 5-methyl-",432.15,1.0,Cc1cc(O)cc(O)c1,le15
5937,"1,3-Benzenediol, 2-methyl-",416.05,1.0,Cc1c(O)cccc1O,le15
5938,"Benzyl alcohol, m-hydroxy- (8CI)",420.485,1.0,OCc1cccc(O)c1,le15
5939,"4,6-dimethylpyran-2-one",363.25,1.0,Cc1cc(C)oc(=O)c1,le15
5940,"2,6-dimethylpyran-4-one",376.55,1.0,Cc1cc(=O)cc(C)o1,le15
5941,"Benzyl alcohol, p-hydroxy- (8CI)",418.95,1.0,OCc1ccc(O)cc1,le15
5942,ethyl methanesulfonate,373.15,1.0,CCOS(C)(=O)=O,le15
5943,"Cyclohexanol, 1-ethynyl-",346.15,1.0,C#CC1(O)CCCCC1,le15
5944,"3-Cyclohexene-1-carboxaldehyde, 6-methyl-",326.35,1.0,CC1CC=CCC1C=O,le15
5945,"7-Oxabicyclo(4.1.0)heptane, 3-ethenyl-",321.25,1.0,C=CC1CCC2OC2C1,le15
5946,1-(cyclohexen-1-yl)ethanone,346.35,1.0,CC(=O)C1=CCCCC1,le15
5947,"3,5-dimethylcyclohex-2-en-1-one",352.15,1.0,CC1=CC(=O)CC(C)C1,le15
5948,2tertbutylfuran,280.0,1.0,CC(C)(C)c1ccco1,le15
5949,Benzenemethanethiol,343.15,1.0,SCc1ccccc1,le15
5950,"Sulfide, methyl phenyl (6CI,8CI)",330.35,1.0,CSc1ccccc1,le15
5951,3-methylbenzenethiol,345.95,1.0,Cc1cccc(S)c1,le15
5952,2-methylbenzenethiol,337.0499999999999,1.0,Cc1ccccc1S,le15
5953,4-methylbenzenethiol,342.65,1.0,Cc1ccc(S)cc1,le15
5954,Benzenemethanethiol,343.0,1.0,SCc1ccccc1,le15
5955,bicyclo[3.3.1]nonane,310.45,1.0,C1CC2CCCC(C1)C2,le15
5956,"1H-Indene, octahydro-",310.45,1.0,C1CCC2CCCC2C1,le15
5957,non-2-yne,312.15,1.0,CC#CCCCCCC,le15
5958,non-3-yne,310.75,1.0,CCC#CCCCCC,le15
5959,non-4-yne,311.45,1.0,CCCC#CCCCC,le15
5960,"2-chloro-1,1-dimethoxyethane",302.039,1.0,COC(CCl)OC,le15
5961,"Ethanol, 2-(2-chloroethoxy)-",363.75,1.0,OCCOCCCl,le15
5962,"Formic acid, chlorothio-, S-ethyl ester (7CI,8CI)",303.75,1.0,CCSC(=O)Cl,le15
5963,1-chloro-5-fluoropentane,310.0499999999999,1.0,FCCCCCCl,le15
5964,"Sulfide, 2-chloroethyl ethyl (8CI)",325.15,1.0,CCSCCCl,le15
5965,"2-Propenal, 3,3-dichloro- (9CI)",327.15,1.0,O=CC=C(Cl)Cl,le15
5966,2-Bromo-1-ethanol,313.15,1.0,OCCBr,le15
5967,bromo(methoxy)methane,299.85,1.0,COCBr,le15
5968,"2-Butene, 1,4-dichloro-",327.5499999999999,1.0,ClCC=CCCl,le15
5969,"1-Propene, 3-chloro-2-(chloromethyl)- (9CI)",309.85,1.0,C=C(CCl)CCl,le15
5970,"(Z)-1,2-dichlorobut-2-ene",305.5499999999999,1.0,C/C=C(\Cl)CCl,le15
5971,"1H-Pyrrole-2,5-dione, 1-ethyl-",346.15,1.0,CCN1C(=O)C=CC1=O,le15
5972,"2-Propenoic acid, 2-cyano-, ethyl ester",352.35,1.0,C=C(C#N)C(=O)OCC,le15
5973,"s-Triazine, 2,4-diamino-6-methyl- (8CI)",525.15,1.0,Cc1nc(N)nc(N)n1,le15
5974,4-Fluoro-N-methylaniline,336.65,1.0,CNc1ccc(F)cc1,le15
5975,1-Hydroxy-1-cyclohexanecarbonitrile,385.25,1.0,N#CC1(O)CCCCC1,le15
5976,"Benzenethiol, 2-amino-",368.95,1.0,Nc1ccccc1S,le15
5977,8-methyl-8-azabicyclo[3.2.1]octane,315.35,1.0,CN1C2CCCC1CC2,le15
5978,"2,3,3a,4,5,6,7,7a-octahydro-1H-indole",332.5499999999999,1.0,C1CCC2NCCC2C1,le15
5979,Octanenitrile,346.0,1.0,CCCCCCCC#N,le15
5980,"Phosphoric acid, dimethyl ester",323.5499999999999,1.0,COP(=O)([O-])OC,le15
5981,"Phosphoric acid, monoethyl ester",379.55,1.0,CCOP(=O)([O-])[O-],le15
5982,Bis-(hydroxymethyl)-phosphinic acid,578.25,1.0,O=P(O)(CO)CO,le15
5983,"2-Furancarboxaldehyde, 5-(hydroxymethyl)-",352.54999999999984,1.0,O=Cc1ccc(CO)o1,le15
5984,"1,3,5-Benzenetriol",448.05,1.0,Oc1cc(O)cc(O)c1,le15
5985,"4H-Pyran-4-one, 3-hydroxy-2-methyl-",400.47,1.0,Cc1occc(=O)c1O,le15
5986,"1,2,4-Trihydroxybenzene",307.35,1.0,Oc1ccc(O)c(O)c1,le15
5987,"2-Furancarboxylic acid, methyl ester",331.75,1.0,COC(=O)c1ccco1,le15
5988,"2(1H)-Pyrimidinone, 4-hydroxy-6-methyl- (8CI)",481.15,1.0,Cc1cc(O)nc(=O)[nH]1,le15
5989,1-fluoro-2-methoxybenzene,322.95,1.0,COc1ccccc1F,le15
5990,1-fluoro-3-methoxybenzene,317.0499999999999,1.0,COc1cccc(F)c1,le15
5991,"Benzenemethanol, 4-fluoro- (9CI)",363.15,1.0,OCc1ccc(F)cc1,le15
5992,1-fluoro-4-methoxybenzene,316.15,1.0,COc1ccc(F)cc1,le15
5993,"Sulfuric acid, dimethyl ester",356.48299999999995,1.0,COS(=O)(=O)OC,le15
5994,"2-Propenoic acid, 2-methyl-, 2-propenyl ester",310.15,1.0,C=CCOC(=O)C(=C)C,le15
5995,cyclohexene-1-carboxylic acid,384.15,1.0,O=C(O)C1=CCCCC1,le15