,compound,flashpoint,pure substance,smiles,source
14454,Toluene,277.15,1.0,Cc1ccccc1,le15
14455,trans2buten1ol,305.95,1.0,C/C=C/CO,le15
14456,TrichloroAcetaldehyde,323.15,1.0,O=CC(Cl)(Cl)Cl,le15
14457,trichloromethylBenzene,354.15,1.0,ClC(Cl)(Cl)c1ccccc1,le15
14458,TrichloroSilane-,245.15,1.0,Cl[SiH](Cl)Cl,le15
14459,Tridecane,352.15,1.0,CCCCCCCCCCCCC,le15
14460,TriethoxyChloroSilane,320.15,1.0,CCO[Si](Cl)(OCC)OCC,le15
14461,TriethoxySilane,299.15,1.0,CCO[SiH](OCC)OCC,le15
14462,TriethylAcetoxySilane,314.15,1.0,CCC(CC)(CC)C(=O)O[SiH3],le15
14463,TriethylChloroSilane,303.15,1.0,CC[Si](Cl)(CC)CC,le15
14464,Triethylenetetramine,408.15,1.0,NCCNCCNCCN,le15
14465,Triethylorthoformate,303.15,1.0,CCOC(OCC)OCC,le15
14466,TriethylSilane-,271.15,1.0,CC[SiH](CC)CC,le15
14467,TrifluoroAceticAcid,344.15,1.0,O=C(O)C(F)(F)F,le15
14468,TrifluoromethylBenzene,285.15,1.0,FC(F)(F)c1ccccc1,le15
14469,TriisopropylSilane,310.15,1.0,CC(C)[SiH](C(C)C)C(C)C,le15
14470,Trimethoxychlorosilane,295.15,1.0,CO[Si](Cl)(OC)OC,le15
14471,TrimethylBromoSilane-,270.15,1.0,C[Si](C)(C)Br,le15
14472,Trimethylchlorosilane-,246.15,1.0,C[Si](C)(C)Cl,le15
14473,TrimethylFluoroSilane-,238.15,1.0,C[Si](C)(C)F,le15
14474,TrimethylPhenylSilane,313.15,1.0,C[Si](C)(C)c1ccccc1,le15
14475,TrimethylSilane-,204.15,1.0,C[SiH](C)C,le15
14476,TrimethylSilylIsothiocyanate,308.15,1.0,C[Si](C)(C)N=C=S,le15
14477,TrimethylsilylTrifluoroacetate,273.15,1.0,C[Si](C)(C)OC(=O)C(F)(F)F,le15
14478,TrimethylVinylSilane-,239.15,1.0,CC(C)=C(C)[SiH3],le15
14479,TripropylAmine,302.15,1.0,CCCN(CCC)CCC,le15
14480,TrisdimethylaminoSilane,298.15,1.0,CN(C)[SiH](N(C)C)N(C)C,le15
14481,TrisTrimethylSiloxyMethylSilane,336.15,1.0,C[Si](C)(C)OC([SiH3])(O[Si](C)(C)C)O[Si](C)(C)C,le15
14482,TrivinylMethylSilane,288.15,1.0,C=CC([SiH3])(C=C)C=C,le15
14483,Undecane,333.15,1.0,CCCCCCCCCCC,le15
14484,Valeraldehyde,285.0,1.0,CCCCC=O,le15
14485,Valeronitrile,313.0,1.0,CCCCC#N,le15
14486,Vinylacetate,265.15,1.0,C=CCC(=O)[O-],le15
14487,VinylDiethylMethylSilane,288.15,1.0,C=C[Si](C)(CC)CC,le15
14488,VinylDimethylEthoxySilane,277.15,1.0,C=C[Si](C)(C)OCC,le15
14489,Vinylmethyldichlorosilane,277.15,1.0,C=CC[SiH](Cl)Cl,le15
14490,VinylMethylDiethoxySilane,289.15,1.0,C=CC[SiH](OCC)OCC,le15
14491,VinylPentamethylDisiloxane,285.15,1.0,C=C[Si](C)(C)O[Si](C)(C)C,le15
14492,VinylTriacetoxySilane,361.15,1.0,C=C[Si](OC(C)=O)(OC(C)=O)OC(C)=O,le15
14493,Vinyltrichlorosilane,288.65,1.0,C=C[Si](Cl)(Cl)Cl,le15
14494,VinylTriethoxySilane,312.15,1.0,C=C[Si](OCC)(OCC)OCC,le15
14495,VinylTriethylSilane,302.15,1.0,C=C[Si](CC)(CC)CC,le15
14496,VinylTrimethoxySilane,296.15,1.0,C=C[Si](OC)(OC)OC,le15
14497,VinylTrimethylSilane-,253.15,1.0,C=C[Si](C)(C)C,le15
14498,"1,2propadiene",171.99999999999997,1.0,C=C=C,le15
14499,Aziridine,262.04999999999995,1.0,C1CN1,le15
14500,Acetaldehyde,246.15,1.0,CC=O,le15
14501,Dimethylether,232.15,1.0,COC,le15
14502,ethanol,286.15,1.0,CCO,le15
14503,2propenenitrile,273.15,1.0,C=CC#N,le15
14504,"1,3butadiene",197.0,1.0,C=CC=C,le15
14505,1butyne-,210.15,1.0,C#CCC,le15
14506,2butyne-,224.15,1.0,CC#CC,le15
14507,2propenal,254.25,1.0,C=CC=O,le15
14508,MethylIsocyanate,255.15,1.0,CN=C=O,le15
14509,2methylaziridine-,263.15,1.0,CC1CN1,le15
14510,Allylamine,244.15,1.0,C=CCN,le15
14511,Acetone,253.15,1.0,CC(C)=O,le15
14512,Allylalcohol,294.15,1.0,C=CCO,le15
14513,Propionaldehyde,243.15,1.0,CCC=O,le15
14514,Isopropylamine,256.15,1.0,CC(C)N,le15
14515,Aceticacid,312.15,1.0,CC(=O)O,le15
14516,hydroxyacetaldehyde,360.15,1.0,O=CCO,le15
14517,Methylformate,254.15,1.0,COC=O,le15
14518,2propanol,285.15,1.0,CC(C)O,le15
14519,Ethylmethylether,235.95,1.0,CCOC,le15
14520,"1,2ethanediamine",307.0,1.0,NCCN,le15
14521,EthylSilane-,213.15,1.0,CC[SiH3],le15
14522,"1,2ethanediol",384.0,1.0,OCCO,le15
14523,Dimethylsulfide,237.15,1.0,CSC,le15
14524,Ethanethiol,256.15,1.0,CCS,le15
14525,Ethylchloride,230.15,1.0,CCCl,le15
14526,"1,3cyclopentadiene",298.0,1.0,C1=CCC=C1,le15
14527,1pentene3yne-,243.15,1.0,C=CC#CC,le15
14528,1pentene4yne-,229.15,1.0,C#CCC=C,le15
14529,2methyl1butene3yne-,221.15,1.0,C#CC(=C)C,le15
14530,3butenenitrile,294.15,1.0,C=CCC#N,le15
14531,Cyclopropanecarbonitrile,305.95,1.0,N#CC1CC1,le15
14532,1Hpyrazole,355.15,1.0,c1cn[nH]c1,le15
14533,"1,2pentadiene-",233.15,1.0,C=C=CCC,le15
14534,"1,3pentadiene-",231.15,1.0,C=CC=CC,le15
14535,"1,4pentadiene",277.0,1.0,C=CCC=C,le15
14536,"2,3pentadiene-",236.15,1.0,CC=C=CC,le15
14537,3methyl1butyne-,221.15,1.0,C#CC(C)C,le15
14538,Isoprene,219.15,1.0,C=CC(=C)C,le15
14539,Butyronitrile,289.85,1.0,CCCC#N,le15
14540,Isobutyronitrile,281.0,1.0,CC(C)C#N,le15
14541,"2,3dihydrofuran",249.0,1.0,C1=COCC1,le15
14542,"2,5dihydrofuran-",257.15,1.0,C1=CCOC1,le15
14543,Crotonaldehyde,286.15,1.0,C/C=C/C=O,le15
14544,Isobutenal,273.0,1.0,C=C(C)C=O,le15
14545,Methacrolein,258.15,1.0,C=C(C)C=O,le15
14546,Methylvinylketone,266.15,1.0,C=CC(C)=O,le15
14547,2pentene-,226.15,1.0,CC=CCC,le15
14548,Cyclopentane,236.15,1.0,C1CCCC1,le15
14549,Pyrrolidine,275.95,1.0,C1CCNC1,le15
14550,"2,3dimethyloxirane",258.15,1.0,CC1OC1C,le15
14551,2butanone,264.15,1.0,CCC(C)=O,le15
14552,2methyl2propen1ol,306.45,1.0,C=C(C)CO,le15
14553,3buten1ol,310.95,1.0,C=CCCO,le15
14554,Butyraldehyde,266.45,1.0,CCCC=O,le15
14555,Ethylvinylether,255.15,1.0,C=COCC,le15
14556,Isobutyraldehyde,254.85,1.0,CC(C)C=O,le15
14557,Tetrahydrofuran,259.15,1.0,C1CCOC1,le15
14558,trans2buten1ol,305.95,1.0,C/C=C/CO,le15
14559,"2,2dimethylpropane",208.0,1.0,CC(C)(C)C,le15
14560,Pentane,224.15,1.0,CCCCC,le15
14561,Methylisothiocyanate,305.35,1.0,CN=C=S,le15
14562,Butylamine,272.15,1.0,CCCCN,le15
14563,Diethylamine,250.15,1.0,CCNCC,le15
14564,Isobutylamine,264.15,1.0,CC(C)CN,le15
14565,"1,3dioxolane",275.0,1.0,C1COCO1,le15
14566,Ethylformate,253.15,1.0,CCOC=O,le15
14567,methylacetate,263.15,1.0,COC(C)=O,le15
14568,PropanoicAcid,324.15,1.0,CCC(=O)O,le15
14569,2butanol,297.15,1.0,CCC(C)O,le15
14570,4butylalcohol,284.15,1.0,CCCCO,le15
14571,Diethylether,228.15,1.0,CCOCC,le15
14572,Isobutylalcohol,301.15,1.0,CC(C)CO,le15
14573,methylpropylether,253.15,1.0,CCCOC,le15
14574,"1,2propanediamine",306.0,1.0,CC(N)CN,le15
14575,"1,3propanediamine",321.0,1.0,NCCCN,le15
14576,TrimethylSilane-,204.15,1.0,C[SiH](C)C,le15
14577,Glycine ,372.666,1.0,NCC(=O)O,le15
14578,Nitroethane,301.15,1.0,CC[N+](=O)[O-],le15
14579,1amino2propanol,350.35,1.0,CC(O)CN,le15
14580,2methylaminoEthanol,347.04999999999984,1.0,CNCCO,le15
14581,3amino1propanol,352.15,1.0,NCCCO,le15
14582,"1,2propanediol",380.0,1.0,CC(O)CO,le15
14583,2methoxyethanol,312.15,1.0,COCCO,le15
14584,Dimethoxymethane,255.0,1.0,COCOC,le15
14585,2fluoro2methylpropane,260.95,1.0,CC(C)(C)F,le15
14586,1propanethiol,252.55,1.0,CCCS,le15
14587,2chloro1propene-,239.15,1.0,C=C(C)Cl,le15
14588,3chloro1propene-,241.15,1.0,C=CCCl,le15
14589,Allylchloride,241.15,1.0,C=CCCl,le15
14590,Benzene,262.15,1.0,c1ccccc1,le15
14591,Acetylchloride,277.15,1.0,CC(=O)Cl,le15
14592,Isopropylchloride,241.15,1.0,CC(C)Cl,le15
14593,Pyridine,293.15,1.0,c1ccncc1,le15
14594,Succinonitrile,405.35,1.0,N#CCCC#N,le15
14595,"1,3cyclohexadiene",299.0,1.0,C1=CCCC=C1,le15
14596,"1,4cyclohexadiene",267.0,1.0,C1=CCC=CC1,le15
14597,2chloroethanol,333.15,1.0,OCCCl,le15
14598,"1,2hexadiene-",253.15,1.0,C=C=CCCC,le15
14599,"1,4hexadiene",252.15,1.0,C=CCC=CC,le15
14600,"1,5hexadiene",246.0,1.0,C=CCCC=C,le15
14601,"2,4hexadiene-",266.15,1.0,CC=CC=CC,le15
14602,3hexyne-,256.15,1.0,CCC#CCC,le15
14603,"2,2dimethylpropanenitrile",277.0,1.0,CC(C)(C)C#N,le15
14604,Pentanenitrile,313.75,1.0,CCCCC#N,le15
14605,Valeronitrile,313.0,1.0,CCCCC#N,le15
14606,4methylene2oxetanone,307.15,1.0,C=C1CC(=O)O1,le15
14607,"2,3dihydro5methylfuran",261.0,1.0,CC1=CCCO1,le15
14608,"3,4dihydro2Hpyran",255.15,1.0,C1=COCCC1,le15
14609,3methyl3buten2one,294.15,1.0,C=C(C)C(C)=O,le15
14610,Cyclopentanone,299.15,1.0,O=C1CCCC1,le15
14611,Thiophene,272.04999999999995,1.0,c1ccsc1,le15
14612,"2,3dimethyl1butene",255.0,1.0,C=C(C)C(C)C,le15
14613,"2,3dimethyl2butene",257.0,1.0,CC(C)=C(C)C,le15
14614,"3,3dimethyl1butene",245.0,1.0,C=CC(C)(C)C,le15
14615,4methyl2pentene-,238.15,1.0,CC=CC(C)C,le15
14616,Cyclohexane,253.15,1.0,C1CCCCC1,le15
14617,Piperidine,289.15,1.0,C1CCNCC1,le15
14618,"2,3butanedione",299.85,1.0,CC(=O)C(C)=O,le15
14619,2methyl2propenoicAcid,340.15,1.0,C=C(C)C(=O)O,le15
14620,Methyl2propenoat-,270.15,1.0,C=CC(=O)OC,le15
14621,Methylacrylate,279.15,1.0,C=CC(=O)OC,le15
14622,Vinylacetate,265.15,1.0,C=CCC(=O)[O-],le15
14623,2methyltetrahydrofuran,262.04999999999995,1.0,CC1CCCO1,le15
14624,2pentanone,280.35,1.0,CCCC(C)=O,le15
14625,3methylbutanal-,268.15,1.0,CC(C)CC=O,le15
14626,Cyclopentanol,324.15,1.0,OC1CCCC1,le15
14627,IsopropylVinylether,241.15,1.0,C=COC(C)C,le15
14628,MethylIsopropenylKetone,286.0,1.0,C=C(C)C(C)=O,le15
14629,Tetrahydropyran,253.15,1.0,C1CCOCC1,le15
14630,Valeraldehyde,285.0,1.0,CCCCC=O,le15
14631,"2,2dimethylbutane",225.15,1.0,CCC(C)(C)C,le15
14632,"2,3dimethylbutane",244.15,1.0,CC(C)C(C)C,le15
14633,hexane,250.15,1.0,CCCCCC,le15
14634,2methylbutylAmine-,257.15,1.0,CCC(C)CN,le15
14635,2pentaneamine,266.45,1.0,CCCC(C)N,le15
14636,"1,3dioxane",274.15,1.0,C1COCOC1,le15
14637,"1,4dioxane",285.15,1.0,C1COCCO1,le15
14638,1methoxy2propanone,293.15,1.0,COCC(C)=O,le15
14639,Butyricacid,350.15,1.0,CCCC(=O)O,le15
14640,Ethylacetate,270.15,1.0,CCOC(C)=O,le15
14641,Isobutyricacid,328.75,1.0,CC(C)C(=O)O,le15
14642,Isopropylformate,267.15,1.0,CC(C)OC=O,le15
14643,Methylpropionate,271.15,1.0,CCC(=O)OC,le15
14644,Propylformate,270.15,1.0,CCCOC=O,le15
14645,1pentanol,306.15,1.0,CCCCCO,le15
14646,"2,2dimethyl1propanol",310.15,1.0,CC(C)(C)CO,le15
14647,Isopentylalcohol,316.15,1.0,CC(C)CCO,le15
14648,methylsecbutylether,243.0,1.0,CCC(C)OC,le15
14649,tertbutylmethylether,245.0,1.0,COC(C)(C)C,le15
14650,DiethylSilane-,253.15,1.0,CC[SiH2]CC,le15
14651,EthylDimethylSilane-,248.15,1.0,CC[SiH](C)C,le15
14652,TetramethylSilane-,245.15,1.0,C[Si](C)(C)C,le15
14653,1nitropropane,308.75,1.0,CCC[N+](=O)[O-],le15
14654,2nitropropane,297.15,1.0,CC(C)[N+](=O)[O-],le15
14655,1methoxy2propaneamine,281.15,1.0,COCC(C)N,le15
14656,2amino2methyl1propanol,340.35,1.0,CC(C)(N)CO,le15
14657,3methoxypropylamine,305.35,1.0,COCCCN,le15
14658,"1,1dimethoxyethane",256.0,1.0,COC(C)OC,le15
14659,"1,2butanediol",366.0,1.0,CCC(O)CO,le15
14660,"1,2dimethoxyethane",271.45,1.0,COCCOC,le15
14661,"1,3butanediol",394.0,1.0,CC(O)CCO,le15
14662,"1,4butanediol",394.25,1.0,OCCCCO,le15
14663,1methoxy2propanol,305.15,1.0,COCC(C)O,le15
14664,"2,3butanediol",358.0,1.0,CC(O)C(C)O,le15
14665,2ethoxyethanol,316.45,1.0,CCOCCO,le15
14666,2methoxy1propanol,309.15,1.0,COC(C)CO,le15
14667,1butanethiol,274.85,1.0,CCCCS,le15
14668,2methyl1propanethiol-,264.15,1.0,CC(C)CS,le15
14669,Diethylsulfide,263.75,1.0,CCSCC,le15
14670,2methylallylchloride,261.15,1.0,C=C(C)CCl,le15
14671,Ethylnitrate,283.15,1.0,CCO[N+](=O)[O-],le15
14672,"1,6heptadiyne",282.0,1.0,C#CCCCC#C,le15
14673,"2,5norbornadiene",262.0,1.0,C1=CC2C=CC1C2,le15
14674,Methylbenzene,277.15,1.0,Cc1ccccc1,le15
14675,Toluene,277.15,1.0,Cc1ccccc1,le15
14676,TrimethylFluoroSilane-,238.15,1.0,C[Si](C)(C)F,le15
14677,Propionylchloride,285.15,1.0,CCC(=O)Cl,le15
14678,2chlorobutane,258.15,1.0,CCC(C)Cl,le15
14679,Butylchloride,263.75,1.0,CCCCCl,le15
14680,2methylpyridine,299.15,1.0,Cc1ccccn1,le15
14681,Aniline,343.15,1.0,Nc1ccccc1,le15
14682,Phenol,352.15,1.0,Oc1ccccc1,le15
14683,"1,2ethanedithiol",323.0,1.0,SCCS,le15
14684,2chloro1propanol,324.85,1.0,CC(Cl)CO,le15
14685,DimethylChloroSilane-,248.15,1.0,C[SiH](C)Cl,le15
14686,2furancarboxaldehyde,333.15,1.0,O=Cc1ccco1,le15
14687,Fluorobenzene,258.15,1.0,Fc1ccccc1,le15
14688,2cyclohexen1one,307.15,1.0,O=C1C=CCCC1,le15
14689,"1,6heptadiene",263.0,1.0,C=CCCCC=C,le15
14690,"1,1dichloroethylene",248.0,1.0,C=C(Cl)Cl,le15
14691,Hexanenitrile,316.15,1.0,CCCCCC#N,le15
14692,2methyl2pentenal,304.15,1.0,CCC=C(C)C=O,le15
14693,4methyl3penten2one,304.15,1.0,CC(=O)C=C(C)C,le15
14694,5hexen2one,296.15,1.0,C=CCCC(C)=O,le15
14695,Cyclohexanone,317.15,1.0,O=C1CCCCC1,le15
14696,3methylthiophene,284.15,1.0,Cc1ccsc1,le15
14697,2ethyl1pentene-,263.15,1.0,C=C(CC)CCC,le15
14698,3ethyl1pentene-,256.15,1.0,C=CC(CC)CC,le15
14699,3methyl1hexene-,267.15,1.0,C=CC(C)CCC,le15
14700,4methyl1hexene-,258.15,1.0,C=CCC(C)CC,le15
14701,methylcyclohexane,269.15,1.0,CC1CCCCC1,le15
14702,"1,1dichloroethane",267.0,1.0,CC(Cl)Cl,le15
14703,"1,2dichloroethane",286.0,1.0,ClCCCl,le15
14704,ButylIsocyanate,299.85,1.0,CCCCN=C=O,le15
14705,AllylIsothiocyanate,319.25,1.0,C=CCN=C=S,le15
14706,Hexamethyleneimine,291.0,1.0,C1CCCNCC1,le15
14707,"2,4pentanedione",307.15,1.0,CC(=O)CC(C)=O,le15
14708,2propenylAcetate,295.15,1.0,CC=CCC(=O)[O-],le15
14709,Ethylacrylate,288.75,1.0,C=CC(=O)OCC,le15
14710,IsopropenylAcetate,288.75,1.0,C=C(C)CC(=O)[O-],le15
14711,2hexanone,308.15,1.0,CCCCC(C)=O,le15
14712,"3,3dimethyl2butanone",285.15,1.0,CC(=O)C(C)(C)C,le15
14713,4methyl2pentanone,291.15,1.0,CC(=O)CC(C)C,le15
14714,Cyclohexanol,341.15,1.0,OC1CCCCC1,le15
14715,Isobutylvinylether,264.15,1.0,C=COCC(C)C,le15
14716,"2,3dimethylpentane",267.0,1.0,CCC(C)C(C)C,le15
14717,"2,4dimethylpentane",260.95,1.0,CC(C)CC(C)C,le15
14718,Heptane,272.15,1.0,CCCCCCC,le15
14719,AllylDimethylSilane-,253.15,1.0,C=CC[SiH](C)C,le15
14720,TrimethylVinylSilane-,239.15,1.0,CC(C)=C(C)[SiH3],le15
14721,VinylTrimethylSilane-,253.15,1.0,C=C[Si](C)(C)C,le15
14722,DichloroSilane-,236.15,1.0,Cl[SiH2]Cl,le15
14723,4methylmorpholine,297.0499999999999,1.0,CN1CCOCC1,le15
14724,"1,3dimethylbutylamine",285.95,1.0,CC(C)CC(C)N,le15
14725,1heptanamine,308.15,1.0,CCCCCCCN,le15
14726,ButylDimethylAmine-,270.15,1.0,CCCCN(C)C,le15
14727,Diisopropylamine,272.15,1.0,CC(C)NC(C)C,le15
14728,Dipropylamine,290.15,1.0,CCCNCCC,le15
14729,Hexylamine,282.0499999999999,1.0,CCCCCCN,le15
14730,Ethynylbenzene,304.15,1.0,C#Cc1ccccc1,le15
14731,3ethoxypropionaldehyde,311.15,1.0,CCOCCC=O,le15
14732,Butylformate,291.15,1.0,CCCCOC=O,le15
14733,Ethylpropionate,285.15,1.0,CCOC(=O)CC,le15
14734,Isobutylformate,283.0,1.0,CC(C)COC=O,le15
14735,Isopropylacetate,275.15,1.0,CC(=O)OC(C)C,le15
14736,IsovalericAcid,343.0,1.0,CC(C)CC(=O)O,le15
14737,Methylbutyrate,287.15,1.0,CCCC(=O)OC,le15
14738,PentanoicAcid,361.15,1.0,CCCCC(=O)O,le15
14739,Propylacetate,285.15,1.0,CCCOC(C)=O,le15
14740,Tetrahydro2furanmethanol,343.15,1.0,OCC1CCCO1,le15
14741,1hexanol,333.15,1.0,CCCCCCO,le15
14742,2ethyl1butanol,330.15,1.0,CCC(CC)CO,le15
14743,2hexanol,330.95,1.0,CCCCC(C)O,le15
14744,3methyl3pentanol,297.15,1.0,CCC(C)(O)CC,le15
14745,Butylethylether,277.54999999999995,1.0,CCCCOCC,le15
14746,Dipropylether,294.25,1.0,CCCOCCC,le15
14747,Isopropylether,244.0,1.0,CC(C)OC(C)C,le15
14748,"1,5pentanediamine",335.15,1.0,NCCCCCN,le15
14749,EthylTrimethylSilane,300.15,1.0,CC[Si](C)(C)C,le15
14750,Benzonitrile,344.85,1.0,N#Cc1ccccc1,le15
14751,Diethylenetriamine,371.15,1.0,NCCNCCN,le15
14752,3pyridinecarbonitrile,357.15,1.0,N#Cc1cccnc1,le15
14753,EthenylBenzene,305.15,1.0,C=Cc1ccccc1,le15
14754,Styrene,305.15,1.0,C=Cc1ccccc1,le15
14755,"1,5pentanediol",402.0,1.0,OCCCCCO,le15
14756,1ethoxy2propanol,315.15,1.0,CCOCC(C)O,le15
14757,"1,4thioxane",315.35,1.0,C1CSCCO1,le15
14758,3methylthioPropionaldehyde,334.25,1.0,CCCC=S,le15
14759,1pentanethiol,291.45,1.0,CCCCCS,le15
14760,MethoxyTrimethylSilane-,243.15,1.0,CO[Si](C)(C)C,le15
14761,Propylnitrate,293.15,1.0,CCCO[N+](=O)[O-],le15
14762,Benzaldehyde,336.15,1.0,O=Cc1ccccc1,le15
14763,DiethyleneGlycol,397.15,1.0,OCCOCCO,le15
14764,"1,2dimethylbenzene",305.0,1.0,Cc1ccccc1C,le15
14765,"1,3dimethylBenzene",298.15,1.0,Cc1cccc(C)c1,le15
14766,"1,4dimethylbenzene",298.0,1.0,Cc1ccc(C)cc1,le15
14767,"1,7octadiyne",296.0,1.0,C#CCCCCC#C,le15
14768,Ethylbenzene,288.15,1.0,CCc1ccccc1,le15
14769,"2,4dimethylpyridine",310.35,1.0,Cc1ccnc(C)c1,le15
14770,2methylbenzenamine,358.15,1.0,Cc1ccccc1N,le15
14771,3methylbenzenamine,359.15,1.0,Cc1cccc(N)c1,le15
14772,4methylbenzenamine,360.15,1.0,Cc1ccc(N)cc1,le15
14773,Methoxybenzene,324.15,1.0,COc1ccccc1,le15
14774,"1,4dicyanobutane",432.0,1.0,N#CCCCCC#N,le15
14775,"1,5cyclooctadiene",305.0,1.0,C1=CCCC=CCC1,le15
14776,4vinyl1cyclohexene,289.25,1.0,C=CC1CC=CCC1,le15
14777,PhenylSilane,281.15,1.0,[SiH3]c1ccccc1,le15
14778,2chloropropionicAcid,380.35,1.0,CC(Cl)C(=O)O,le15
14779,EthylChloroformate,289.15,1.0,CCOC(=O)Cl,le15
14780,Trimethylchlorosilane-,246.15,1.0,C[Si](C)(C)Cl,le15
14781,Thiophenol,323.75,1.0,Sc1ccccc1,le15
14782,"1,7octadiene",282.0,1.0,C=CCCCCC=C,le15
14783,1octyne-,259.15,1.0,C#CCCCCCC,le15
14784,"1,2cyclohexanedione",357.0,1.0,O=C1CCCCC1=O,le15
14785,"1,2dimethylcyclohexane",288.0,1.0,CC1CCCCC1C,le15
14786,"1,3dimethylcyclohexane",278.0,1.0,CC1CCCC(C)C1,le15
14787,"1,4dimethylcyclohexane",283.0,1.0,CC1CCC(C)CC1,le15
14788,3ethyl1hexene,274.15,1.0,C=CC(CC)CCC,le15
14789,4methyl1heptene,275.15,1.0,C=CCC(C)CCC,le15
14790,ethylcyclohexane,308.15,1.0,CCC1CCCCC1,le15
14791,1trimethylsilylpropyne-,270.15,1.0,CC#C[Si](C)(C)C,le15
14792,DivinylDimethylSilane,281.15,1.0,C=C[Si](C)(C)C=C,le15
14793,Chlorobenzene,302.15,1.0,Clc1ccccc1,le15
14794,DichloroAcetaldehyde,333.15,1.0,O=CC(Cl)Cl,le15
14795,"1,1dichloropropane",280.0,1.0,CCC(Cl)Cl,le15
14796,"1,2dichloropropane",289.0,1.0,CC(Cl)CCl,le15
14797,"1,3dichloropropane",293.0,1.0,ClCCCCl,le15
14798,"2,2dichloropropane",268.0,1.0,CC(C)(Cl)Cl,le15
14799,Ethylcyanoacetate,383.15,1.0,CCOC(=O)CC#N,le15
14800,3isopropoxypropionitrile,341.45,1.0,CC(C)OCCC#N,le15
14801,TrifluoroAceticAcid,344.15,1.0,O=C(O)C(F)(F)F,le15
14802,"2,5hexanedione",352.15,1.0,CC(=O)CCC(C)=O,le15
14803,ethylcrotonate,275.35,1.0,C/C=C/C(=O)OCC,le15
14804,Propyl2propenoat,293.15,1.0,C=CC(=O)OCCC,le15
14805,"2,4dimethyl3pentanone",288.15,1.0,CC(C)C(=O)C(C)C,le15
14806,2heptanone,320.15,1.0,CCCCCC(C)=O,le15
14807,3heptanone,310.15,1.0,CCCCC(=O)CC,le15
14808,4heptanone,322.15,1.0,CCCC(=O)CCC,le15
14809,4methylcyclohexanol,343.15,1.0,CC1CCC(O)CC1,le15
14810,5methyl2hexanone,309.15,1.0,CC(=O)CCC(C)C,le15
14811,DiallylSulfide,319.25,1.0,C=CCSCC=C,le15
14812,"2,3dimethylhexane",270.0,1.0,CCCC(C)C(C)C,le15
14813,Octane,288.15,1.0,CCCCCCCC,le15
14814,AllylTrimethylSilane,280.15,1.0,C=CC[Si](C)(C)C,le15
14815,MethyldichloroSilane-,241.15,1.0,C[SiH](Cl)Cl,le15
14816,ButylIsothiocyanate,338.75,1.0,CCCCN=C=S,le15
14817,1Hindene,328.15,1.0,C1=Cc2ccccc2C1,le15
14818,2methylvalericacid,364.25,1.0,CCCC(C)C(=O)O,le15
14819,"3,3dimethylbutanoicacid",361.0,1.0,CC(C)(C)CC(=O)O,le15
14820,4hydroxy4methyl2pentanone,331.15,1.0,CC(=O)CC(C)(C)O,le15
14821,Butylacetate,297.15,1.0,CCCCOC(C)=O,le15
14822,Ethylbutyrate,297.15,1.0,CCCC(=O)OCC,le15
14823,EthylIsobutyrate,286.0,1.0,CCOC(=O)C(C)C,le15
14824,Hexanoicacid,377.15,1.0,CCCCCC(=O)O,le15
14825,Isobutylacetate,291.15,1.0,CC(=O)OCC(C)C,le15
14826,Pentylformate,299.85,1.0,CCCCCOC=O,le15
14827,1heptanol,346.15,1.0,CCCCCCCO,le15
14828,2methyl1hexanol,333.15,1.0,CCCCC(C)CO,le15
14829,"1,6hexanediamine",366.15,1.0,NCCCCCCN,le15
14830,HexylSilane,285.15,1.0,CCCCCC[SiH3],le15
14831,TriethylSilane-,271.15,1.0,CC[SiH](CC)CC,le15
14832,2methoxyethylacetate,322.15,1.0,COCCOC(C)=O,le15
14833,3ethoxypropionicacid,380.35,1.0,CCOCCC(=O)O,le15
14834,Ethyllactate,319.15,1.0,CCOC(=O)C(C)O,le15
14835,1ethenyl3methylBenzene,324.15,1.0,C=Cc1cccc(C)c1,le15
14836,1ethenyl4methylBenzene,319.15,1.0,C=Cc1ccc(C)cc1,le15
14837,"2,3dihydro1Hindene",321.15,1.0,c1ccc2c(c1)CCC2,le15
14838,alphaMethylstyrene,327.0499999999999,1.0,C=C(C)c1ccccc1,le15
14839,"1,1diethoxyethane",252.0,1.0,CCOC(C)OCC,le15
14840,"1,2diethoxyethane",308.15,1.0,CCOCCOCC,le15
14841,"1,6hexanediol",420.0,1.0,OCCCCCCO,le15
14842,1isopropoxy2propanol,309.15,1.0,CC(O)COC(C)C,le15
14843,1propoxy2propanol,321.15,1.0,CCCOCC(C)O,le15
14844,"2,5hexanediol",383.15,1.0,CC(O)CCC(C)O,le15
14845,1hexanethiol,293.75,1.0,CCCCCCS,le15
14846,EthoxyTrimethylSilane-,246.15,1.0,CCO[Si](C)(C)C,le15
14847,Chlorocyclohexane,305.15,1.0,ClC1CCCCC1,le15
14848,Isocyanatobenzene,324.15,1.0,O=C=Nc1ccccc1,le15
14849,butylnitrate,309.25,1.0,CCCCO[N+](=O)[O-],le15
14850,DimethylolUrea,505.15,1.0,O=C(NCO)NCO,le15
14851,2methylbenzaldehyde,340.15,1.0,Cc1ccccc1C=O,le15