,compound,flashpoint,pure substance,smiles,source
6823,"Phosphonothioic acid, ethyl-, O-(2,4-dichlorophenyl) O-ethyl ester",434.55,1,CCOP(=S)(CC)Oc1ccc(Cl)cc1Cl,le15
6824,"Caffeine, 8-(p-aminobenzyl)-",576.15,1,Cn1c(=O)c2c(nc(Cc3ccc(N)cc3)n2C)n(C)c1=O,le15
6825,"Morphinan-6-one, 4,5alpha-epoxy-3-methoxy-17-methyl- (8CI)",506.05,1,COc1ccc2c3c1O[C@H]1C(=O)CC[C@H]4[C@@H](C2)N(C)CC[C@]314,le15
6826,"3H-1,4-Benzodiazepine, 7-chloro-2-(methylamino)-5-phenyl-, 4-oxide",559.0,1,CNC1=Nc2ccc(Cl)cc2C(c2ccccc2)=[N+]([O-])C1,le15
6827,"Benzamide, 4-amino-5-chloro-N-(2-(diethylamino)ethyl)-2-methoxy- (9CI)",480.15,1,CCN(CC)CCNC(=O)c1cc(Cl)c(N)cc1OC,le15
6828,"Benzimidazole, 5,6-dichloro-4-nitro-2-(trifluoromethyl)-",477.35,1,O=[N+]([O-])c1c(Cl)c(Cl)cc2nc(C(F)(F)F)[nH]c12,le15
6829,"Benzimidazole, 4,5-dichloro-6-nitro-2-(trifluoromethyl)-",477.35,1,O=[N+]([O-])c1cc2nc(C(F)(F)F)[nH]c2c(Cl)c1Cl,le15
6830,"Decane, 1,10-dibromo-",426.55,1,BrCCCCCCCCCCBr,le15
6831,"2-Anthracenecarboxylic acid, 9,10-dihydro-4,5,7-trihydroxy-9,10-dioxo-",657.85,1,O=C(O)c1cc(O)c2c(c1)C(=O)c1cc(O)cc(O)c1C2=O,le15
6832,"2-Butenoic acid, 3-((dimethoxyphosphinyl)oxy)-, phenylmethyl ester",458.55,1,COP(=O)(OC)OC(C)=CC(=O)OCc1ccccc1,le15
6833,"9,10-Anthracenedione, 1,4,5-trihydroxy-7-methoxy-2-methyl- (9CI)",502.75,1,COc1cc(O)c2c(c1)C(=O)c1c(O)c(C)cc(O)c1C2=O,le15
6834,"Benzoic acid, 2-(acetyloxy)-, 2-carboxyphenyl ester",477.05,1,CC(=O)Oc1ccccc1C(=O)Oc1ccccc1C(=O)O,le15
6835,"4H-1-Benzopyran-4-one, 5,7-dihydroxy-2-(4-hydroxyphenyl)-6-methoxy-",503.25,1,COc1c(O)cc2oc(-c3ccc(O)cc3)cc(=O)c2c1O,le15
6836,"Anthraquinone, 3-methoxy-6-methyl-1,2,8-trihydroxy-",486.65,1,COc1cc2c(c(O)c1O)C(=O)c1c(O)cc(C)cc1C2=O,le15
6837,"2-Naphthalenol, 1,1'-methylenebis- (9CI)",531.75,1,Oc1ccc2ccccc2c1Cc1c(O)ccc2ccccc12,le15
6838,"Benzenesulfonamide, 4-amino-N-2-quinoxalinyl-",560.25,1,Nc1ccc(S(=O)(=O)Nc2cnc3ccccc3n2)cc1,le15
6839,"2-Cyclohexen-1-one, 3-hexyl-5-(3,4-(methylenedioxy)phenyl)-",474.65,1,CCCCCCC1=CC(=O)CC(c2ccc3c(c2)OCO3)C1,le15
6840,"Methane, sulfonylbis(trichloro-",398.85,1,O=S(=O)(C(Cl)(Cl)Cl)C(Cl)(Cl)Cl,le15
6841,"5-Bromo-2-phenyl-1H-indene-1,3(2H)-dione",434.95,1,O=C1c2ccc(Br)cc2C(=O)C1c1ccccc1,le15
6842,"1,3-Indandione, 4-bromo-2-phenyl-",434.95,1,O=C1c2cccc(Br)c2C(=O)C1c1ccccc1,le15
6843,"Benzohydroxamic acid, N-fluoren-2-yl-",547.55,1,O=C(c1ccccc1)N(O)c1ccc2c(c1)Cc1ccccc1-2,le15
6844,"Morphinan-6-one, 4,5alpha-epoxy-3,14-dihydroxy-17-methyl- (8CI)",540.606,1,CN1CC[C@]23c4c5ccc(O)c4O[C@H]2C(=O)CC[C@@]3(O)[C@H]1C5,le15
6845,"Morphinan-6-ol, 4,5-epoxy-3-methoxy-17-methyl-, (5alpha,6alpha)-",506.35,1,COc1ccc2c3c1O[C@H]1[C@@H](O)CC[C@H]4[C@@H](C2)N(C)CC[C@]314,le15
6846,"4H-1-Benzopyran-4-one, 2-(3,4-dihydroxyphenyl)-3,5,7-trihydroxy-",521.25,1,O=c1c(O)c(-c2ccc(O)c(O)c2)oc2cc(O)cc(O)c12,le15
6847,"Xanthen-9-one, 8-hydroxy-1,3,5-trimethoxy-",466.75,1,COc1cc(OC)c2c(=O)c3c(O)ccc(OC)c3oc2c1,le15
6848,"Naphtho(1,2,3,4-def)chrysene",555.15,1,c1ccc2c(c1)cc1c3ccccc3c3cccc4ccc2c1c43,le15
6849,"1,2-Benzenediol, 4,4'-(2,3-dimethyl-1,4-butanediyl)bis-",520.95,1,CC(Cc1ccc(O)c(O)c1)C(C)Cc1ccc(O)c(O)c1,le15
6850,"5,8,11,14,17-Eicosapentaenoic acid",609.15,1,CCC=CCC=CCC=CCC=CCC=CCCCC(=O)O,le15
6851,"Androst-4-en-3-one, 17-hydroxy-17-methyl-, (17beta)-",458.45,1,C[C@]1(O)CC[C@H]2[C@@H]3CCC4=CC(=O)CC[C@]4(C)[C@H]3CC[C@@]21C,le15
6852,Octadecanoyl chloride,438.15,1,CCCCCCCCCCCCCCCCCC(=O)Cl,le15
6853,"Acetic acid, (2,3-dichloro-4-(2-methylene-1-oxobutyl)phenoxy)-",517.25,1,C=C(CC)C(=O)c1ccc(OCC(=O)O)c(Cl)c1Cl,le15
6854,"Phenol, 2,4-dichloro-, benzenesulfonate",490.15,1,O=S(=O)(Oc1ccc(Cl)cc1Cl)c1ccccc1,le15
6855,"Propane, 1,1,1,2,3,3,3-heptachloro-2-fluoro-",379.35,1,FC(Cl)(C(Cl)(Cl)Cl)C(Cl)(Cl)Cl,le15
6856,"4H-1-Benzopyran-4-one, 7-methoxy-2,3-dimethyl-8-(4-morpholinylmethyl)-",494.95,1,COc1ccc2c(=O)c(C)c(C)oc2c1CN1CCOCC1,le15
6857,"Butane, 2,2,3,3-tetrachloro-1,1,1,4,4,4-hexafluoro-",318.25,1,FC(F)(F)C(Cl)(Cl)C(Cl)(Cl)C(F)(F)F,le15
6858,"Benzenemethanamine, N-(2-chloroethyl)-N-(1-methyl-2-phenoxyethyl)-",457.65,1,CC(COc1ccccc1)N(CCCl)Cc1ccccc1,le15
6859,"Benzenesulfonamide, N,N-dibutyl-4-chloro-",467.15,1,CCCCN(CCCC)S(=O)(=O)c1ccc(Cl)cc1,le15
6860,"1,4-Benzenedicarboxylic acid, 2,3,5,6-tetrachloro-",484.05,1,O=C(O)c1c(Cl)c(Cl)c(C(=O)O)c(Cl)c1Cl,le15
6861,"1,4,5,8-Naphthalenetetracarboxylic acid",687.15,1,O=C(O)c1ccc(C(=O)O)c2c(C(=O)O)ccc(C(=O)O)c12,le15
6862,"Benzenebutanoic acid, 4-(bis(2-chloroethyl)amino)-",505.25,1,O=C(O)CCCc1ccc(N(CCCl)CCCl)cc1,le15
6863,"Dibenz(c,f)indeno(1,2,3-ij)(2,7)naphthyridine",537.65,1,c1ccc2c(c1)-c1nc3ccccc3c3c1c-2nc1ccccc13,le15
6864,"Phthalic acid, butyl cyclohexyl ester (8CI)",457.55,1,CCCCOC(=O)c1ccccc1C(=O)OC1CCCCC1,le15
6865,ethoxy(triphenyl)silane,436.65,1,CCO[Si](c1ccccc1)(c1ccccc1)c1ccccc1,le15
6866,"Androstan-3-one, 17-hydroxy-2-methyl-, (2alpha,5alpha,17beta)- (9CI)",452.55,1,C[C@@H]1C[C@@]2(C)[C@@H](CC[C@H]3[C@@H]4CC[C@H](O)[C@@]4(C)CC[C@@H]32)CC1=O,le15
6867,"1,4-Benzenediamine, N,N'-bis(1,4-dimethylpentyl)-",507.95,1,CC(C)CCC(C)Nc1ccc(NC(C)CCC(C)C)cc1,le15
6868,"1H-Imidazole, 2,4,5-tribromo-",469.65,1,Brc1nc(Br)c(Br)[nH]1,le15
6869,"1,3-Benzenedisulfonamide, 4,5-dichloro-",584.05,1,NS(=O)(=O)c1cc(Cl)c(Cl)c(S(N)(=O)=O)c1,le15
6870,"Alanine, 3-(p-(bis(2-chloroethyl)amino)phenyl)-, DL-",513.05,1,NC(Cc1ccc(N(CCCl)CCCl)cc1)C(=O)O,le15
6871,"Alanine, 3-(p-(bis(2-chloroethyl)amino)phenyl)-, L-",513.05,1,N[C@@H](Cc1ccc(N(CCCl)CCCl)cc1)C(=O)O,le15
6872,"Phosphorothioic acid, O-isopropyl O-methyl O-(4-nitro-m-tolyl) ester",452.15,1,COP(=S)(Oc1cc(C)ccc1[N+](=O)[O-])OC(C)C,le15
6873,1-bromohexadecane,412.95,1,CCCCCCCCCCCCCCCCBr,le15
6874,"6-Nonenamide, 8-methyl-N-vanillyl-, (E)- (8CI)",536.25,1,COc1cc(CNC(=O)CCCC/C=C/C(C)C)ccc1O,le15
6875,"8-Quinolinol, 5-chloro-7-iodo-",438.85,1,Oc1c(I)cc(Cl)c2cccnc12,le15
6876,triphenylarsane,447.783,1,c1ccc([As](c2ccccc2)c2ccccc2)cc1,le15
6877,"Glycine, N,N'-1,3-propanediylbis(N-(carboxymethyl)-",602.25,1,O=C(O)CN(CCCN(CC(=O)O)CC(=O)O)CC(=O)O,le15
6878,"1,3,5-triphenylbenzene",511.15,1,c1ccc(-c2cc(-c3ccccc3)cc(-c3ccccc3)c2)cc1,le15
6879,"2,9-Dimethylpicene",552.25,1,Cc1ccc2ccc3c(ccc4c5cccc(C)c5ccc43)c2c1,le15
6880,"dipentyl benzene-1,2-dicarboxylate",461.95,1,CCCCCOC(=O)c1ccccc1C(=O)OCCCCC,le15
6881,"Phosphoric acid, dimethyl 3,5,6-trichloro-2-pyridinyl ester",425.45,1,COP(=O)(OC)Oc1nc(Cl)c(Cl)cc1Cl,le15
6882,"Phosphonic acid, bis(2-ethylhexyl) ester",465.95,1,CCCCC(CC)CO[PH](=O)OCC(CC)CCCC,le15
6883,"5,8,11,14,17-Pentaoxaheneicosane",410.35,1,CCCCOCCOCCOCCOCCOCCCC,le15
6884,"9,12,15-Octadecatrienoic acid, ethyl ester, (9Z,12Z,15Z)-",373.85,1,CC/C=C\C/C=C\C/C=C\CCCCCCCC(=O)OCC,le15
6885,"Phosphoramidothioic acid, O-methyl O-(2,4,5-trichlorophenyl) ester",454.45,1,COP(N)(=S)Oc1cc(Cl)c(Cl)cc1Cl,le15
6886,"Methanethioic acid, tetrathiobis-, O,O-diethyl ester (9CI)",458.95,1,CCOC(=S)SSSSC(=S)OCC,le15
6887,"Benzene, 1,1'-(2,2-dichloroethylidene)bis(4-ethyl-",485.25,1,CCc1ccc(C(c2ccc(CC)cc2)C(Cl)Cl)cc1,le15
6888,"Carbamothioic acid, methyl(3-methylphenyl)-, O-2-naphthalenyl ester",501.15,1,Cc1cccc(N(C)C(=S)Oc2ccc3ccccc3c2)c1,le15
6889,"1,2-dibromo-3,4,5,6-tetrafluorobenzene",371.15,1,Fc1c(F)c(F)c(Br)c(Br)c1F,le15
6890,"Mannitol, 1,6-dibromo-1,6-dideoxy-, D-",536.15,1,O[C@H](CBr)[C@@H](O)[C@H](O)[C@H](O)CBr,le15
6891,"Phosphoric acid, diethyl p-(methylsulfonyl)phenyl ester",473.95,1,CCOP(=O)(OCC)Oc1ccc(S(C)(=O)=O)cc1,le15
6892,"2H-1-Benzopyran-2-one, 4-hydroxy-3-(3-oxo-1-phenylbutyl)-",461.978,1,CC(=O)CC(c1ccccc1)c1c(O)c2ccccc2oc1=O,le15
6893,Bis(4-nitrophenyl) disulphide,516.509,1,O=[N+]([O-])c1ccc(SSc2ccc([N+](=O)[O-])cc2)cc1,le15
6894,"Phosphorothioic acid, O,O-diethyl O-(4-(methylsulfinyl)phenyl) ester",471.35,1,CCOP(=S)(OCC)Oc1ccc(S(C)=O)cc1,le15
6895,"3,5-Pyrazolidinedione, 4-butyl-1,2-diphenyl-",447.45,1,CCCCC1C(=O)N(c2ccccc2)N(c2ccccc2)C1=O,le15
6896,"Phosphoric acid, tripentyl ester (8CI)(9CI)",435.45,1,CCCCCOP(=O)(OCCCCC)OCCCCC,le15
6897,"1H-Imidazole, 2-heptadecyl-4,5-dihydro-",492.65,1,CCCCCCCCCCCCCCCCCC1=NCCN1,le15
6898,docos-1-ene,469.45,1,C=CCCCCCCCCCCCCCCCCCCCC,le15
6899,"Phosphonothioic acid, methyl-, O-(4-nitrophenyl) O-phenyl ester",482.65,1,CP(=S)(Oc1ccccc1)Oc1ccc([N+](=O)[O-])cc1,le15
6900,"Benzenesulfonamide, N-(5-(2-methoxyethoxy)-2-pyrimidinyl)-",538.55,1,COCCOc1cnc(NS(=O)(=O)c2ccccc2)nc1,le15
6901,"Adenine, N-benzyl-9-(tetrahydro-2H-pyran-2-yl)- (8CI)",554.25,1,c1ccc(CNc2ncnc3c2ncn3C2CCCCO2)cc1,le15
6902,"3-Heptanone, 6-(dimethylamino)-4,4-diphenyl-",399.602,1,CCC(=O)C(CC(C)N(C)C)(c1ccccc1)c1ccccc1,le15
6903,"1-Piperidinebutanol, alpha,alpha-diphenyl-",506.65,1,OC(CCCN1CCCCC1)(c1ccccc1)c1ccccc1,le15
6904,"Acetic acid, 2,4-dichlorophenoxy-, 4-chloro-2-butenyl ester",439.05,1,O=C(COc1ccc(Cl)cc1Cl)OCC=CCCl,le15
6905,"Phosphonothioic acid, ethyl-, O-(2-chloro-4-nitrophenyl) O-ethyl ester",457.95,1,CCOP(=S)(CC)Oc1ccc([N+](=O)[O-])cc1Cl,le15
6906,"Benzimidazole, 6-bromo-4-nitro-2-(trifluoromethyl)-",470.85,1,O=[N+]([O-])c1cc(Br)cc2nc(C(F)(F)F)[nH]c12,le15
6907,"Benzimidazole, 4-bromo-6-nitro-2-(trifluoromethyl)-",470.85,1,O=[N+]([O-])c1cc(Br)c2[nH]c(C(F)(F)F)nc2c1,le15
6908,"Benzene, 1,1'-(2-nitropropylidene)bis(4-chloro-",488.95,1,CC(C(c1ccc(Cl)cc1)c1ccc(Cl)cc1)[N+](=O)[O-],le15
6909,"Benzenesulfonamide, 4-amino-N-(5,6-dimethoxy-4-pyrimidinyl)-",543.15,1,COc1ncnc(NS(=O)(=O)c2ccc(N)cc2)c1OC,le15
6910,"Fluorene-9,9-dipropionic acid",583.95,1,O=C(O)CCC1(CCC(=O)O)c2ccccc2-c2ccccc21,le15
6911,"1-Aziridineacetamide, N,N'-1,8-octanediylbis- (9CI)",560.45,1,O=C(CN1CC1)NCCCCCCCCNC(=O)CN1CC1,le15
6912,hexadecyl 2-methylprop-2-enoate,441.95,1,C=C(C)C(=O)OCCCCCCCCCCCCCCCC,le15
6913,[dimethyl(trimethylsilyloxy)silyl]oxy-dimethyl-trimethylsilyloxysilane,361.25,1,C[Si](C)(C)O[Si](C)(C)O[Si](C)(C)O[Si](C)(C)C,le15
6914,"Ethanol, 2-(2,4-dichlorophenoxy)-, benzoate",443.95,1,O=C(OCCOc1ccc(Cl)cc1Cl)c1ccccc1,le15
6915,"Benzenemethanol, 4-chloro-alpha-(4-chlorophenyl)-alpha-(ethoxymethyl)-",486.15,1,CCOCC(O)(c1ccc(Cl)cc1)c1ccc(Cl)cc1,le15
6916,"Phenanthro(3,4-d)-1,3-dioxole-5-carboxylic acid, 6-nitro-",585.05,1,O=C(O)c1cc2c(c3c1c([N+](=O)[O-])cc1ccccc13)OCO2,le15
6917,"p-Toluenesulfonamide, N-(5-isobutyl-1,3,4-thiadiazol-2-yl)-",507.95,1,Cc1ccc(S(=O)(=O)Nc2nnc(CC(C)C)s2)cc1,le15
6918,"1-Piperidinepropanol, alpha-bicyclo(2.2.1)hept-5-en-2-yl-alpha-phenyl-",497.65,1,OC(CCN1CCCCC1)(c1ccccc1)C1CC2C=CC1C2,le15
6919,"Acetic acid, (2,4,5-trichlorophenoxy)-, 2-methylpropyl ester",412.25,1,CC(C)COC(=O)COc1cc(Cl)c(Cl)cc1Cl,le15
6920,"Quino(2,3-b)acridine-7,14-dione, 5,12-dihydro-",494.45,1,O=c1c2ccccc2[nH]c2cc3c(=O)c4ccccc4[nH]c3cc12,le15
6921,"1,2-Benzenedicarboxylic acid, butyl phenylmethyl ester",471.45,1,CCCCOC(=O)c1ccccc1C(=O)OCc1ccccc1,le15
6922,"Pregn-4-en-20-yn-3-one, 17-hydroxy-, (17alpha)- (9CI)",463.35,1,C#C[C@@]1(O)CC[C@H]2[C@@H]3CCC4=CC(=O)CC[C@]4(C)[C@H]3CC[C@@]21C,le15
6923,"10H-Phenothiazine-10-ethanamine, N,N-diethyl-alpha-methyl-",487.05,1,CCN(CC)C(C)CN1c2ccccc2Sc2ccccc21,le15
6924,"Octadecanoic acid, ethyl ester",434.15,1,CCCCCCCCCCCCCCCCCC(=O)OCC,le15
6925,icosanoic acid,442.85,1,CCCCCCCCCCCCCCCCCCCC(=O)O,le15
6926,"p-Xylene, alpha,alpha,alpha,alpha',alpha',alpha'-hexachloro-",426.15,1,ClC(Cl)(Cl)c1ccc(C(Cl)(Cl)Cl)cc1,le15
6927,"Benzoic acid, 2-(acetyloxy)-, 4-(acetylamino)phenyl ester (9CI)",552.15,1,CC(=O)Nc1ccc(OC(=O)c2ccccc2OC(C)=O)cc1,le15
6928,2-Methyl-1-(phenylamino)anthraquinone,464.95,1,Cc1ccc2c(c1Nc1ccccc1)C(=O)c1ccccc1C2=O,le15
6929,"Theophylline, 7-(p-(dimethylamino)benzyl)-",551.05,1,CN(C)c1ccc(Cn2cnc3c2c(=O)n(C)c(=O)n3C)cc1,le15
6930,"3H-Pyrazol-3-one, 1,2-dihydro-4-iodo-1,5-dimethyl-2-phenyl-",424.05,1,Cc1c(I)c(=O)n(-c2ccccc2)n1C,le15
6931,"Ethanol, 2,2'-oxybis-, dibenzoate",446.15,1,O=C(O)c1ccccc1.O=C(O)c1ccccc1.OCCOCCO,le15
6932,"Benz(a)anthracene-7-methanol, 12-methyl-, acetate",474.85,1,CC(=O)OCc1c2ccccc2c(C)c2c1ccc1ccccc12,le15
6933,"Pregn-4-ene-3,20-dione",439.85,1,CC(=O)[C@H]1CC[C@H]2[C@@H]3CCC4=CC(=O)CC[C@]4(C)[C@H]3CC[C@]12C,le15
6934,"Decanedioic acid, dibutyl ester",430.65,1,CCCCOC(=O)CCCCCCCCC(=O)OCCCC,le15
6935,dihexyl hexanedioate,430.65,1,CCCCCCOC(=O)CCCCC(=O)OCCCCCC,le15
6936,"Phosphorotrithioic acid, S,S,S-tributyl ester",473.55,1,CCCCSP(=O)(SCCCC)SCCCC,le15
6937,"Benzene, 1,2,4-tribromo-",393.15,1,Brc1ccc(Br)c(Br)c1,le15
6938,"Benzene, 1,3,5-tribromo-",388.65,1,Brc1cc(Br)cc(Br)c1,le15
6939,"Phosphorothioic acid, O-(2,4-dichlorophenyl) O,O-diethyl ester",373.15,1,CCOP(=S)(OCC)Oc1ccc(Cl)cc1Cl,le15
6940,"9H-Fluoren-9-one, 2,4,7-trinitro-",565.45,1,O=C1c2cc([N+](=O)[O-])ccc2-c2c1cc([N+](=O)[O-])cc2[N+](=O)[O-],le15
6941,"Phenol, 2,2'-thiobis(4-chloro-6-methyl- (9CI)",485.85,1,Cc1cc(Cl)cc(Sc2cc(Cl)cc(C)c2O)c1O,le15
6942,"Urea, N-(4-chlorophenyl)-N'-(3,4-dichlorophenyl)-",435.15,1,O=C(Nc1ccc(Cl)cc1)Nc1ccc(Cl)c(Cl)c1,le15
6943,"2H-1,4-Benzodiazepin-2-one, 5-(2-chlorophenyl)-1,3-dihydro-7-nitro-",544.15,1,O=C1CN=C(c2ccccc2Cl)c2cc([N+](=O)[O-])ccc2N1,le15
6944,"2H-1,4-Benzodiazepin-2-one, 7-bromo-1,3-dihydro-5-(2-pyridinyl)-",523.75,1,O=C1CN=C(c2ccccn2)c2cc(Br)ccc2N1,le15
6945,"Benzenesulfonanilide, 4,4'-dichloro-N-methyl-",495.85,1,CN(c1ccc(Cl)cc1)S(=O)(=O)c1ccc(Cl)cc1,le15
6946,"4H-1-Benzopyran-4-one, 3,5,7-trihydroxy-2-(4-hydroxy-3-methoxyphenyl)-",500.95,1,COc1cc(-c2oc3cc(O)cc(O)c3c(=O)c2O)ccc1O,le15
6947,"Diazene, bis(2-methyl-3-nitrophenyl)-, 1-oxide",535.05,1,Cc1c(N=[N+]([O-])c2cccc([N+](=O)[O-])c2C)cccc1[N+](=O)[O-],le15
6948,"1,5-Naphthalenediol, 2,6-dibromo-",467.35,1,Oc1c(Br)ccc2c(O)c(Br)ccc12,le15
6949,"Benzene, 1-chloro-2-(2,2-dichloro-1-(4-chlorophenyl)ethenyl)- (9CI)",454.95,1,ClC(Cl)=C(c1ccc(Cl)cc1)c1ccccc1Cl,le15
6950,"1(3H)-Isobenzofuranone, 3,3-bis(4-hydroxyphenyl)-",479.65,1,O=C1OC(c2ccc(O)cc2)(c2ccc(O)cc2)c2ccccc21,le15
6951,"1,2-Benzenedicarboxylic acid, diphenyl ester",528.45,1,O=C(Oc1ccccc1)c1ccccc1C(=O)Oc1ccccc1,le15
6952,"Benzoxazole, 2,2'-(2,5-thiophenediyl)bis-",509.05,1,c1ccc2oc(-c3ccc(-c4nc5ccccc5o4)s3)nc2c1,le15
6953,"Ether, p-nitrophenyl 2,4,6-trichlorophenyl",450.95,1,O=[N+]([O-])c1ccc(Oc2c(Cl)cc(Cl)cc2Cl)cc1,le15
6954,"10H-Phenothiazine-10-propanamine, 2-chloro-N,N-dimethyl-",499.15,1,CN(C)CCCN1c2ccccc2Sc2ccc(Cl)cc21,le15
6955,"2-Pyridinepropanamine, gamma-(4-bromophenyl)-N,N-dimethyl-",470.65,1,CN(C)CCC(c1ccc(Br)cc1)c1ccccn1,le15
6956,1-bromoheptadecane,418.55,1,CCCCCCCCCCCCCCCCCBr,le15
6957,"2(5H)-Furanone, 5,5'-oxybis(3,4-dichloro-",498.55,1,O=C1OC(OC2OC(=O)C(Cl)=C2Cl)C(Cl)=C1Cl,le15
6958,"Ethane, 1,1-dichloro-2-(o-chlorophenyl)-2-(p-chlorophenyl)- (8CI)",467.35,1,Clc1ccc(C(c2ccccc2Cl)C(Cl)Cl)cc1,le15
6959,"L-Valine, N-((2,4-dichlorophenoxy)acetyl)- (9CI)",553.75,1,CC(C)[C@H](NC(=O)COc1ccc(Cl)cc1Cl)C(=O)O,le15
6960,"Phosphorothioic acid, O-cyclohexyl O-methyl S-(4-chlorophenyl) ester",471.75,1,COP(=O)(OC1CCCCC1)Sc1ccc(Cl)cc1,le15
6961,"2,3,5-tribromothiophene",387.65,1,Brc1cc(Br)c(Br)s1,le15
6962,"Acetic acid, (2,4-dichlorophenoxy)-, 2-butoxyethyl ester (8CI,9CI)",426.05,1,CCCCOCCOC(=O)COc1ccc(Cl)cc1Cl,le15
6963,"Phosphorothioic acid, O,O-dimethyl O-(2,4,5-trichlorophenyl) ester",435.45,1,COP(=S)(OC)Oc1cc(Cl)c(Cl)cc1Cl,le15
6964,"Dibenzo(b,e)(1,4)dioxin, 2,3,7,8-tetrachloro-",437.35,1,Clc1cc2c(cc1Cl)Oc1cc(Cl)c(Cl)cc1O2,le15
6965,"Glycine, N,N'-(2-hydroxy-1,3-propanediyl)bis(N-(carboxymethyl)-",628.75,1,O=C(O)CN(CC(=O)O)CC(O)CN(CC(=O)O)CC(=O)O,le15
6966,"2-Butenoic acid, 3-methyl-, 2-(1-methylpropyl)-4,6-dinitrophenyl ester",444.85,1,CCC(C)c1cc([N+](=O)[O-])cc([N+](=O)[O-])c1OC(=O)C=C(C)C,le15
6967,"Phosphoric acid, bis(2-ethylhexyl) ester",464.85,1,CCCCC(CC)COP(=O)([O-])OCC(CC)CCCC,le15
6968,heptadecylcyclohexane,461.25,1,CCCCCCCCCCCCCCCCCC1CCCCC1,le15
6969,"9-Tricosene, (9Z)-",482.05,1,CCCCCCCC/C=C\CCCCCCCCCCCCC,le15
6970,"2,5-bis(trichloromethyl)-1,3-dioxolan-4-one",395.05,1,O=C1OC(C(Cl)(Cl)Cl)OC1C(Cl)(Cl)Cl,le15
6971,"Phosphonothioic acid, phenyl-, O-ethyl O-(4-nitrophenyl) ester",489.75,1,CCOP(=S)(Oc1ccc([N+](=O)[O-])cc1)c1ccccc1,le15
6972,"Dibenzo(b,f)(1,4)thiazepine, 2-methyl-11-(4-methyl-1-piperazinyl)-",513.35,1,Cc1ccc2c(c1)C(N1CCN(C)CC1)=Nc1ccccc1S2,le15
6973,"1H-Benzimidazole, 4,5,6,7-tetrachloro-2-(trifluoromethyl)-",468.55,1,FC(F)(F)c1nc2c(Cl)c(Cl)c(Cl)c(Cl)c2[nH]1,le15
6974,"Benzene, 1,2,4-trichloro-5-((4-chlorophenyl)thio)-",459.05,1,Clc1ccc(Sc2cc(Cl)c(Cl)cc2Cl)cc1,le15
6975,"Butane, 1,1-bis(p-chlorophenyl)-2-nitro-",495.85,1,CCC(C(c1ccc(Cl)cc1)c1ccc(Cl)cc1)[N+](=O)[O-],le15
6976,"1,3-Propanediamine, N,N-dimethyl-N'-(1-nitro-9-acridinyl)- (9CI)",542.65,1,CN(C)CCCNc1c2ccccc2nc2cccc([N+](=O)[O-])c12,le15
6977,"Cinchonan-9-ol, 6'-methoxy-, (9S)-",526.85,1,C=C[C@H]1CN2CC[C@H]1C[C@@H]2[C@@H](O)c1ccnc2ccc(OC)cc12,le15
6978,tricosane,495.95,1,CCCCCCCCCCCCCCCCCCCCCCC,le15
6979,"2,2,2-tribromoethyl acetate",402.85,1,CC(=O)OCC(Br)(Br)Br,le15
6980,"1-Propanol, 3-bromo-2,2-bis(bromomethyl)- (8CI)(9CI)",426.95,1,OCC(CBr)(CBr)CBr,le15
6981,"Phosphorothioic acid, O-(3-chloro-4-nitrophenyl) O,O-diethyl ester",464.65,1,CCOP(=S)(OCC)Oc1ccc([N+](=O)[O-])c(Cl)c1,le15
6982,"2H-1,2,4-Benzothiadiazine-7-sulfonamide, 6-chloro-3-ethyl-3,4-dihydro-",567.75,1,CCC1NSc2cc(S(N)(=O)=O)c(Cl)cc2N1,le15
6983,"Anthraquinone, 1,4-bis((2-hydroxyethyl)amino)- (6CI,7CI,8CI)",623.55,1,O=C1c2ccccc2C(=O)c2c(NCCO)ccc(NCCO)c21,le15
6984,"2-(4-Methoxyphenyl)-4,5-diphenyl-1H-imidazole",461.95,1,COc1ccc(-c2nc(-c3ccccc3)c(-c3ccccc3)[nH]2)cc1,le15
6985,"1-Butanone, 1-(4-fluorophenyl)-4-(4-phenyl-1-piperazinyl)- (9CI)",517.95,1,O=C(CCCN1CCN(c2ccccc2)CC1)c1ccc(F)cc1,le15
6986,"Methanone, (2-hydroxy-4-(octyloxy)phenyl)phenyl-",428.25,1,CCCCCCCCOc1ccc(C(=O)c2ccccc2)c(O)c1,le15
6987,"10H-Phenothiazine, 10-(3-(4-morpholinyl)propyl)-",521.25,1,c1ccc2c(c1)Sc1ccccc1N2CCCN1CCOCC1,le15
6988,"5H-Dibenzo(b,e)(1,4)diazepine, 8-chloro-11-(4-methyl-1-piperazinyl)-",522.785,1,CN1CCN(C2=Nc3cc(Cl)ccc3Nc3ccccc32)CC1,le15
6989,"Benzamide, 5-chloro-N-(2-chloro-4-nitrophenyl)-2-hydroxy-",483.65,1,O=C(Nc1ccc([N+](=O)[O-])cc1Cl)c1cc(Cl)ccc1O,le15
6990,"Morphinan-6-one, 17-allyl-4,5alpha-epoxy-3,14-dihydroxy- (8CI)",549.25,1,C=CCN1CC[C@]23c4c5ccc(O)c4O[C@H]2C(=O)CC[C@@]3(O)[C@H]1C5,le15
6991,"1-Butanone, 1-(4-fluorophenyl)-4-(4-(2-pyridinyl)-1-piperazinyl)-",529.05,1,O=C(CCCN1CCN(c2ccccn2)CC1)c1ccc(F)cc1,le15
6992,"1-Propanol, 2-chloro-, phosphate (3:1)",522.85,1,CC(Cl)CO.CC(Cl)CO.CC(Cl)CO.O=P(O)(O)O,le15
6993,"2-Naphthalenol, 1-(2-(2-chloro-4-nitrophenyl)diazenyl)-",564.95,1,O=[N+]([O-])c1ccc(N=Nc2c(O)ccc3ccccc23)c(Cl)c1,le15
6994,"Dibenz(b,f)(1,4)oxazepine, 2-chloro-11-(4-methyl-1-piperazinyl)-",504.25,1,CN1CCN(C2=Nc3ccccc3Oc3ccc(Cl)cc32)CC1,le15
6995,1-bromo-4-(4-bromophenoxy)benzene,413.45,1,Brc1ccc(Oc2ccc(Br)cc2)cc1,le15
6996,"1H,12H-Furo(3',2':4,5)furo(2,3-h)pyrano(3,4-c)(1)benzopyran-1,12-dione",547.35,1,O=c1occc2c1c(=O)oc1c2ccc2oc3occc3c21,le15
6997,"10H-Phenothiazine-10-propanamine, 2-methoxy-N,N,beta-trimethyl-, (-)-",509.95,1,COc1ccc2c(c1)N(CC(C)CN(C)C)c1ccccc1S2,le15
6998,"Carbamothioic acid, diphenyl-, S-(2-(diethylamino)ethyl) ester",494.15,1,CCN(CC)CCSC(=O)N(c1ccccc1)c1ccccc1,le15
6999,"4,7,10,13,16,19-Docosahexaenoic acid",616.55,1,CCC=CCC=CCC=CCC=CCC=CCC=CCCC(=O)O,le15
7000,"1,3,5-tribromo-2-methylbenzene",400.75,1,Cc1c(Br)cc(Br)cc1Br,le15
7001,"1H-Isoindole-5-sulfonamide, 6-chloro-2-cyclohexyl-2,3-dihydro-3-oxo-",576.05,1,NS(=O)(=O)c1cc2c(cc1Cl)CN(C1CCCCC1)C2=O,le15
7002,"9,10-Anthracenedione, 1-hydroxy-4-((4-methylphenyl)amino)-",541.85,1,Cc1ccc(Nc2ccc(O)c3c2C(=O)c2ccccc2C3=O)cc1,le15
7003,"Morpholine, 4-(triphenylmethyl)-",399.65,1,c1ccc(C(c2ccccc2)(c2ccccc2)N2CCOCC2)cc1,le15
7004,"Benzenepropanamine, N-(1-methyl-2-phenylethyl)-gamma-phenyl-",492.55,1,CC(Cc1ccccc1)NCCC(c1ccccc1)c1ccccc1,le15
7005,"2,4,6-tribromoaniline",406.05,1,Nc1c(Br)cc(Br)cc1Br,le15
7006,"1,3-diiodobenzene",418.35,1,Ic1cccc(I)c1,le15
7007,"Piperidine, 1-(2-((4-chlorophenyl)phenylmethoxy)ethyl)- (9CI)",483.35,1,Clc1ccc(C(OCCN2CCCCC2)c2ccccc2)cc1,le15
7008,"1,4-diiodobenzene",410.85,1,Ic1ccc(I)cc1,le15
7009,"9,10-Anthracenedione, 1,8-dihydroxy-4,5-dinitro-",554.05,1,O=C1c2c(O)ccc([N+](=O)[O-])c2C(=O)c2c([N+](=O)[O-])ccc(O)c21,le15