,compound,flashpoint,pure substance,smiles,source
2760,"Quinoline, 3-amino-",440.95,1,Nc1cnc2ccccc2c1,le15
2761,7-Quinolinamine (9CI),449.25,1,Nc1ccc2cccnc2c1,le15
2762,"Quinoline, 2-amino-",436.75,1,Nc1ccc2ccccc2n1,le15
2763,ethyl 2-methyl-3-oxobutanoate,335.15,1,CCOC(=O)C(C)C(C)=O,le15
2764,quinolin-5-amine,444.65,1,Nc1cccc2ncccc12,le15
2765,oxolan-2-ylmethyl acetate,357.55,1,CC(=O)OCC1CCCO1,le15
2766,2-phenyl-1H-imidazole,453.55,1,c1ccc(-c2ncc[nH]2)cc1,le15
2767,"2-Pentanone, 5-(acetyloxy)- (9CI)",358.55,1,CC(=O)CCCOC(C)=O,le15
2768,ethyl 2-oxopentanoate,344.55,1,CCCC(=O)C(=O)OCC,le15
2769,4-Aminoquinoline,454.35,1,Nc1ccnc2ccccc12,le15
2770,2-hydroxypropyl 2-methylprop-2-enoate,360.05,1,C=C(C)C(=O)OCC(C)O,le15
2771,1-phenylimidazole,393.85,1,c1ccc(-n2ccnc2)cc1,le15
2772,"Quinoxaline, 2-methyl-",380.15,1,Cc1cnc2ccccc2n1,le15
2773,methyl 2-ethyl-3-oxobutanoate,369.25,1,CCC(C(C)=O)C(=O)OC,le15
2774,"1-Hexanol, 2,3-epoxy-2-ethyl-",347.05,1,CCCC1OC1(CC)CO,le15
2775,"Isobutyric acid, butyl ester (6CI,7CI,8CI)",319.85,1,CCCCOC(=O)C(C)C,le15
2776,"Pentanoic acid, 2-propyl-",384.15,1,CCCC(CCC)C(=O)O,le15
2777,"Heptanoic acid, methyl ester",325.15,1,CCCCCCC(=O)OC,le15
2778,"2-Pentanol, 4-methyl-, acetate",318.15,1,CC(=O)OC(C)CC(C)C,le15
2779,"Butanoic acid, butyl ester",322.55,1,CCCCOC(=O)CCC,le15
2780,heptyl formate,333.15,1,CCCCCCCOC=O,le15
2781,"Hexanoic acid, ethyl ester",322.55,1,CCCCCC(=O)OCC,le15
2782,Octanoic acid,380.529,1,CCCCCCCC(=O)O,le15
2783,"Hexanoic acid, 2-ethyl-",389.75,1,CCCCC(CC)C(=O)O,le15
2784,propyl 3-methylbutanoate,319.85,1,CCCOC(=O)CC(C)C,le15
2785,2-Ethoxycyclohexan-1-ol,353.55,1,CCOC1CCCCC1O,le15
2786,"Ethane, 1,2-diisothiocyanato- (9CI)",395.15,1,S=C=NCCN=C=S,le15
2787,[3-(hydroxymethyl)cyclohexyl]methanol,404.65,1,OCC1CCCC(CO)C1,le15
2788,"Butane, 1-(2-(ethenyloxy)ethoxy)- (9CI)",315.05,1,C=COCCOCCCC,le15
2789,"1,1-diethoxybut-2-ene",312.05,1,CC=CC(OCC)OCC,le15
2790,propan-2-yl 3-methylbutanoate,307.85,1,CC(C)CC(=O)OC(C)C,le15
2791,"Propanoic acid, 2-methyl-, 2-methylpropyl ester",307.85,1,CC(C)COC(=O)C(C)C,le15
2792,"Valeric acid, propyl ester (8CI)",325.55,1,CCCCC(=O)OCCC,le15
2793,"Acetic acid, hexyl ester",310.35,1,CCCCCCOC(C)=O,le15
2794,"Butanoic acid, 2-methylpropyl ester",318.75,1,CCCC(=O)OCC(C)C,le15
2795,"Acetic acid, 2-ethylbutyl ester",325.95,1,CCC(CC)COC(C)=O,le15
2796,ethyl 4-methylpentanoate,319.85,1,CCOC(=O)CCC(C)C,le15
2797,Methylheptanoate,325.0,1,CCCCCCC(=O)OC,le15
2798,"Morpholine, 4-(3-aminopropyl)- (8CI)",371.15,1,NCCCN1CCOCC1,le15
2799,"1,3-dipropylurea",395.45,1,CCCNC(=O)NCCC,le15
2800,4-ethylheptan-4-ol,344.25,1,CCCC(O)(CC)CCC,le15
2801,nonan-5-ol,352.65,1,CCCCC(O)CCCC,le15
2802,2-methyloctan-2-ol,344.25,1,CCCCCCC(C)(C)O,le15
2803,"3,6-dimethylheptan-3-ol",343.15,1,CCC(C)(O)CCC(C)C,le15
2804,"3,5,5-trimethylhexan-1-ol",353.15,1,CC(CCO)CC(C)(C)C,le15
2805,3-ethylheptan-1-ol,352.65,1,CCCCC(CC)CCO,le15
2806,"3-Octanol, 3-methyl-",344.25,1,CCCCCC(C)(O)CC,le15
2807,"2,2,3-trimethylhexan-3-ol",331.05,1,CCCC(C)(O)C(C)(C)C,le15
2808,"2-Heptanol, 2,6-dimethyl-",336.15,1,CC(C)CCCC(C)(C)O,le15
2809,"2,6-dimethylheptan-3-ol",342.95,1,CC(C)CCC(O)C(C)C,le15
2810,"2,4-dimethylheptan-4-ol",343.15,1,CCCC(C)(O)CC(C)C,le15
2811,"3,5-dimethylheptan-4-ol",342.95,1,CCC(C)C(O)C(C)CC,le15
2812,4-methyloctan-4-ol,344.25,1,CCCCC(C)(O)CCC,le15
2813,"4-Heptanol, 2,6-dimethyl-",339.15,1,CC(C)CC(O)CC(C)C,le15
2814,Nonyl alcohol,370.92800000000005,1,CCCCCCCCCO,le15
2815,"1-Octanol, 7-methyl-",352.65,1,CC(C)CCCCCCO,le15
2816,"N,N,N',N',1-Pentamethyltrimethylenediamine",313.75,1,CC(CCN(C)C)N(C)C,le15
2817,"octane-1,8-diamine",438.15,1,NCCCCCCCCN,le15
2818,"Hydrazine, 1-(1,5-dimethylhexyl)-",373.35,1,CC(C)CCCC(C)NN,le15
2819,tetraethylsilane,299.25,1,CC[Si](CC)(CC)CC,le15
2820,"Acetonitrile, trichloro-",283.65,1,N#CC(Cl)(Cl)Cl,le15
2821,"1,3-Benzenediol, 4-chloro-",394.75,1,Oc1ccc(Cl)c(O)c1,le15
2822,"1,4-Benzenediol, 2-chloro-",392.85,1,Oc1ccc(O)c(Cl)c1,le15
2823,"1,2-Benzenediol, 4-chloro-",388.45,1,Oc1ccc(Cl)cc1O,le15
2824,"Toluene, alpha-chloro-p-fluoro- (8CI)",338.15,1,Fc1ccc(CCl)cc1,le15
2825,1-chloro-3-fluoro-2-methylbenzene,320.85,1,Cc1c(F)cccc1Cl,le15
2826,(E)-1-chloro-3-ethylpent-1-en-4-yn-3-ol,341.55,1,C#CC(O)(/C=C/Cl)CC,le15
2827,4-chlorobenzenethiol,351.75,1,Sc1ccc(Cl)cc1,le15
2828,3-chlorobenzenethiol,363.15,1,Sc1cccc(Cl)c1,le15
2829,2-chlorobenzenethiol,361.45,1,Sc1ccccc1Cl,le15
2830,"Thiazole, 2-amino-5-nitro-",435.65,1,Nc1ncc([N+](=O)[O-])s1,le15
2831,8-Hydroxyquinoline,416.25,1,Oc1cccc2cccnc12,le15
2832,5-Hydroxyquinoline,474.85,1,Oc1cccc2ncccc12,le15
2833,7-Hydroxyquinoline,416.22,1,Oc1ccc2cccnc2c1,le15
2834,4-Hydroxyquinoline,395.45,1,Oc1ccnc2ccccc12,le15
2835,"Quinoline, 1-oxide, dihydrate",408.35,1,O.O.[O-][n+]1cccc2ccccc21,le15
2836,6-Hydroxyquinoline,416.25,1,Oc1ccc2ncccc2c1,le15
2837,"2,3-dimethyl-1H-indole",393.95,1,Cc1[nH]c2ccccc2c1C,le15
2838,2-phenylbutanenitrile,378.15,1,CCC(C#N)c1ccccc1,le15
2839,"Butyronitrile, 4-phenyl- (8CI)",404.85,1,N#CCCCc1ccccc1,le15
2840,ethyl N-butylcarbamate,350.65,1,CCCCNC(=O)OCC,le15
2841,"Heptanoic acid, 7-amino-",390.65,1,NCCCCCCC(=O)O,le15
2842,"Ethanol, 2-(bis(1-methylethyl)amino)-",343.15,1,CC(C)N(CCO)C(C)C,le15
2843,2-(dipropylamino)ethanol,338.75,1,CCCN(CCC)CCO,le15
2844,"1,3-Propanediamine, N-(3-aminopropyl)-N-methyl-",375.95,1,CN(CCCN)CCCN,le15
2845,"1-Propene, 1,2,3-trichloro-",338.65,1,ClC=C(Cl)CCl,le15
2846,"1,1,2-trichloroprop-1-ene",314.95,1,CC(Cl)=C(Cl)Cl,le15
2847,"3,3,3-trichloroprop-1-ene",310.85,1,C=CC(Cl)(Cl)Cl,le15
2848,"s-Triazine, 2,4-diamino-6-chloro- (8CI)",522.05,1,Nc1nc(N)nc(Cl)n1,le15
2849,3-chloro-4-fluoroaniline,422.15,1,Nc1ccc(F)c(Cl)c1,le15
2850,"2,2,3,3-tetrafluoropropanoic acid",312.05,1,O=C(O)C(F)(F)C(F)F,le15
2851,"1-ethoxy-1,1,2,2-tetrafluoroethane",330.15,1,CCOC(F)(F)C(F)F,le15
2852,"Toluene, alpha,alpha,alpha-trifluoro-",285.15,1,FC(F)(F)c1ccccc1,le15
2853,2H-1-Benzopyran-2-one,435.15,1,O=c1ccc2ccccc2o1,le15
2854,isochromen-1-one,376.65,1,O=c1occc2ccccc12,le15
2855,"Ethanedioic acid, 1,2-diethyl ester",349.15,1,CCOC(=O)C(=O)OCC,le15
2856,"Butanedioic acid, dimethyl ester",361.55,1,COC(=O)CCC(=O)OC,le15
2857,"Ethylene glycol, diacetate",355.15,1,CC(=O)OCCOC(C)=O,le15
2858,1(2H)-Phthalazinone,483.05,1,O=c1[nH]ncc2ccccc12,le15
2859,Hexanedioic acid,445.895,1,O=C(O)CCCCC(=O)O,le15
2860,4-Hydroxyquinazoline,410.45,1,Oc1ncnc2ccccc12,le15
2861,1-acetyloxyethyl acetate,351.35,1,CC(=O)OC(C)OC(C)=O,le15
2862,dimethyl 2-methylpropanedioate,349.25,1,COC(=O)C(C)C(=O)OC,le15
2863,"1,3,4-Oxadiazole, 2-phenyl-",384.15,1,c1ccc(-c2nnco2)cc1,le15
2864,"Benzamide, p-cyano- (8CI)",438.75,1,N#Cc1ccc(C(N)=O)cc1,le15
2865,1-fluoronaphthalene,338.75,1,Fc1cccc2ccccc12,le15
2866,2-fluoronaphthalene,338.55,1,Fc1ccc2ccccc2c1,le15
2867,"4-Thiazolecarboxylic acid, 2-amino-4,5-dihydro-",472.45,1,NC1=NC(C(=O)O)CS1,le15
2868,"3-Buten-2-one, 4-phenyl-",338.75,1,CC(=O)C=Cc1ccccc1,le15
2869,"Benzenemethanol, alpha-ethynyl-alpha-methyl-",369.15,1,C#CC(C)(O)c1ccccc1,le15
2870,"1,2,3,4-Tetrahydronaphthalen-1-one",377.75,1,O=C1CCCc2ccccc21,le15
2871,(E)-4-phenylbut-3-en-2-one,338.75,1,CC(=O)/C=C/c1ccccc1,le15
2872,"4,7-dimethyl-1-benzofuran",359.55,1,Cc1ccc(C)c2occc12,le15
2873,"2-Propenal, 2-methyl-3-phenyl-",363.45,1,CC(C=O)=Cc1ccccc1,le15
2874,"5,6-dimethyl-1-benzofuran",361.85,1,Cc1cc2ccoc2cc1C,le15
2875,"Propanoic acid, 2-hydroxy-, butyl ester",344.15,1,CCCCOC(=O)C(C)O,le15
2876,"Pyridine, 3-(3,4-dihydro-2H-pyrrol-5-yl)- (9CI)",374.95,1,c1cncc(C2=NCCC2)c1,le15
2877,dipropyl carbonate,328.15,1,CCCOC(=O)OCCC,le15
2878,"Propanoic acid, 3-ethoxy-, ethyl ester",325.35,1,CCOCCC(=O)OCC,le15
2879,"Propanenitrile, 3-(phenylamino)-",426.05,1,N#CCCNc1ccccc1,le15
2880,4-(dimethylamino)benzonitrile,418.55,1,CN(C)c1ccc(C#N)cc1,le15
2881,"m-Dioxane-4-ethanol, 4-methyl-",374.65,1,CC1(CCO)CCOCO1,le15
2882,"1-Butanol, 3-methoxy-, acetate",329.05,1,COC(C)CCOC(C)=O,le15
2883,"2-Propenal, phenylhydrazone (9CI)",375.25,1,C=CC=NNc1ccccc1,le15
2884,"2,6-dimethyl-1H-benzimidazole",459.764,1,Cc1ccc2nc(C)[nH]c2c1,le15
2885,"(2S)-2,6-diaminohexanoic acid",415.35,1,NCCCC[C@H](N)C(=O)O,le15
2886,DL-Lysine,415.366,1,NCCCCC(N)C(=O)O,le15
2887,"2-Propenoic acid, 2-(methylthio)ethyl ester (9CI)",360.85,1,C=CC(=O)OCCSC,le15
2888,"2-ethenyl-1,3,5-trimethylbenzene",344.95,1,C=Cc1c(C)cc(C)cc1C,le15
2889,"1-methyl-1,2,3,4-tetrahydronaphthalene",352.25,1,CC1CCCc2ccccc21,le15
2890,"6-methyl-1,2,3,4-tetrahydronaphthalene",365.45,1,Cc1ccc2c(c1)CCCC2,le15
2891,1-ethenyl-4-propan-2-ylbenzene,343.25,1,C=Cc1ccc(C(C)C)cc1,le15
2892,"2-methyl-1,2,3,4-tetrahydronaphthalene",352.85,1,CC1CCc2ccccc2C1,le15
2893,"1-ethyl-2,3-dihydro-1H-indene",348.65,1,CCC1CCc2ccccc21,le15
2894,"3,3-dimethyl-1,2-dihydroindene",336.75,1,CC1(C)CCc2ccccc21,le15
2895,pent-1-en-3-ylbenzene,333.75,1,C=CC(CC)c1ccccc1,le15
2896,"5-methyl-1,2,3,4-tetrahydronaphthalene",367.35,1,Cc1cccc2c1CCCC2,le15
2897,"1,3-Hexanediol, 2-ethyl-",402.55,1,CCCC(O)C(CC)CO,le15
2898,"2,5-dimethylhexane-2,5-diol",399.85,1,CC(C)(O)CCC(C)(C)O,le15
2899,"Peroxide, bis(1,1-dimethylethyl)",302.85,1,CC(C)(C)OOC(C)(C)C,le15
2900,"Ethanol, 2-(hexyloxy)-",372.05,1,CCCCCCOCCO,le15
2901,"Ethanol, 2-(2-ethylbutoxy)-",331.25,1,CCC(CC)COCCO,le15
2902,Ditertbutylperoxide,285.0,1,CC(C)(C)OOC(C)(C)C,le15
2903,1-amino-3-(diethylamino)propan-2-ol,361.85,1,CCN(CC)CC(O)CN,le15
2904,"1,2-Ethanediamine, N,N'-bis(2-aminoethyl)-",422.15,1,NCCNCCNCCN,le15
2905,1-fluorononane,358.45,1,CCCCCCCCCF,le15
2906,"Diethylenetriamine, 4-(2-aminoethyl)- (6CI,7CI,8CI)",367.65,1,NCCN(CCN)CCN,le15
2907,"Propionic acid, 3-(trimethylsilyl)- (8CI)",362.15,1,C[Si](C)(C)CCC(=O)O,le15
2908,"Disulfide, di-2-propenyl",315.55,1,C=CCSSCC=C,le15
2909,tert-Butyl sulfide (8CI),299.85,1,CC(C)(C)SC(C)(C)C,le15
2910,"Butane, 1,1'-thiobis-",349.85,1,CCCCSCCCC,le15
2911,2-methyl-1-(2-methylpropylsulfanyl)propane,319.05,1,CC(C)CSCC(C)C,le15
2912,secButylsulfide,312.0,1,CCC(C)SC(C)CC,le15
2913,"Ethanesulfonyl fluoride, 2-chloro-",308.85,1,O=S(=O)(F)CCCl,le15
2914,cyclohexanecarbonyl chloride,354.45,1,O=C(Cl)C1CCCCC1,le15
2915,3-bromofuran,276.45,1,Brc1ccoc1,le15
2916,4-bromo-1H-pyrazole,381.15,1,Brc1cn[nH]c1,le15
2917,3-(trifluoromethyl)pyridine,304.25,1,FC(F)(F)c1cccnc1,le15
2918,"Benzenamine, 2,3,4-trifluoro-",344.95,1,Nc1ccc(F)c(F)c1F,le15
2919,"1H-Isoindole-1,3(2H)-dione",444.05,1,O=C1NC(=O)c2ccccc21,le15
2920,ethyl 2-nitropropanoate,362.55,1,CCOC(=O)C(C)[N+](=O)[O-],le15
2921,"1,2,3-Benzotriazin-4(3H)-one (8CI)",397.75,1,O=c1[nH]nnc2ccccc12,le15
2922,"Quinoline, 8-fluoro-",371.15,1,Fc1cccc2cccnc12,le15
2923,"Quinoline, 5-fluoro-",371.15,1,Fc1cccc2ncccc12,le15
2924,"Quinoline, 4-fluoro-",371.15,1,Fc1ccnc2ccccc12,le15
2925,"Quinoline, 3-fluoro-",371.15,1,Fc1cnc2ccccc2c1,le15
2926,"Quinoline, 7-fluoro-",371.15,1,Fc1ccc2cccnc2c1,le15
2927,2-Fluoroquinoline,373.25,1,Fc1ccc2ccccc2n1,le15
2928,"Quinoline, 6-fluoro-",371.15,1,Fc1ccc2ncccc2c1,le15
2929,"2,5-dimethyl-1,3-benzoxazole",364.15,1,Cc1ccc2oc(C)nc2c1,le15
2930,2-(4-methoxyphenyl)acetonitrile,385.15,1,COc1ccc(CC#N)cc1,le15
2931,"1H-Benzimidazol-2-amine, 1-methyl-",429.45,1,Cn1c(N)nc2ccccc21,le15
2932,hexyl nitrate,335.95,1,CCCCCCO[N+](=O)[O-],le15
2933,"1-methyl-3,4-dihydro-2H-quinoline",368.15,1,CN1CCCc2ccccc21,le15
2934,2-[(E)-pent-3-enyl]pyridine,355.95,1,C/C=C/CCc1ccccn1,le15
2935,"1,1-diethoxy-N,N-dimethylmethanamine",295.35,1,CCOC(OCC)N(C)C,le15
2936,"Ethanol, 2-((2-((2-aminoethyl)amino)ethyl)amino)-",379.25,1,NCCNCCNCCO,le15
2937,"Acetaldehyde, 2,2,2-trichloro-",288.05,1,O=CC(Cl)(Cl)Cl,le15
2938,"Propane, 1,1,2-trichloro-",317.45,1,CC(Cl)C(Cl)Cl,le15
2939,"Propane, 1,2,2-trichloro-",317.25,1,CC(Cl)(Cl)CCl,le15
2940,"Propane, 1,2,3-trichloro-",347.15,1,ClCC(Cl)CCl,le15
2941,"1,1,3-trichloropropane",332.85,1,ClCCC(Cl)Cl,le15
2942,"Pyridine, 2,3-dichloro-",360.65,1,Clc1cccnc1Cl,le15
2943,"Pyridine, 2,6-dichloro-",370.65,1,Clc1cccc(Cl)n1,le15
2944,"Butanenitrile, 4-bromo-",377.05,1,N#CCCCBr,le15
2945,"2-Butenedioic acid, 2,3-dihydroxy-, (E)- (9CI)",475.36300000000006,1,O=C(O)/C(O)=C(\O)C(=O)O,le15
2946,PhthalicAnhydride,425.0,1,O=C1OC(=O)c2ccccc21,le15
2947,"Benzonitrile, 3-nitro-",383.05,1,N#Cc1cccc([N+](=O)[O-])c1,le15
2948,"Benzonitrile, 4-nitro-",413.05,1,N#Cc1ccc([N+](=O)[O-])cc1,le15
2949,"Benzonitrile, 2-nitro- (9CI)",410.75,1,N#Cc1ccccc1[N+](=O)[O-],le15
2950,"2-Propenoic acid, 3-phenyl-, (2E)-",462.65,1,O=C(O)/C=C/c1ccccc1,le15
2951,"4H-1-Benzopyran-4-one, 2,3-dihydro-",401.534,1,O=C1CCOc2ccccc21,le15
2952,"1,2-Propanedione, 1-phenyl-",357.15,1,CC(=O)C(=O)c1ccccc1,le15
2953,"2H-1-Benzopyran-2-one, 3,4-dihydro-",381.55,1,O=C1CCc2ccccc2O1,le15
2954,"3-Pyridinecarbonitrile, 1,2-dihydro-4,6-dimethyl-2-oxo-",429.95,1,Cc1cc(C)c(C#N)c(=O)[nH]1,le15
2955,"Indoline, 1-nitroso-",409.05,1,O=NN1CCc2ccccc21,le15
2956,"2-Butanone, 3-ethoxy-1,1-dihydroxy-",372.65,1,CCOC(C)C(=O)C(O)O,le15
2957,"Hydratropaldehyde, p-methyl- (6CI,7CI,8CI)",374.15,1,Cc1ccc(C(C)C=O)cc1,le15
2958,"Benzene, 1-methoxy-4-(2-propenyl)-",354.15,1,C=CCc1ccc(OC)cc1,le15
2959,"2,4,6-trimethylbenzaldehyde",378.75,1,Cc1cc(C)c(C=O)c(C)c1,le15
2960,"1-Naphthalenol, 1,2,3,4-tetrahydro-",373.05,1,OC1CCCc2ccccc21,le15
2961,"2-Naphthalenol, 1,2,3,4-tetrahydro- (9CI)",371.55,1,OC1CCc2ccccc2C1,le15
2962,2-methyl-1-phenylpropan-1-one,352.45,1,CC(C)C(=O)c1ccccc1,le15
2963,1-(4-ethylphenyl)ethanone,367.25,1,CCc1ccc(C(C)=O)cc1,le15
2964,1-phenylbutan-2-one,363.75,1,CCC(=O)Cc1ccccc1,le15
2965,"5,6,7,8-tetrahydronaphthalen-2-ol",404.95,1,Oc1ccc2c(c1)CCCC2,le15
2966,"Benzene, (3,4-epoxybutyl)-",358.65,1,c1ccc(CCC2CO2)cc1,le15
2967,"2-Propen-1-ol, 2-methyl-3-phenyl-",395.65,1,CC(=Cc1ccccc1)CO,le15
2968,"2-Butanone, 4-phenyl-",371.15,1,CC(=O)CCc1ccccc1,le15
2969,3-(4-methylphenyl)propanal,372.55,1,Cc1ccc(CCC=O)cc1,le15
2970,1-(3-methylphenyl)propan-1-one,371.25,1,CCC(=O)c1cccc(C)c1,le15
2971,"Benzene, 1-methoxy-4-(1-propenyl)-",361.55,1,CC=Cc1ccc(OC)cc1,le15
2972,"Benzaldehyde, 4-(1-methylethyl)-",366.45,1,CC(C)c1ccc(C=O)cc1,le15
2973,"5,6,7,8-tetrahydronaphthalen-1-ol",395.75,1,Oc1cccc2c1CCCC2,le15
2974,"1-(2,5-dimethylphenyl)ethanone",361.95,1,CC(=O)c1cc(C)ccc1C,le15
2975,"Benzene, 1-methoxy-4-(1-propenyl)-, (E)-",361.55,1,C/C=C/c1ccc(OC)cc1,le15
2976,4-methyl-2-prop-2-enylphenol,374.85,1,C=CCc1cc(C)ccc1O,le15
2977,1phenyl1butanone,361.0,1,CCCC(=O)c1ccccc1,le15
2978,Anethole,363.0,1,CC=Cc1ccc(OC)cc1,le15
2979,"Ethane, 1,1',1''-(methylidynetris(oxy))tris-",303.15,1,CCOC(OCC)OCC,le15
2980,"Ether, 2-ethoxyethyl 2-methoxyethyl",326.95,1,CCOCCOCCOC,le15
2981,"4-Thiazolidinone, 3-amino-2-thioxo-",389.15,1,NN1C(=O)CSC1=S,le15
2982,"N,N-dimethyl-N'-phenylmethanimidamide",359.85,1,CN(C)C=Nc1ccccc1,le15
2983,"Ethanol, 2-(2-(1-methylethoxy)ethoxyl)-",354.05,1,CC(C)OCCOCCO,le15
2984,Triethoxymethane,303.0,1,CCOC(OCC)OCC,le15
2985,2-methyl-1-benzothiophene,345.55,1,Cc1cc2ccccc2s1,le15
2986,"Sulfide, phenyl 2-propynyl (6CI,7CI,8CI)",349.85,1,C#CCSc1ccccc1,le15
2987,"1-Octanol, 8-fluoro-",378.95,1,OCCCCCCCCF,le15
2988,"Thiophene, tetrahydro-2,4-dimethyl-, 1,1-dioxide",418.75,1,CC1CC(C)S(=O)(=O)C1,le15
2989,"1,2,3,4,5-pentamethylbenzene",364.25,1,Cc1cc(C)c(C)c(C)c1C,le15
2990,1-tert-butyl-3-methylbenzene,333.65,1,Cc1cccc(C(C)(C)C)c1,le15
2991,3-methylbutylbenzene,338.15,1,CC(C)CCc1ccccc1,le15
2992,2-methylbutan-2-ylbenzene,332.45,1,CCC(C)(C)c1ccccc1,le15
2993,"1,3-diethyl-5-methylbenzene",342.95,1,CCc1cc(C)cc(CC)c1,le15
2994,pentan-2-ylbenzene,333.75,1,CCCC(C)c1ccccc1,le15
2995,2-methylbutylbenzene,337.15,1,CCC(C)Cc1ccccc1,le15
2996,1-ethyl-4-propan-2-ylbenzene,338.85,1,CCc1ccc(C(C)C)cc1,le15
2997,"2,4-dimethyl-1-propan-2-ylbenzene",340.25,1,Cc1ccc(C(C)C)c(C)c1,le15
2998,1-ethyl-3-propan-2-ylbenzene,335.95,1,CCc1cccc(C(C)C)c1,le15
2999,1-methyl-4-(2-methylpropyl)benzene,340.45,1,Cc1ccc(CC(C)C)cc1,le15
3000,"1-ethyl-2,4,5-trimethylbenzene",348.75,1,CCc1cc(C)c(C)cc1C,le15
3001,pentan-2-ylbenzene,333.75,1,CCCC(C)c1ccccc1,le15
3002,1-methyl-2-(2-methylpropyl)benzene,341.75,1,Cc1ccccc1CC(C)C,le15
3003,"Benzene, 1-methyl-4-(1,1-dimethylethyl)- (9CI)",327.55,1,Cc1ccc(C(C)(C)C)cc1,le15
3004,3-methylbutan-2-ylbenzene,330.05,1,CC(C)C(C)c1ccccc1,le15
3005,"Disulfide, 2-propenyl propyl",327.55,1,C=CCSSCCC,le15
3006,"2-Propenoic acid, 2-methyl-, 2-chloroethyl ester",348.45,1,C=C(C)C(=O)OCCCl,le15
3007,Heptanoyl chloride,330.15,1,CCCCCCC(=O)Cl,le15
3008,"Heptane, 1-chloro-5-methyl-",325.65,1,CCC(C)CCCCCl,le15
3009,"Heptane, 3-(chloromethyl)-",333.15,1,CCCCC(CC)CCl,le15
3010,"Pyridazine, 3,6-dichloro-",421.05,1,Clc1ccc(Cl)nn1,le15
3011,"Methanesulfonyl chloride, chloro-",346.55,1,O=S(=O)(Cl)CCl,le15
3012,bromocyclopentane,308.15,1,BrC1CCCC1,le15
3013,5-bromopent-1-ene,304.15,1,C=CCCCBr,le15
3014,"2,2,3,3,3-pentafluoropropan-1-amine",322.65,1,NCC(F)(F)C(F)(F)F,le15
3015,"Benzene, 1-ethenyl-4-nitro- (9CI)",358.45,1,C=Cc1ccc([N+](=O)[O-])cc1,le15
3016,"Benzene, (2-nitroethenyl)-",390.65,1,O=[N+]([O-])C=Cc1ccccc1,le15
3017,4-Hydroxy-3-methoxybenzonitrile,403.25,1,COc1cc(C#N)ccc1O,le15
3018,"Adenine, N-methyl- (8CI)",525.05,1,CNc1ncnc2nc[nH]c12,le15
3019,"Adenine, 9-methyl- (8CI)",460.35699999999997,1,Cn1cnc2c(N)ncnc21,le15
3020,"Acetamide, N-methyl-N-phenyl-",366.35,1,CC(=O)N(C)c1ccccc1,le15
3021,"N,N-dimethylbenzamide",385.05,1,CN(C)C(=O)c1ccccc1,le15
3022,"Benzaldehyde, 4-(dimethylamino)-",376.45,1,CN(C)c1ccc(C=O)cc1,le15
3023,ethyl N-phenylmethanimidate,344.15,1,CCOC=Nc1ccccc1,le15
3024,"Ethanol, 2,2',2''-nitrilotris-",458.15,1,OCCN(CCO)CCO,le15
3025,1-isothiocyanato-4-methylbenzene,373.65,1,Cc1ccc(N=C=S)cc1,le15
3026,"Benzene, (isothiocyanatomethyl)-",373.55,1,S=C=NCc1ccccc1,le15
3027,"Benzothiazole, 2-methyl-",375.15,1,Cc1nc2ccccc2s1,le15
3028,Methionine,412.55,1,CSCC[C@H](N)C(=O)O,le15
3029,"Methionine, L-",412.55,1,CSCC[C@H](N)C(=O)O,le15
3030,"L-Cysteine, S-ethyl- (9CI)",401.85,1,CCSC[C@H](N)C(=O)O,le15
3031,"Benzenamine, N,N-diethyl-",370.95,1,CCN(CC)c1ccccc1,le15
3032,N-benzylpropan-2-amine,360.15,1,CC(C)NCc1ccccc1,le15
3033,"Benzenamine, 4-butyl-",374.85,1,CCCCc1ccc(N)cc1,le15
3034,2-methyl-1-phenylpropan-2-amine,366.25,1,CC(C)(N)Cc1ccccc1,le15
3035,"Benzenamine, 2,6-diethyl-",396.45,1,CCc1cccc(CC)c1N,le15
3036,"Benzenamine, 4-(1,1-dimethylethyl)-",374.15,1,CC(C)(C)c1ccc(N)cc1,le15
3037,"Benzenamine, N-butyl-",380.15,1,CCCCNc1ccccc1,le15
3038,"Benzenemethanamine, N,N,alpha-trimethyl- (9CI)",337.55,1,CC(c1ccccc1)N(C)C,le15
3039,"2,6-Octadienenitrile, 3,7-dimethyl-, (2E)-",376.85,1,CC(C)=CCC/C(C)=C/C#N,le15
3040,2-tert-butylaniline,372.85,1,CC(C)(C)c1ccccc1N,le15
3041,4-phenylbutan-2-amine,370.95,1,CC(N)CCc1ccccc1,le15
3042,4-(2-methylpropyl)aniline,375.85,1,CC(C)Cc1ccc(N)cc1,le15
3043,"Benzenamine, 4-(1-methylpropyl)-",380.95,1,CCC(C)c1ccc(N)cc1,le15
3044,2-pentan-3-ylpyridine,324.45,1,CCC(CC)c1ccccn1,le15
3045,"1,2-Dithiolan-4-amine, N,N-dimethyl-",353.55,1,CN(C)C1CSSC1,le15
3046,"Ethanol, 2,2,2-trichloro-",361.15,1,OCC(Cl)(Cl)Cl,le15
3047,"Butanamide, 2-chloro-N-methyl-3-oxo-",398.75,1,CNC(=O)C(Cl)C(C)=O,le15
3048,"Acetamide, 2-chloro-N,N-diethyl-",350.15,1,CCN(CC)C(=O)CCl,le15
3049,"2,2,3,3,3-pentafluoropropan-1-ol",284.75,1,OCC(F)(F)C(F)(F)F,le15
3050,"1,2,4,5-tetrafluorobenzene",289.15,1,Fc1cc(F)c(F)cc1F,le15
3051,"1,2,3,4-tetrafluorobenzene",293.75,1,Fc1ccc(F)c(F)c1F,le15
3052,"1,2,3,5-tetrafluorobenzene",277.55,1,Fc1cc(F)c(F)c(F)c1,le15
3053,"(2R,3R)-2,3-dihydroxybutanedioic acid",482.55,1,O=C(O)[C@H](O)[C@@H](O)C(=O)O,le15
3054,"Benzoic acid, 2-formyl-",435.75,1,O=Cc1ccccc1C(=O)O,le15
3055,"1,3-Benzodioxole-5-carboxaldehyde",376.75,1,O=Cc1ccc2c(c1)OCO2,le15
3056,4-formylbenzoic acid,442.35,1,O=Cc1ccc(C(=O)O)cc1,le15
3057,L-Arabinopyranose,428.45,1,OC1OC[C@H](O)[C@H](O)[C@H]1O,le15
3058,"Purine-2,6-diyldiamine",720.965,1,Nc1nc(N)c2[nH]cnc2n1,le15
3059,methyl 2-methylbenzoate,355.35,1,COC(=O)c1ccccc1C,le15
3060,methyl 3-methylbenzoate,368.75,1,COC(=O)c1cccc(C)c1,le15
3061,"Benzoic acid, 4-methyl-, methyl ester",363.15,1,COC(=O)c1ccc(C)cc1,le15
3062,"Acetic acid, phenyl-, methyl ester",367.05,1,COC(=O)Cc1ccccc1,le15
3063,"Formic acid, 2-phenylethyl ester",392.25,1,O=COCCc1ccccc1,le15