,compound,flashpoint,pure substance,smiles,source
11087,"Phosphorothioic acid, O-(3-chloro-4-nitrophenyl) O,O-dimethyl ester",448.65,1.0,COP(=S)(OC)Oc1ccc([N+](=O)[O-])c(Cl)c1,le15
11088,"Phosphorothioic acid, O-(2-chloro-4-nitrophenyl) O,O-dimethyl ester",442.15,1.0,COP(=S)(OC)Oc1ccc([N+](=O)[O-])cc1Cl,le15
11089,"Phosphorothioic acid, O-(4-chloro-3-nitrophenyl) O,O-dimethyl ester",438.95,1.0,COP(=S)(OC)Oc1ccc(Cl)c([N+](=O)[O-])c1,le15
11090,"Methane, nitrotribromo-",321.25,1.0,O=[N+]([O-])C(Br)(Br)Br,le15
11091,"2H-1-Benzopyran-2-one, 3-(1-(2-furanyl)-3-oxobutyl)-4-hydroxy-",487.35,1.0,CC(=O)CC(c1ccco1)c1c(O)c2ccccc2oc1=O,le15
11092,"Benzenamine, N,N-diethyl-4-((4-nitrophenyl)azo)-",510.95,1.0,CCN(CC)c1ccc(N=Nc2ccc([N+](=O)[O-])cc2)cc1,le15
11093,"1H-Pyrazole, 4,5-dihydro-1,3,5-triphenyl-",501.45,1.0,c1ccc(C2=NN(c3ccccc3)C(c3ccccc3)C2)cc1,le15
11094,"2,4-Xylenol, 6,6'-butylidenebis-",475.05,1.0,CCCC(c1cc(C)cc(C)c1O)c1cc(C)cc(C)c1O,le15
11095,"1-Naphthaleneacetamide, alpha-(2-(dimethylamino)ethyl)-alpha-isopropyl",518.8499999999998,1.0,CN(C)CCC(C)(C)NC(=O)Cc1cccc2ccccc12,le15
11096,"10H-Phenothiazine-10-propanamine, N,N,beta-trimethyl-",481.15,1.0,CC(CN(C)C)CN1c2ccccc2Sc2ccccc21,le15
11097,"Oxiraneoctanoic acid, 3-octyl- (9CI)",414.25,1.0,CCCCCCCCC1OC1CCCCCCCC(=O)O,le15
11098,methyl octadecanoate,383.15,1.0,CCCCCCCCCCCCCCCCCC(=O)OC,le15
11099,"Phosphorotrithious acid, tributyl ester",456.95,1.0,CCCCSP(SCCCC)SCCCC,le15
11100,"Hexadecanoic acid, 1-methylethyl ester",435.35,1.0,CCCCCCCCCCCCCCCC(=O)OC(C)C,le15
11101,"2,5-Norbornadiene, 1,2,3,4,7,7-hexachloro- (8CI)",407.75,1.0,ClC1=C(Cl)C2(Cl)C=CC1(Cl)C2(Cl)Cl,le15
11102,"Succinic acid, alpha-butyl-p-chlorobenzyl ester",507.65,1.0,CCCCC(OC(=O)CCC(=O)[O-])c1ccc(Cl)cc1,le15
11103,"Phosphoric acid, 2,4-dichlorophenyl diethyl ester",481.65,1.0,CCOP(=O)(OCC)Oc1ccc(Cl)cc1Cl,le15
11104,"Phosphonothioic acid, ethyl-, O-(2,4-dichlorophenyl) O-ethyl ester",434.55,1.0,CCOP(=S)(CC)Oc1ccc(Cl)cc1Cl,le15
11105,"Caffeine, 8-(p-aminobenzyl)-",576.15,1.0,Cn1c(=O)c2c(nc(Cc3ccc(N)cc3)n2C)n(C)c1=O,le15
11106,"Morphinan-6-one, 4,5alpha-epoxy-3-methoxy-17-methyl- (8CI)",506.05,1.0,COc1ccc2c3c1O[C@H]1C(=O)CC[C@H]4[C@@H](C2)N(C)CC[C@]314,le15
11107,"3H-1,4-Benzodiazepine, 7-chloro-2-(methylamino)-5-phenyl-, 4-oxide",559.0,1.0,CNC1=Nc2ccc(Cl)cc2C(c2ccccc2)=[N+]([O-])C1,le15
11108,"Benzamide, 4-amino-5-chloro-N-(2-(diethylamino)ethyl)-2-methoxy- (9CI)",480.15,1.0,CCN(CC)CCNC(=O)c1cc(Cl)c(N)cc1OC,le15
11109,"Benzimidazole, 5,6-dichloro-4-nitro-2-(trifluoromethyl)-",477.35,1.0,O=[N+]([O-])c1c(Cl)c(Cl)cc2nc(C(F)(F)F)[nH]c12,le15
11110,"Benzimidazole, 4,5-dichloro-6-nitro-2-(trifluoromethyl)-",477.35,1.0,O=[N+]([O-])c1cc2nc(C(F)(F)F)[nH]c2c(Cl)c1Cl,le15
11111,"Decane, 1,10-dibromo-",426.55,1.0,BrCCCCCCCCCCBr,le15
11112,"2-Anthracenecarboxylic acid, 9,10-dihydro-4,5,7-trihydroxy-9,10-dioxo-",657.8499999999998,1.0,O=C(O)c1cc(O)c2c(c1)C(=O)c1cc(O)cc(O)c1C2=O,le15
11113,"2-Butenoic acid, 3-((dimethoxyphosphinyl)oxy)-, phenylmethyl ester",458.55,1.0,COP(=O)(OC)OC(C)=CC(=O)OCc1ccccc1,le15
11114,"9,10-Anthracenedione, 1,4,5-trihydroxy-7-methoxy-2-methyl- (9CI)",502.75,1.0,COc1cc(O)c2c(c1)C(=O)c1c(O)c(C)cc(O)c1C2=O,le15
11115,"Benzoic acid, 2-(acetyloxy)-, 2-carboxyphenyl ester",477.05,1.0,CC(=O)Oc1ccccc1C(=O)Oc1ccccc1C(=O)O,le15
11116,"4H-1-Benzopyran-4-one, 5,7-dihydroxy-2-(4-hydroxyphenyl)-6-methoxy-",503.25,1.0,COc1c(O)cc2oc(-c3ccc(O)cc3)cc(=O)c2c1O,le15
11117,"Anthraquinone, 3-methoxy-6-methyl-1,2,8-trihydroxy-",486.65,1.0,COc1cc2c(c(O)c1O)C(=O)c1c(O)cc(C)cc1C2=O,le15
11118,"2-Naphthalenol, 1,1'-methylenebis- (9CI)",531.75,1.0,Oc1ccc2ccccc2c1Cc1c(O)ccc2ccccc12,le15
11119,"Benzenesulfonamide, 4-amino-N-2-quinoxalinyl-",560.25,1.0,Nc1ccc(S(=O)(=O)Nc2cnc3ccccc3n2)cc1,le15
11120,"2-Cyclohexen-1-one, 3-hexyl-5-(3,4-(methylenedioxy)phenyl)-",474.65,1.0,CCCCCCC1=CC(=O)CC(c2ccc3c(c2)OCO3)C1,le15
11121,"Methane, sulfonylbis(trichloro-",398.85,1.0,O=S(=O)(C(Cl)(Cl)Cl)C(Cl)(Cl)Cl,le15
11122,"5-Bromo-2-phenyl-1H-indene-1,3(2H)-dione",434.95,1.0,O=C1c2ccc(Br)cc2C(=O)C1c1ccccc1,le15
11123,"1,3-Indandione, 4-bromo-2-phenyl-",434.95,1.0,O=C1c2cccc(Br)c2C(=O)C1c1ccccc1,le15
11124,"Benzohydroxamic acid, N-fluoren-2-yl-",547.55,1.0,O=C(c1ccccc1)N(O)c1ccc2c(c1)Cc1ccccc1-2,le15
11125,"Morphinan-6-one, 4,5alpha-epoxy-3,14-dihydroxy-17-methyl- (8CI)",540.606,1.0,CN1CC[C@]23c4c5ccc(O)c4O[C@H]2C(=O)CC[C@@]3(O)[C@H]1C5,le15
11126,"Morphinan-6-ol, 4,5-epoxy-3-methoxy-17-methyl-, (5alpha,6alpha)-",506.35,1.0,COc1ccc2c3c1O[C@H]1[C@@H](O)CC[C@H]4[C@@H](C2)N(C)CC[C@]314,le15
11127,"4H-1-Benzopyran-4-one, 2-(3,4-dihydroxyphenyl)-3,5,7-trihydroxy-",521.25,1.0,O=c1c(O)c(-c2ccc(O)c(O)c2)oc2cc(O)cc(O)c12,le15
11128,"Xanthen-9-one, 8-hydroxy-1,3,5-trimethoxy-",466.75,1.0,COc1cc(OC)c2c(=O)c3c(O)ccc(OC)c3oc2c1,le15
11129,"Naphtho(1,2,3,4-def)chrysene",555.15,1.0,c1ccc2c(c1)cc1c3ccccc3c3cccc4ccc2c1c43,le15
11130,"1,2-Benzenediol, 4,4'-(2,3-dimethyl-1,4-butanediyl)bis-",520.95,1.0,CC(Cc1ccc(O)c(O)c1)C(C)Cc1ccc(O)c(O)c1,le15
11131,"5,8,11,14,17-Eicosapentaenoic acid",609.15,1.0,CCC=CCC=CCC=CCC=CCC=CCCCC(=O)O,le15
11132,"Androst-4-en-3-one, 17-hydroxy-17-methyl-, (17beta)-",458.45,1.0,C[C@]1(O)CC[C@H]2[C@@H]3CCC4=CC(=O)CC[C@]4(C)[C@H]3CC[C@@]21C,le15
11133,Octadecanoyl chloride,438.15,1.0,CCCCCCCCCCCCCCCCCC(=O)Cl,le15
11134,"Acetic acid, (2,3-dichloro-4-(2-methylene-1-oxobutyl)phenoxy)-",517.25,1.0,C=C(CC)C(=O)c1ccc(OCC(=O)O)c(Cl)c1Cl,le15
11135,"Phenol, 2,4-dichloro-, benzenesulfonate",490.15,1.0,O=S(=O)(Oc1ccc(Cl)cc1Cl)c1ccccc1,le15
11136,"Propane, 1,1,1,2,3,3,3-heptachloro-2-fluoro-",379.35,1.0,FC(Cl)(C(Cl)(Cl)Cl)C(Cl)(Cl)Cl,le15
11137,"4H-1-Benzopyran-4-one, 7-methoxy-2,3-dimethyl-8-(4-morpholinylmethyl)-",494.95,1.0,COc1ccc2c(=O)c(C)c(C)oc2c1CN1CCOCC1,le15
11138,"Butane, 2,2,3,3-tetrachloro-1,1,1,4,4,4-hexafluoro-",318.25,1.0,FC(F)(F)C(Cl)(Cl)C(Cl)(Cl)C(F)(F)F,le15
11139,"Benzenemethanamine, N-(2-chloroethyl)-N-(1-methyl-2-phenoxyethyl)-",457.65,1.0,CC(COc1ccccc1)N(CCCl)Cc1ccccc1,le15
11140,"Benzenesulfonamide, N,N-dibutyl-4-chloro-",467.15,1.0,CCCCN(CCCC)S(=O)(=O)c1ccc(Cl)cc1,le15
11141,"1,4-Benzenedicarboxylic acid, 2,3,5,6-tetrachloro-",484.05,1.0,O=C(O)c1c(Cl)c(Cl)c(C(=O)O)c(Cl)c1Cl,le15
11142,"1,4,5,8-Naphthalenetetracarboxylic acid",687.15,1.0,O=C(O)c1ccc(C(=O)O)c2c(C(=O)O)ccc(C(=O)O)c12,le15
11143,"Benzenebutanoic acid, 4-(bis(2-chloroethyl)amino)-",505.25,1.0,O=C(O)CCCc1ccc(N(CCCl)CCCl)cc1,le15
11144,"Dibenz(c,f)indeno(1,2,3-ij)(2,7)naphthyridine",537.65,1.0,c1ccc2c(c1)-c1nc3ccccc3c3c1c-2nc1ccccc13,le15
11145,"Phthalic acid, butyl cyclohexyl ester (8CI)",457.55,1.0,CCCCOC(=O)c1ccccc1C(=O)OC1CCCCC1,le15
11146,ethoxy(triphenyl)silane,436.65,1.0,CCO[Si](c1ccccc1)(c1ccccc1)c1ccccc1,le15
11147,"Androstan-3-one, 17-hydroxy-2-methyl-, (2alpha,5alpha,17beta)- (9CI)",452.55,1.0,C[C@@H]1C[C@@]2(C)[C@@H](CC[C@H]3[C@@H]4CC[C@H](O)[C@@]4(C)CC[C@@H]32)CC1=O,le15
11148,"1,4-Benzenediamine, N,N'-bis(1,4-dimethylpentyl)-",507.95,1.0,CC(C)CCC(C)Nc1ccc(NC(C)CCC(C)C)cc1,le15
11149,"1H-Imidazole, 2,4,5-tribromo-",469.65,1.0,Brc1nc(Br)c(Br)[nH]1,le15
11150,"1,3-Benzenedisulfonamide, 4,5-dichloro-",584.05,1.0,NS(=O)(=O)c1cc(Cl)c(Cl)c(S(N)(=O)=O)c1,le15
11151,"Alanine, 3-(p-(bis(2-chloroethyl)amino)phenyl)-, DL-",513.05,1.0,NC(Cc1ccc(N(CCCl)CCCl)cc1)C(=O)O,le15
11152,"Alanine, 3-(p-(bis(2-chloroethyl)amino)phenyl)-, L-",513.05,1.0,N[C@@H](Cc1ccc(N(CCCl)CCCl)cc1)C(=O)O,le15
11153,"Phosphorothioic acid, O-isopropyl O-methyl O-(4-nitro-m-tolyl) ester",452.15,1.0,COP(=S)(Oc1cc(C)ccc1[N+](=O)[O-])OC(C)C,le15
11154,1-bromohexadecane,412.95,1.0,CCCCCCCCCCCCCCCCBr,le15
11155,"6-Nonenamide, 8-methyl-N-vanillyl-, (E)- (8CI)",536.25,1.0,COc1cc(CNC(=O)CCCC/C=C/C(C)C)ccc1O,le15
11156,"8-Quinolinol, 5-chloro-7-iodo-",438.85,1.0,Oc1c(I)cc(Cl)c2cccnc12,le15
11157,triphenylarsane,447.783,1.0,c1ccc([As](c2ccccc2)c2ccccc2)cc1,le15
11158,"Glycine, N,N'-1,3-propanediylbis(N-(carboxymethyl)-",602.25,1.0,O=C(O)CN(CCCN(CC(=O)O)CC(=O)O)CC(=O)O,le15
11159,"1,3,5-triphenylbenzene",511.15,1.0,c1ccc(-c2cc(-c3ccccc3)cc(-c3ccccc3)c2)cc1,le15
11160,"2,9-Dimethylpicene",552.25,1.0,Cc1ccc2ccc3c(ccc4c5cccc(C)c5ccc43)c2c1,le15
11161,"dipentyl benzene-1,2-dicarboxylate",461.95,1.0,CCCCCOC(=O)c1ccccc1C(=O)OCCCCC,le15
11162,"Phosphoric acid, dimethyl 3,5,6-trichloro-2-pyridinyl ester",425.45,1.0,COP(=O)(OC)Oc1nc(Cl)c(Cl)cc1Cl,le15
11163,"Phosphonic acid, bis(2-ethylhexyl) ester",465.95,1.0,CCCCC(CC)CO[PH](=O)OCC(CC)CCCC,le15
11164,"5,8,11,14,17-Pentaoxaheneicosane",410.35,1.0,CCCCOCCOCCOCCOCCOCCCC,le15
11165,"9,12,15-Octadecatrienoic acid, ethyl ester, (9Z,12Z,15Z)-",373.85,1.0,CC/C=C\C/C=C\C/C=C\CCCCCCCC(=O)OCC,le15
11166,"Phosphoramidothioic acid, O-methyl O-(2,4,5-trichlorophenyl) ester",454.45,1.0,COP(N)(=S)Oc1cc(Cl)c(Cl)cc1Cl,le15
11167,"Methanethioic acid, tetrathiobis-, O,O-diethyl ester (9CI)",458.95,1.0,CCOC(=S)SSSSC(=S)OCC,le15
11168,"Benzene, 1,1'-(2,2-dichloroethylidene)bis(4-ethyl-",485.25,1.0,CCc1ccc(C(c2ccc(CC)cc2)C(Cl)Cl)cc1,le15
11169,"Carbamothioic acid, methyl(3-methylphenyl)-, O-2-naphthalenyl ester",501.15,1.0,Cc1cccc(N(C)C(=S)Oc2ccc3ccccc3c2)c1,le15
11170,"1,2-dibromo-3,4,5,6-tetrafluorobenzene",371.15,1.0,Fc1c(F)c(F)c(Br)c(Br)c1F,le15
11171,"Mannitol, 1,6-dibromo-1,6-dideoxy-, D-",536.15,1.0,O[C@H](CBr)[C@@H](O)[C@H](O)[C@H](O)CBr,le15
11172,"Phosphoric acid, diethyl p-(methylsulfonyl)phenyl ester",473.95,1.0,CCOP(=O)(OCC)Oc1ccc(S(C)(=O)=O)cc1,le15
11173,"2H-1-Benzopyran-2-one, 4-hydroxy-3-(3-oxo-1-phenylbutyl)-",461.978,1.0,CC(=O)CC(c1ccccc1)c1c(O)c2ccccc2oc1=O,le15
11174,Bis(4-nitrophenyl) disulphide,516.509,1.0,O=[N+]([O-])c1ccc(SSc2ccc([N+](=O)[O-])cc2)cc1,le15
11175,"Phosphorothioic acid, O,O-diethyl O-(4-(methylsulfinyl)phenyl) ester",471.35,1.0,CCOP(=S)(OCC)Oc1ccc(S(C)=O)cc1,le15
11176,"3,5-Pyrazolidinedione, 4-butyl-1,2-diphenyl-",447.45,1.0,CCCCC1C(=O)N(c2ccccc2)N(c2ccccc2)C1=O,le15
11177,"Phosphoric acid, tripentyl ester (8CI)(9CI)",435.45,1.0,CCCCCOP(=O)(OCCCCC)OCCCCC,le15
11178,"1H-Imidazole, 2-heptadecyl-4,5-dihydro-",492.65,1.0,CCCCCCCCCCCCCCCCCC1=NCCN1,le15
11179,docos-1-ene,469.45,1.0,C=CCCCCCCCCCCCCCCCCCCCC,le15
11180,"Phosphonothioic acid, methyl-, O-(4-nitrophenyl) O-phenyl ester",482.65,1.0,CP(=S)(Oc1ccccc1)Oc1ccc([N+](=O)[O-])cc1,le15
11181,"Benzenesulfonamide, N-(5-(2-methoxyethoxy)-2-pyrimidinyl)-",538.55,1.0,COCCOc1cnc(NS(=O)(=O)c2ccccc2)nc1,le15
11182,"Adenine, N-benzyl-9-(tetrahydro-2H-pyran-2-yl)- (8CI)",554.25,1.0,c1ccc(CNc2ncnc3c2ncn3C2CCCCO2)cc1,le15
11183,"3-Heptanone, 6-(dimethylamino)-4,4-diphenyl-",399.602,1.0,CCC(=O)C(CC(C)N(C)C)(c1ccccc1)c1ccccc1,le15
11184,"1-Piperidinebutanol, alpha,alpha-diphenyl-",506.65,1.0,OC(CCCN1CCCCC1)(c1ccccc1)c1ccccc1,le15
11185,"Acetic acid, 2,4-dichlorophenoxy-, 4-chloro-2-butenyl ester",439.05,1.0,O=C(COc1ccc(Cl)cc1Cl)OCC=CCCl,le15
11186,"Phosphonothioic acid, ethyl-, O-(2-chloro-4-nitrophenyl) O-ethyl ester",457.95,1.0,CCOP(=S)(CC)Oc1ccc([N+](=O)[O-])cc1Cl,le15
11187,"Benzimidazole, 6-bromo-4-nitro-2-(trifluoromethyl)-",470.85,1.0,O=[N+]([O-])c1cc(Br)cc2nc(C(F)(F)F)[nH]c12,le15
11188,"Benzimidazole, 4-bromo-6-nitro-2-(trifluoromethyl)-",470.85,1.0,O=[N+]([O-])c1cc(Br)c2[nH]c(C(F)(F)F)nc2c1,le15
11189,"Benzene, 1,1'-(2-nitropropylidene)bis(4-chloro-",488.95,1.0,CC(C(c1ccc(Cl)cc1)c1ccc(Cl)cc1)[N+](=O)[O-],le15
11190,"Benzenesulfonamide, 4-amino-N-(5,6-dimethoxy-4-pyrimidinyl)-",543.15,1.0,COc1ncnc(NS(=O)(=O)c2ccc(N)cc2)c1OC,le15
11191,"Fluorene-9,9-dipropionic acid",583.95,1.0,O=C(O)CCC1(CCC(=O)O)c2ccccc2-c2ccccc21,le15
11192,"1-Aziridineacetamide, N,N'-1,8-octanediylbis- (9CI)",560.45,1.0,O=C(CN1CC1)NCCCCCCCCNC(=O)CN1CC1,le15
11193,hexadecyl 2-methylprop-2-enoate,441.95,1.0,C=C(C)C(=O)OCCCCCCCCCCCCCCCC,le15
11194,[dimethyl(trimethylsilyloxy)silyl]oxy-dimethyl-trimethylsilyloxysilane,361.25,1.0,C[Si](C)(C)O[Si](C)(C)O[Si](C)(C)O[Si](C)(C)C,le15
11195,"Ethanol, 2-(2,4-dichlorophenoxy)-, benzoate",443.95,1.0,O=C(OCCOc1ccc(Cl)cc1Cl)c1ccccc1,le15
11196,"Benzenemethanol, 4-chloro-alpha-(4-chlorophenyl)-alpha-(ethoxymethyl)-",486.15,1.0,CCOCC(O)(c1ccc(Cl)cc1)c1ccc(Cl)cc1,le15
11197,"Phenanthro(3,4-d)-1,3-dioxole-5-carboxylic acid, 6-nitro-",585.05,1.0,O=C(O)c1cc2c(c3c1c([N+](=O)[O-])cc1ccccc13)OCO2,le15
11198,"p-Toluenesulfonamide, N-(5-isobutyl-1,3,4-thiadiazol-2-yl)-",507.95,1.0,Cc1ccc(S(=O)(=O)Nc2nnc(CC(C)C)s2)cc1,le15
11199,"1-Piperidinepropanol, alpha-bicyclo(2.2.1)hept-5-en-2-yl-alpha-phenyl-",497.65,1.0,OC(CCN1CCCCC1)(c1ccccc1)C1CC2C=CC1C2,le15
11200,"Acetic acid, (2,4,5-trichlorophenoxy)-, 2-methylpropyl ester",412.25,1.0,CC(C)COC(=O)COc1cc(Cl)c(Cl)cc1Cl,le15
11201,"Quino(2,3-b)acridine-7,14-dione, 5,12-dihydro-",494.45,1.0,O=c1c2ccccc2[nH]c2cc3c(=O)c4ccccc4[nH]c3cc12,le15
11202,"1,2-Benzenedicarboxylic acid, butyl phenylmethyl ester",471.45,1.0,CCCCOC(=O)c1ccccc1C(=O)OCc1ccccc1,le15
11203,"Pregn-4-en-20-yn-3-one, 17-hydroxy-, (17alpha)- (9CI)",463.35,1.0,C#C[C@@]1(O)CC[C@H]2[C@@H]3CCC4=CC(=O)CC[C@]4(C)[C@H]3CC[C@@]21C,le15
11204,"10H-Phenothiazine-10-ethanamine, N,N-diethyl-alpha-methyl-",487.05,1.0,CCN(CC)C(C)CN1c2ccccc2Sc2ccccc21,le15
11205,"Octadecanoic acid, ethyl ester",434.15,1.0,CCCCCCCCCCCCCCCCCC(=O)OCC,le15
11206,icosanoic acid,442.85,1.0,CCCCCCCCCCCCCCCCCCCC(=O)O,le15
11207,"p-Xylene, alpha,alpha,alpha,alpha',alpha',alpha'-hexachloro-",426.15,1.0,ClC(Cl)(Cl)c1ccc(C(Cl)(Cl)Cl)cc1,le15
11208,"Benzoic acid, 2-(acetyloxy)-, 4-(acetylamino)phenyl ester (9CI)",552.15,1.0,CC(=O)Nc1ccc(OC(=O)c2ccccc2OC(C)=O)cc1,le15
11209,2-Methyl-1-(phenylamino)anthraquinone,464.95,1.0,Cc1ccc2c(c1Nc1ccccc1)C(=O)c1ccccc1C2=O,le15
11210,"Theophylline, 7-(p-(dimethylamino)benzyl)-",551.05,1.0,CN(C)c1ccc(Cn2cnc3c2c(=O)n(C)c(=O)n3C)cc1,le15
11211,"3H-Pyrazol-3-one, 1,2-dihydro-4-iodo-1,5-dimethyl-2-phenyl-",424.05,1.0,Cc1c(I)c(=O)n(-c2ccccc2)n1C,le15
11212,"Ethanol, 2,2'-oxybis-, dibenzoate",446.15,1.0,O=C(O)c1ccccc1.O=C(O)c1ccccc1.OCCOCCO,le15
11213,"Benz(a)anthracene-7-methanol, 12-methyl-, acetate",474.85,1.0,CC(=O)OCc1c2ccccc2c(C)c2c1ccc1ccccc12,le15
11214,"Pregn-4-ene-3,20-dione",439.85,1.0,CC(=O)[C@H]1CC[C@H]2[C@@H]3CCC4=CC(=O)CC[C@]4(C)[C@H]3CC[C@]12C,le15
11215,"Decanedioic acid, dibutyl ester",430.65,1.0,CCCCOC(=O)CCCCCCCCC(=O)OCCCC,le15
11216,dihexyl hexanedioate,430.65,1.0,CCCCCCOC(=O)CCCCC(=O)OCCCCCC,le15
11217,"Phosphorotrithioic acid, S,S,S-tributyl ester",473.55,1.0,CCCCSP(=O)(SCCCC)SCCCC,le15
11218,"Benzene, 1,2,4-tribromo-",393.15,1.0,Brc1ccc(Br)c(Br)c1,le15
11219,"Benzene, 1,3,5-tribromo-",388.65,1.0,Brc1cc(Br)cc(Br)c1,le15
11220,"Phosphorothioic acid, O-(2,4-dichlorophenyl) O,O-diethyl ester",373.15,1.0,CCOP(=S)(OCC)Oc1ccc(Cl)cc1Cl,le15
11221,"9H-Fluoren-9-one, 2,4,7-trinitro-",565.45,1.0,O=C1c2cc([N+](=O)[O-])ccc2-c2c1cc([N+](=O)[O-])cc2[N+](=O)[O-],le15
11222,"Phenol, 2,2'-thiobis(4-chloro-6-methyl- (9CI)",485.85,1.0,Cc1cc(Cl)cc(Sc2cc(Cl)cc(C)c2O)c1O,le15
11223,"Urea, N-(4-chlorophenyl)-N'-(3,4-dichlorophenyl)-",435.15,1.0,O=C(Nc1ccc(Cl)cc1)Nc1ccc(Cl)c(Cl)c1,le15
11224,"2H-1,4-Benzodiazepin-2-one, 5-(2-chlorophenyl)-1,3-dihydro-7-nitro-",544.15,1.0,O=C1CN=C(c2ccccc2Cl)c2cc([N+](=O)[O-])ccc2N1,le15
11225,"2H-1,4-Benzodiazepin-2-one, 7-bromo-1,3-dihydro-5-(2-pyridinyl)-",523.75,1.0,O=C1CN=C(c2ccccn2)c2cc(Br)ccc2N1,le15
11226,"Benzenesulfonanilide, 4,4'-dichloro-N-methyl-",495.85,1.0,CN(c1ccc(Cl)cc1)S(=O)(=O)c1ccc(Cl)cc1,le15
11227,"4H-1-Benzopyran-4-one, 3,5,7-trihydroxy-2-(4-hydroxy-3-methoxyphenyl)-",500.95,1.0,COc1cc(-c2oc3cc(O)cc(O)c3c(=O)c2O)ccc1O,le15
11228,"Diazene, bis(2-methyl-3-nitrophenyl)-, 1-oxide",535.05,1.0,Cc1c(N=[N+]([O-])c2cccc([N+](=O)[O-])c2C)cccc1[N+](=O)[O-],le15
11229,"1,5-Naphthalenediol, 2,6-dibromo-",467.35,1.0,Oc1c(Br)ccc2c(O)c(Br)ccc12,le15
11230,"Benzene, 1-chloro-2-(2,2-dichloro-1-(4-chlorophenyl)ethenyl)- (9CI)",454.95,1.0,ClC(Cl)=C(c1ccc(Cl)cc1)c1ccccc1Cl,le15
11231,"1(3H)-Isobenzofuranone, 3,3-bis(4-hydroxyphenyl)-",479.65,1.0,O=C1OC(c2ccc(O)cc2)(c2ccc(O)cc2)c2ccccc21,le15
11232,"1,2-Benzenedicarboxylic acid, diphenyl ester",528.45,1.0,O=C(Oc1ccccc1)c1ccccc1C(=O)Oc1ccccc1,le15
11233,"Benzoxazole, 2,2'-(2,5-thiophenediyl)bis-",509.05,1.0,c1ccc2oc(-c3ccc(-c4nc5ccccc5o4)s3)nc2c1,le15
11234,"Ether, p-nitrophenyl 2,4,6-trichlorophenyl",450.95,1.0,O=[N+]([O-])c1ccc(Oc2c(Cl)cc(Cl)cc2Cl)cc1,le15
11235,"10H-Phenothiazine-10-propanamine, 2-chloro-N,N-dimethyl-",499.15,1.0,CN(C)CCCN1c2ccccc2Sc2ccc(Cl)cc21,le15
11236,"2-Pyridinepropanamine, gamma-(4-bromophenyl)-N,N-dimethyl-",470.65,1.0,CN(C)CCC(c1ccc(Br)cc1)c1ccccn1,le15
11237,1-bromoheptadecane,418.55,1.0,CCCCCCCCCCCCCCCCCBr,le15
11238,"2(5H)-Furanone, 5,5'-oxybis(3,4-dichloro-",498.55,1.0,O=C1OC(OC2OC(=O)C(Cl)=C2Cl)C(Cl)=C1Cl,le15
11239,"Ethane, 1,1-dichloro-2-(o-chlorophenyl)-2-(p-chlorophenyl)- (8CI)",467.35,1.0,Clc1ccc(C(c2ccccc2Cl)C(Cl)Cl)cc1,le15
11240,"L-Valine, N-((2,4-dichlorophenoxy)acetyl)- (9CI)",553.75,1.0,CC(C)[C@H](NC(=O)COc1ccc(Cl)cc1Cl)C(=O)O,le15
11241,"Phosphorothioic acid, O-cyclohexyl O-methyl S-(4-chlorophenyl) ester",471.75,1.0,COP(=O)(OC1CCCCC1)Sc1ccc(Cl)cc1,le15
11242,"2,3,5-tribromothiophene",387.65,1.0,Brc1cc(Br)c(Br)s1,le15
11243,"Acetic acid, (2,4-dichlorophenoxy)-, 2-butoxyethyl ester (8CI,9CI)",426.05,1.0,CCCCOCCOC(=O)COc1ccc(Cl)cc1Cl,le15
11244,"Phosphorothioic acid, O,O-dimethyl O-(2,4,5-trichlorophenyl) ester",435.45,1.0,COP(=S)(OC)Oc1cc(Cl)c(Cl)cc1Cl,le15
11245,"Dibenzo(b,e)(1,4)dioxin, 2,3,7,8-tetrachloro-",437.35,1.0,Clc1cc2c(cc1Cl)Oc1cc(Cl)c(Cl)cc1O2,le15
11246,"Glycine, N,N'-(2-hydroxy-1,3-propanediyl)bis(N-(carboxymethyl)-",628.75,1.0,O=C(O)CN(CC(=O)O)CC(O)CN(CC(=O)O)CC(=O)O,le15
11247,"2-Butenoic acid, 3-methyl-, 2-(1-methylpropyl)-4,6-dinitrophenyl ester",444.85,1.0,CCC(C)c1cc([N+](=O)[O-])cc([N+](=O)[O-])c1OC(=O)C=C(C)C,le15
11248,"Phosphoric acid, bis(2-ethylhexyl) ester",464.85,1.0,CCCCC(CC)COP(=O)([O-])OCC(CC)CCCC,le15
11249,heptadecylcyclohexane,461.25,1.0,CCCCCCCCCCCCCCCCCC1CCCCC1,le15
11250,"9-Tricosene, (9Z)-",482.05,1.0,CCCCCCCC/C=C\CCCCCCCCCCCCC,le15
11251,"2,5-bis(trichloromethyl)-1,3-dioxolan-4-one",395.05,1.0,O=C1OC(C(Cl)(Cl)Cl)OC1C(Cl)(Cl)Cl,le15
11252,"Phosphonothioic acid, phenyl-, O-ethyl O-(4-nitrophenyl) ester",489.75,1.0,CCOP(=S)(Oc1ccc([N+](=O)[O-])cc1)c1ccccc1,le15
11253,"Dibenzo(b,f)(1,4)thiazepine, 2-methyl-11-(4-methyl-1-piperazinyl)-",513.3499999999998,1.0,Cc1ccc2c(c1)C(N1CCN(C)CC1)=Nc1ccccc1S2,le15
11254,"1H-Benzimidazole, 4,5,6,7-tetrachloro-2-(trifluoromethyl)-",468.55,1.0,FC(F)(F)c1nc2c(Cl)c(Cl)c(Cl)c(Cl)c2[nH]1,le15
11255,"Benzene, 1,2,4-trichloro-5-((4-chlorophenyl)thio)-",459.05,1.0,Clc1ccc(Sc2cc(Cl)c(Cl)cc2Cl)cc1,le15
11256,"Butane, 1,1-bis(p-chlorophenyl)-2-nitro-",495.85,1.0,CCC(C(c1ccc(Cl)cc1)c1ccc(Cl)cc1)[N+](=O)[O-],le15
11257,"1,3-Propanediamine, N,N-dimethyl-N'-(1-nitro-9-acridinyl)- (9CI)",542.65,1.0,CN(C)CCCNc1c2ccccc2nc2cccc([N+](=O)[O-])c12,le15
11258,"Cinchonan-9-ol, 6'-methoxy-, (9S)-",526.8499999999998,1.0,C=C[C@H]1CN2CC[C@H]1C[C@@H]2[C@@H](O)c1ccnc2ccc(OC)cc12,le15
11259,tricosane,495.95,1.0,CCCCCCCCCCCCCCCCCCCCCCC,le15
11260,"2,2,2-tribromoethyl acetate",402.85,1.0,CC(=O)OCC(Br)(Br)Br,le15
11261,"1-Propanol, 3-bromo-2,2-bis(bromomethyl)- (8CI)(9CI)",426.95,1.0,OCC(CBr)(CBr)CBr,le15
11262,"Phosphorothioic acid, O-(3-chloro-4-nitrophenyl) O,O-diethyl ester",464.65,1.0,CCOP(=S)(OCC)Oc1ccc([N+](=O)[O-])c(Cl)c1,le15
11263,"2H-1,2,4-Benzothiadiazine-7-sulfonamide, 6-chloro-3-ethyl-3,4-dihydro-",567.75,1.0,CCC1NSc2cc(S(N)(=O)=O)c(Cl)cc2N1,le15
11264,"Anthraquinone, 1,4-bis((2-hydroxyethyl)amino)- (6CI,7CI,8CI)",623.55,1.0,O=C1c2ccccc2C(=O)c2c(NCCO)ccc(NCCO)c21,le15
11265,"2-(4-Methoxyphenyl)-4,5-diphenyl-1H-imidazole",461.95,1.0,COc1ccc(-c2nc(-c3ccccc3)c(-c3ccccc3)[nH]2)cc1,le15
11266,"1-Butanone, 1-(4-fluorophenyl)-4-(4-phenyl-1-piperazinyl)- (9CI)",517.95,1.0,O=C(CCCN1CCN(c2ccccc2)CC1)c1ccc(F)cc1,le15
11267,"Methanone, (2-hydroxy-4-(octyloxy)phenyl)phenyl-",428.25,1.0,CCCCCCCCOc1ccc(C(=O)c2ccccc2)c(O)c1,le15
11268,"10H-Phenothiazine, 10-(3-(4-morpholinyl)propyl)-",521.25,1.0,c1ccc2c(c1)Sc1ccccc1N2CCCN1CCOCC1,le15