,compound,flashpoint,pure substance,smiles,source
10267,"Phenol, 2,6-di-tert-butyl-4-ethyl- (8CI)",378.15,1.0,CCc1cc(C(C)(C)C)c(O)c(C(C)(C)C)c1,le15
10268,"Phosphine sulfide, tributyl-",409.65,1.0,CCCCP(=S)(CCCC)CCCC,le15
10269,"7,14-Methano-2H,6H-dipyrido(1,2-a:1',2'-e)(1,5)diazocine, dodecahydro-",421.45,1.0,C1CCN2CC3CC(CN4CCCCC34)C2C1,le15
10270,"Silane, pentyltriethoxy-",351.04999999999984,1.0,CCCCC[Si](OCC)(OCC)OCC,le15
10271,"Propanoic acid, 2-(2,4-dichlorophenoxy)-",437.65,1.0,CC(Oc1ccc(Cl)cc1Cl)C(=O)O,le15
10272,"Acetic acid, (2,4-dichlorophenoxy)-, methyl ester",397.25,1.0,COC(=O)COc1ccc(Cl)cc1Cl,le15
10273,"Adenosine, 2',3'-dideoxy-",553.05,1.0,Nc1ncnc2c1ncn2[C@H]1CC[C@@H](CO)O1,le15
10274,"1,4-Oxathiin-3-carboxamide, 5,6-dihydro-2-methyl-N-phenyl-",481.35,1.0,CC1=C(C(=O)Nc2ccccc2)SCCO1,le15
10275,"Carbamic acid, methyl-, 3,5-diisopropylphenyl ester",406.95,1.0,CNC(=O)Oc1cc(C(C)C)cc(C(C)C)c1,le15
10276,"Benzamide, 4-amino-N-(2-(diethylamino)ethyl)- (9CI)",482.05,1.0,CCN(CC)CCNC(=O)c1ccc(N)cc1,le15
10277,"1,3,5-trichloro-2,4,6-trifluorobenzene",375.35,1.0,Fc1c(Cl)c(F)c(Cl)c(F)c1Cl,le15
10278,"Butylamine, 4-(triethoxysilyl)-",378.25,1.0,CCO[Si](CCCCN)(OCC)OCC,le15
10279,"Benzenesulfonyl chloride, 2-methyl-5-nitro- (9CI)",450.25,1.0,Cc1ccc([N+](=O)[O-])cc1S(=O)(=O)Cl,le15
10280,"Benzene, 1,4-dibromo-",362.45,1.0,Brc1ccc(Br)cc1,le15
10281,"Benzene, o-dibromo- (8CI)",368.65,1.0,Brc1ccccc1Br,le15
10282,2-Fluoro-4-bromo-6-nitrophenol,372.95,1.0,O=[N+]([O-])c1cc(Br)cc(F)c1O,le15
10283,"Benzoic acid, 2,5-dichloro-3-nitro-",448.65,1.0,O=C(O)c1cc(Cl)cc([N+](=O)[O-])c1Cl,le15
10284,"1,1,1,3,3,3-hexafluoro-2-(trifluoromethyl)propan-2-ol",278.25,1.0,OC(C(F)(F)F)(C(F)(F)F)C(F)(F)F,le15
10285,"1,2,3,4,5-pentafluoro-6-(trifluoromethyl)benzene",293.15,1.0,Fc1c(F)c(F)c(C(F)(F)F)c(F)c1F,le15
10286,"9,10-Anthracenedione, 2-ethyl-",428.55,1.0,CCc1ccc2c(c1)C(=O)c1ccccc1C2=O,le15
10287,"5H-Dibenz(b,f)azepine-5-carboxamide",475.55,1.0,NC(=O)N1c2ccccc2C=Cc2ccccc21,le15
10288,"Propane, 1,2-dibromo-3-chloro-",350.15,1.0,ClCC(Br)CBr,le15
10289,"Benzoic acid, 4-amino-, 2-(diethylamino)ethyl ester",452.95,1.0,CCN(CC)CCOC(=O)c1ccc(N)cc1,le15
10290,"Silane, trimethoxy(3-(oxiranylmethoxy)propyl)-",355.04999999999984,1.0,CO[Si](CCCOCC1CO1)(OC)OC,le15
10291,"1,1,3-trimethyl-3-phenyl-2H-indene",429.65,1.0,CC1(C)CC(C)(c2ccccc2)c2ccccc21,le15
10292,"Benzenemethanol, 3,5-bis(1,1-dimethylethyl)-4-hydroxy-",404.35,1.0,CC(C)(C)c1cc(CO)cc(C(C)(C)C)c1O,le15
10293,Di(morpholin-4-yl) disulphide,427.15,1.0,C1CN(SSN2CCOCC2)CCO1,le15
10294,5-cyclohexylpentylcyclohexane,412.35,1.0,C1CCC(CCCCCC2CCCCC2)CC1,le15
10295,"Trisiloxane, 1,1,1,3,3,5,5,5-octamethyl-",302.15,1.0,C[Si](C)(C)O[Si](C)(C)O[Si](C)(C)C,le15
10296,"Ethane, hexachloro-",334.45,1.0,ClC(Cl)(Cl)C(Cl)(Cl)Cl,le15
10297,"Urea, 3-(p-chlorophenyl)-1-methyl-1-(1-methyl-2-propynyl)-",465.75,1.0,C#CC(C)N(C)C(=O)Nc1ccc(Cl)cc1,le15
10298,"3,5-dibromopyridine",357.45,1.0,Brc1cncc(Br)c1,le15
10299,"Benzene, 1,5-dichloro-2,4-dinitro-",431.15,1.0,O=[N+]([O-])c1cc([N+](=O)[O-])c(Cl)cc1Cl,le15
10300,"Benzene, 1,2-dichloro-4,5-dinitro-",440.05,1.0,O=[N+]([O-])c1cc(Cl)c(Cl)cc1[N+](=O)[O-],le15
10301,"Dibenzofuran, 2,8-dichloro- (8CI)(9CI)",442.45,1.0,Clc1ccc2oc3ccc(Cl)cc3c2c1,le15
10302,"Benzene, 1,1'-methylenebis(4-chloro-",412.95,1.0,Clc1ccc(Cc2ccc(Cl)cc2)cc1,le15
10303,"9,10-Anthracenedione, 1-amino-2-methyl-",517.95,1.0,Cc1ccc2c(c1N)C(=O)c1ccccc1C2=O,le15
10304,"Acetamide, N-(9-oxo-9H-fluoren-2-yl)- (9CI)",490.15,1.0,CC(=O)Nc1ccc2c(c1)C(=O)c1ccccc1-2,le15
10305,"Benzoic acid, 4-(acetylamino)-2-ethoxy-, methyl ester",484.65,1.0,CCOc1cc(NC(C)=O)ccc1C(=O)OC,le15
10306,"Carbamic acid, methyl-, o-(4-methyl-1,3-dioxolan-2-yl)phenyl ester",424.75,1.0,CNC(=O)Oc1ccccc1C1OCC(C)O1,le15
10307,"5H-Dibenzo(a,d)cycloheptene-5-carboxamide, 10,11-dihydro-",492.35,1.0,NC(=O)C1c2ccccc2CCc2ccccc21,le15
10308,"Propane, 1,2,2-trichloropentafluoro-",277.54999999999995,1.0,FC(F)(F)C(Cl)(Cl)C(F)(F)Cl,le15
10309,"1,1,1-trichloro-2,2,3,3,3-pentafluoropropane",276.15,1.0,FC(F)(F)C(F)(F)C(Cl)(Cl)Cl,le15
10310,"4,5-Isoxazoledione, 3-methyl-, 4-((o-chlorophenyl)hydrazone)",421.55,1.0,CC1=NOC(=O)C1=NNc1ccccc1Cl,le15
10311,"1,1,1,2,2,3,3,4,4,4-decafluorobutane",277.35,1.0,FC(F)(F)C(F)(F)C(F)(F)C(F)(F)F,le15
10312,"9,10-Anthracenedione, 1,5-diamino-",560.75,1.0,Nc1cccc2c1C(=O)c1cccc(N)c1C2=O,le15
10313,"9,10-Anthracenedione, 2,6-diamino-",560.75,1.0,Nc1ccc2c(c1)C(=O)c1ccc(N)cc1C2=O,le15
10314,"9,10-Anthracenedione, 1,4-diamino-",556.05,1.0,Nc1ccc(N)c2c1C(=O)c1ccccc1C2=O,le15
10315,"9,10-Anthracenedione, 1,2-diamino-",558.8499999999998,1.0,Nc1ccc2c(c1N)C(=O)c1ccccc1C2=O,le15
10316,"2-Propenoic acid, 3-phenyl-, phenylmethyl ester",498.85,1.0,O=C(C=Cc1ccccc1)OCc1ccccc1,le15
10317,"2-Propen-1-one, 1-(4-methoxyphenyl)-3-phenyl-",453.65,1.0,COc1ccc(C(=O)C=Cc2ccccc2)cc1,le15
10318,"2-Propen-1-ol, 3-phenyl-, benzoate",449.25,1.0,O=C(OCC=Cc1ccccc1)c1ccccc1,le15
10319,2butoxyethylsalicylate,430.35,1.0,CCCCOCCOc1ccccc1C(=O)[O-],le15
10320,"7H-Pyrrolo(2,3-d)pyrimidin-4-amine, 2-methyl-N-(phenylmethyl)-",458.45,1.0,Cc1nc(NCc2ccccc2)c2cc[nH]c2n1,le15
10321,"1,5-diphenylpentan-3-one",426.85,1.0,O=C(CCc1ccccc1)CCc1ccccc1,le15
10322,"Ergoline, 8,9-didehydro-6,8-dimethyl-",482.45,1.0,CC1=C[C@@H]2c3cccc4[nH]cc(c34)C[C@H]2N(C)C1,le15
10323,"(2,3-dimethyl-3-phenylbutan-2-yl)benzene",415.85,1.0,CC(C)(c1ccccc1)C(C)(C)c1ccccc1,le15
10324,1-chloro-3-iodobenzene,374.85,1.0,Clc1cccc(I)c1,le15
10325,"Benzene, 1-chloro-4-iodo-",381.15,1.0,Clc1ccc(I)cc1,le15
10326,1-chloro-2-iodobenzene,384.85,1.0,Clc1ccccc1I,le15
10327,3-Methylcyclopentadecan-1-one,418.45,1.0,CC1CCCCCCCCCCCCC(=O)C1,le15
10328,"11-Hexadecenal, (11Z)-",334.25,1.0,CCCC/C=C\CCCCCCCCCC=O,le15
10329,dodecylcyclopentane,408.95,1.0,CCCCCCCCCCCCC1CCCC1,le15
10330,"Octane, 1-((3-chloropropyl)sulfinyl)- (9CI)",450.25,1.0,CCCCCCCCS(=O)CCCCl,le15
10331,"Benzoyl chloride, m-(chlorosulfonyl)- (7CI,8CI)",434.95,1.0,O=C(Cl)c1cccc(S(=O)(=O)Cl)c1,le15
10332,Sebacoyl chloride (8CI),424.55,1.0,O=C(Cl)CCCCCCCCC(=O)Cl,le15
10333,"1,4-Benzenedicarboxylic acid, 2-nitro-, dimethyl ester",433.35,1.0,COC(=O)c1ccc(C(=O)OC)c([N+](=O)[O-])c1,le15
10334,"9,10-Anthracenedione, 1-amino-4-hydroxy-",535.8499999999998,1.0,Nc1ccc(O)c2c1C(=O)c1ccccc1C2=O,le15
10335,"Hydrocinnamic acid, alpha-amino-3-carboxy-4-methoxy-, DL-",508.65,1.0,COc1ccc(CC(N)C(=O)O)cc1C(=O)O,le15
10336,"Acetamide, N-9H-fluoren-2-yl-N-hydroxy- (9CI)",502.15,1.0,CC(=O)N(O)c1ccc2c(c1)Cc1ccccc1-2,le15
10337,"Acetamide, N-(7-hydroxyfluoren-2-yl)- (8CI)",553.05,1.0,CC(=O)Nc1ccc2c(c1)Cc1cc(O)ccc1-2,le15
10338,"Acetamide, N-(5-hydroxy-9H-fluoren-2-yl)-",553.05,1.0,CC(=O)Nc1ccc2c(c1)Cc1cccc(O)c1-2,le15
10339,"Acetamide, N-(3-hydroxy-9H-fluoren-2-yl)- (9CI)",523.55,1.0,CC(=O)Nc1cc2c(cc1O)-c1ccccc1C2,le15
10340,"Acetamide, N-(1-hydroxy-9H-fluoren-2-yl)- (9CI)",513.45,1.0,CC(=O)Nc1ccc2c(c1O)Cc1ccccc1-2,le15
10341,"Carbamic acid, methyl-, o-(1,3-oxathiolan-2-yl)phenyl ester",449.25,1.0,CNC(=O)Oc1ccccc1C1OCCS1,le15
10342,"Benzeneacetamide, N,N-dimethyl-alpha-phenyl- (9CI)",446.45,1.0,CN(C)C(=O)C(c1ccccc1)c1ccccc1,le15
10343,"Benzenamine, N,N,3-trimethyl-4-(phenylazo)- (9CI)",463.35,1.0,Cc1cc(N(C)C)ccc1N=Nc1ccccc1,le15
10344,"Guanidine, N,N'-bis(2-methylphenyl)-",466.45,1.0,Cc1ccccc1NC(=N)Nc1ccccc1C,le15
10345,"Benzenamine, N,N-dimethyl-4-((2-methylphenyl)azo)- (9CI)",463.35,1.0,Cc1ccccc1N=Nc1ccc(N(C)C)cc1,le15
10346,"1,3,5-Triazine-2,4-diamine, N,N-diethyl-6-methoxy-N'-(1-methylethyl)-",449.25,1.0,CCN(CC)c1nc(NC(C)C)nc(OC)n1,le15
10347,"Acetic acid, (2,3,6-trichlorophenyl)-",440.75,1.0,O=C(O)Cc1c(Cl)ccc(Cl)c1Cl,le15
10348,"Silane, trichloro(2-phenylethyl)-",390.95,1.0,Cl[Si](Cl)(Cl)CCc1ccccc1,le15
10349,"Disulfide, isopropyl 1,2,2-trichloroethyl",368.15,1.0,CC(C)SSC(Cl)C(Cl)Cl,le15
10350,"3-Isoxazolidinone, 2-((2-chlorophenyl)methyl)-4,4-dimethyl-",419.05,1.0,CC1(C)CON(Cc2ccccc2Cl)C1=O,le15
10351,"Acetic acid, dichloro-, anhydride",363.75,1.0,O=C(OC(=O)C(Cl)Cl)C(Cl)Cl,le15
10352,"1,3-Dioxolane, 4-chloromethyl-2-(trichloromethyl)-",380.15,1.0,ClCC1COC(C(Cl)(Cl)Cl)O1,le15
10353,1-iodooctane,368.15,1.0,CCCCCCCCI,le15
10354,"Ethanol, 2,2'-(1,2-ethanediylbis(oxy))bis-, dinitrate",420.05,1.0,O=[N+]([O-])O.O=[N+]([O-])O.OCCOCCOCCO,le15
10355,"9,10-Anthracenedione, 1,2-dihydroxy-",501.15,1.0,O=C1c2ccccc2C(=O)c2c1ccc(O)c2O,le15
10356,"9,10-Anthracenedione, 1,4-dihydroxy-",495.15,1.0,O=C1c2ccccc2C(=O)c2c(O)ccc(O)c21,le15
10357,"9,10-Anthracenedione, 2,6-dihydroxy-",508.45,1.0,O=C1c2ccc(O)cc2C(=O)c2ccc(O)cc21,le15
10358,"9,10-Anthracenedione, 1,8-dihydroxy-",514.8499999999998,1.0,O=C1c2cccc(O)c2C(=O)c2c(O)cccc21,le15
10359,"9,10-Anthracenedione, 1,5-dihydroxy-",514.8499999999998,1.0,O=C1c2cccc(O)c2C(=O)c2cccc(O)c21,le15
10360,"9,10-Anthracenedione, 1,3-dihydroxy- (9CI)",552.15,1.0,O=C1c2ccccc2C(=O)c2c(O)cc(O)cc21,le15
10361,"Phenol, 2-(1,1-dimethylethyl)-4,6-dinitro- (9CI)",398.15,1.0,CC(C)(C)c1cc([N+](=O)[O-])cc([N+](=O)[O-])c1O,le15
10362,"Phenol, 4-(1,1-dimethylethyl)-2,6-dinitro-",382.45,1.0,CC(C)(C)c1cc([N+](=O)[O-])c(O)c([N+](=O)[O-])c1,le15
10363,"Benzoic acid, o-benzoyl-, methyl ester (8CI)",427.55,1.0,COC(=O)c1ccccc1C(=O)c1ccccc1,le15
10364,"Benzoic acid, 6-benzoyl-3-methyl- (9CI)",517.55,1.0,Cc1ccc(C(=O)c2ccccc2)c(C(=O)O)c1,le15
10365,"Anthraquinone, 1,4-diamino-2,3-dihydro- (8CI)",453.85,1.0,NC1=C2C(=O)c3ccccc3C(=O)C2=C(N)CC1,le15
10366,"Benzenamine, 4-(2-(4-nitrophenyl)ethenyl)-",477.85,1.0,Nc1ccc(C=Cc2ccc([N+](=O)[O-])cc2)cc1,le15
10367,"Phosphoric acid, diethyl 1-methyl-2-(methylthio)ethenyl ester (9CI)",389.55,1.0,CCOP(=O)(OCC)OC(C)=CSC,le15
10368,4H-Cyclopenta(def)chrysene,502.65,1.0,c1ccc2c(c1)cc1c3c2ccc2cccc(c23)C1,le15
10369,"Benzeneacetic acid, 2-phenylethyl ester",418.95,1.0,O=C(Cc1ccccc1)OCCc1ccccc1,le15
10370,"Propane, 1,2-epoxy-3-((alpha-phenyl-o-tolyl)oxy)- (7CI,8CI)",418.05,1.0,c1ccc(Cc2ccccc2OCC2CO2)cc1,le15
10371,"Propane, 1,2-epoxy-3-((alpha-phenyl-p-tolyl)oxy)- (7CI,8CI)",424.55,1.0,c1ccc(Cc2ccc(OCC3CO3)cc2)cc1,le15
10372,"1,3-dimethyl-1,3-diphenylurea",415.75,1.0,CN(C(=O)N(C)c1ccccc1)c1ccccc1,le15
10373,"Acetic acid, phenyl-, 2-benzylhydrazide",416.75,1.0,O=C(Cc1ccccc1)NNCc1ccccc1,le15
10374,"diethyl 2,2-bis(prop-2-enyl)propanedioate",379.878,1.0,C=CCC(CC=C)(C(=O)OCC)C(=O)OCC,le15
10375,"Toluene-2,4-diamine, 5-(o-tolylazo)- (8CI)",510.75,1.0,Cc1cc(N=Nc2ccccc2C)c(N)cc1N,le15
10376,"Benzenamine, 4-(6-methyl-2-benzothiazolyl)-",490.45,1.0,Cc1ccc2nc(-c3ccc(N)cc3)sc2c1,le15
10377,"2-Pyridinepropanamine, N,N-dimethyl-gamma-phenyl- (9CI)",437.65,1.0,CN(C)CCC(c1ccccc1)c1ccccn1,le15
10378,"(1,1'-Biphenyl)-4,4'-diamine, N4,N4,N4',N4'-tetramethyl-",446.55,1.0,CN(C)c1ccc(-c2ccc(N(C)C)cc2)cc1,le15
10379,"Ergoline, 6,8beta-dimethyl- (8CI)",473.35,1.0,C[C@@H]1C[C@@H]2c3cccc4[nH]cc(c34)C[C@H]2N(C)C1,le15
10380,"10-Undecenoic acid, butyl ester",401.15,1.0,C=CCCCCCCCCC(=O)OCCCC,le15
10381,"Urea, 1,3-dicyclohexyl-2-thio-",435.75,1.0,S=C(NC1CCCCC1)NC1CCCCC1,le15
10382,"4,5-Dichloro-2,3-dihydro-2-phenylpyridazin-3-one",441.45,1.0,O=c1c(Cl)c(Cl)cnn1-c1ccccc1,le15
10383,"Phenol, 2,4-dichloro-, methanesulfonate",441.95,1.0,CS(=O)(=O)Oc1ccc(Cl)cc1Cl,le15
10384,"Benzoic acid, 2-((phenylamino)carbonyl)-",443.85,1.0,O=C(O)c1ccccc1C(=O)Nc1ccccc1,le15
10385,"Benzoic acid, (4-(hydroxyimino)-2,5-cyclohexadien-1-ylidene)hydrazide",451.05,1.0,O=C(NN=C1C=CC(=NO)C=C1)c1ccccc1,le15
10386,"1,2-Propanediol, 3-(2-methoxyphenoxy)-, 1-carbamate",512.75,1.0,COc1ccccc1OCC(O)COC(N)=O,le15
10387,9-Benzyladenine 1-oxide,537.65,1.0,Nc1c2ncn(Cc3ccccc3)c2nc[n+]1[O-],le15
10388,"Benzoic acid, 2-((2,3-dimethylphenyl)amino)-",468.15,1.0,Cc1cccc(Nc2ccccc2C(=O)O)c1C,le15
10389,"Benzoic acid, 2-amino-, 2-phenylethyl ester",509.25,1.0,Nc1ccccc1C(=O)OCCc1ccccc1,le15
10390,"ethyl N,N-diphenylcarbamate",444.65,1.0,CCOC(=O)N(c1ccccc1)c1ccccc1,le15
10391,"Carbamic acid, methyl-, 4-(methylsulfinyl)-3,5-xylyl ester",468.25,1.0,CNC(=O)Oc1cc(C)c(S(C)=O)c(C)c1,le15
10392,"2-Pyridinecarboxylic acid, 4-amino-3,5,6-trichloro-",481.25,1.0,Nc1c(Cl)c(Cl)nc(C(=O)O)c1Cl,le15
10393,"2,4-Imidazolidinedione, 3-bromo-1-chloro-5,5-dimethyl-",367.65,1.0,CC1(C)C(=O)N(Br)C(=O)N1Cl,le15
10394,"Ethanol, 2-(2,4,5-trichlorophenoxy)-",434.65,1.0,OCCOc1cc(Cl)c(Cl)cc1Cl,le15
10395,"1-Hexanamine, 2-ethyl-N-(2-ethylhexyl)-",401.15,1.0,CCCCC(CC)CNCC(CC)CCCC,le15
10396,1-Hexadecanamine,413.15,1.0,CCCCCCCCCCCCCCCCN,le15
10397,"Phosphoramidic acid, diethyl-, 2-chloroethenyl ethyl ester",382.15,1.0,CCOP(=O)(OC=CCl)N(CC)CC,le15
10398,"1,2-dibromo-1,1,2-trifluoroethane",274.15,1.0,FC(Br)C(F)(F)Br,le15
10399,"Phenol, 4-bromo-2,5-dichloro-",391.35,1.0,Oc1cc(Cl)c(Br)cc1Cl,le15
10400,"Phenol, 4-bromo-2,6-dichloro- (8CI)(9CI)",376.05,1.0,Oc1c(Cl)cc(Br)cc1Cl,le15
10401,"2,3-dibromothiophene",324.85,1.0,Brc1ccsc1Br,le15
10402,"3,4-dibromothiophene",363.55,1.0,Brc1cscc1Br,le15
10403,"2,5-dibromothiophene",372.55,1.0,Brc1ccc(Br)s1,le15
10404,"2-Propenoic acid, 2-cyano-3-(2,4-dichlorophenyl)- (9CI)",474.15,1.0,N#CC(=Cc1ccc(Cl)cc1Cl)C(=O)O,le15
10405,"ethyl 2,2,3,3,4,4,4-heptafluorobutanoate",287.5499999999999,1.0,CCOC(=O)C(F)(F)C(F)(F)C(F)(F)F,le15
10406,2-Bromo-2-methyl-N-phenylpropanamide,442.45,1.0,CC(C)(Br)C(=O)Nc1ccccc1,le15
10407,"Maleic anhydride, dihydroxy-, dipropionate",424.65,1.0,CCC(=O)O.CCC(=O)O.O=C1OC(=O)C(O)=C1O,le15
10408,"1,4,9,10-Tetrahydroxyanthracene",595.8499999999998,1.0,Oc1ccc(O)c2c(O)c3ccccc3c(O)c12,le15
10409,"Peroxide, dibenzoyl",427.389,1.0,O=C(OOC(=O)c1ccccc1)c1ccccc1,le15
10410,"Benzimidazole, 5-tert-butyl-2-(trifluoromethyl)-",413.85,1.0,CC(C)(C)c1ccc2nc(C(F)(F)F)[nH]c2c1,le15
10411,"1,4-Naphthalenedione, 2-hydroxy-3-(3-methyl-2-butenyl)- (9CI)",482.15,1.0,CC(C)=CCC1=C(O)C(=O)c2ccccc2C1=O,le15
10412,"3-Pyridinecarboxylic acid, 2-((2,6-dimethylphenyl)amino)- (9CI)",465.25,1.0,Cc1cccc(C)c1Nc1ncccc1C(=O)O,le15
10413,"Benz(a)anthracene, 6-methyl-",490.95,1.0,Cc1cc2ccccc2c2cc3ccccc3cc12,le15
10414,"Benz(a)anthracene, 4-methyl-",490.95,1.0,Cc1cccc2c1ccc1cc3ccccc3cc12,le15
10415,"Chrysene, 6-methyl-",490.95,1.0,Cc1cc2c3ccccc3ccc2c2ccccc12,le15
10416,"Benz(a)anthracene, 5-methyl-",490.95,1.0,Cc1cc2cc3ccccc3cc2c2ccccc12,le15
10417,"Benz(a)anthracene, 10-methyl-",490.95,1.0,Cc1ccc2cc3ccc4ccccc4c3cc2c1,le15
10418,"Benz(a)anthracene, 8-methyl-",490.95,1.0,Cc1cccc2cc3c(ccc4ccccc43)cc12,le15
10419,"Benz(a)anthracene, 12-methyl-",490.95,1.0,Cc1c2ccccc2cc2ccc3ccccc3c12,le15
10420,"Benz(a)anthracene, 3-methyl-",490.95,1.0,Cc1ccc2c(ccc3cc4ccccc4cc32)c1,le15
10421,"Benz(a)anthracene, 1-methyl-",490.95,1.0,Cc1cccc2ccc3cc4ccccc4cc3c12,le15
10422,"Chrysene, 1-methyl-",490.95,1.0,Cc1cccc2c1ccc1c3ccccc3ccc21,le15
10423,"Benz(a)anthracene, 9-methyl-",490.95,1.0,Cc1ccc2cc3c(ccc4ccccc43)cc2c1,le15
10424,"Benz(a)anthracene, 2-methyl-",490.95,1.0,Cc1ccc2ccc3cc4ccccc4cc3c2c1,le15
10425,heptanoyl heptanoate,403.05,1.0,CCCCCCC(=O)OC(=O)CCCCCC,le15
10426,pentadecanoic acid,422.75,1.0,CCCCCCCCCCCCCCC(=O)O,le15
10427,heptyl octanoate,403.15,1.0,CCCCCCCOC(=O)CCCCCCC,le15
10428,1-octoxyoctane,386.65,1.0,CCCCCCCCOCCCCCCCC,le15
10429,"Heptane, 3,3'-(oxybis(methylene))bis-",380.65,1.0,CCCCC(CC)COCC(CC)CCCC,le15
10430,Hexadecan-2-ol,384.45,1.0,CCCCCCCCCCCCCCC(C)O,le15
10431,"9,10-Anthracenedione, 2-chloro-",452.85,1.0,O=C1c2ccccc2C(=O)c2cc(Cl)ccc21,le15
10432,"9,10-Anthracenedione, 1-chloro-",452.85,1.0,O=C1c2ccccc2C(=O)c2c(Cl)cccc21,le15
10433,dibromo(dichloro)methane,309.35,1.0,ClC(Cl)(Br)Br,le15
10434,"Acetic acid, (4-chlorophenoxy)-, 2-(1-methylethyl)hydrazide (9CI)",430.45,1.0,CC(C)NNC(=O)COc1ccc(Cl)cc1,le15
10435,"1,3-Dioxolo(4,5-g)furo(2,3-b)quinoline, 9-methoxy-",474.15,1.0,COc1c2cc3c(cc2nc2occc12)OCO3,le15
10436,"2(1H)-Pyrimidinone, 4-amino-1-beta-D-arabinofuranosyl-",556.95,1.0,Nc1ccn([C@@H]2O[C@H](CO)[C@@H](O)[C@@H]2O)c(=O)n1,le15
10437,Chrysen-6-ylamine,560.05,1.0,Nc1cc2c3ccccc3ccc2c2ccccc12,le15
10438,"Benz(c)acridine, 7-methyl-",478.65,1.0,Cc1c2ccccc2nc2c1ccc1ccccc12,le15
10439,"Dodecanamide, N-(2-hydroxyethyl)-",475.35,1.0,CCCCCCCCCCCC(=O)NCCO,le15
10440,"3(2H)-Benzothiazoleacetic acid, 4-chloro-2-oxo-",510.25,1.0,O=C(O)Cn1c(=O)sc2cccc(Cl)c21,le15
10441,"Hexane, 1,2-dibromo-",356.35,1.0,CCCCC(Br)CBr,le15
10442,"Hexane, 1,6-dibromo-",383.95,1.0,BrCCCCCCBr,le15
10443,"1,1,1,3,3,3-hexafluoro-2-phenylpropan-2-ol",333.15,1.0,OC(c1ccccc1)(C(F)(F)F)C(F)(F)F,le15
10444,"Xanthen-9-one, 1,3,7-trihydroxy-",497.85,1.0,O=c1c2cc(O)ccc2oc2cc(O)cc(O)c12,le15
10445,"1,1'-Biphenyl, 4,4'-dinitro-",481.95,1.0,O=[N+]([O-])c1ccc(-c2ccc([N+](=O)[O-])cc2)cc1,le15
10446,1-nitro-2-(2-nitrophenyl)benzene,461.05,1.0,O=[N+]([O-])c1ccccc1-c1ccccc1[N+](=O)[O-],le15
10447,"s-Triazin-2(1H)-one, 4-amino-1-beta-D-ribofuranosyl- (8CI)",550.15,1.0,Nc1ncn([C@@H]2O[C@H](CO)[C@@H](O)[C@H]2O)c(=O)n1,le15
10448,"1,2,4-Triazin-3(2H)-one, 5-amino-2-beta-D-ribofuranosyl-",550.15,1.0,Nc1cnn([C@@H]2O[C@H](CO)[C@@H](O)[C@H]2O)c(=O)n1,le15
10449,"dimethyl naphthalene-2,6-dicarboxylate",462.35,1.0,COC(=O)c1ccc2cc(C(=O)OC)ccc2c1,le15
10450,"Methanone, (2-hydroxy-4-methoxyphenyl)(2-hydroxyphenyl)-",419.15,1.0,COc1ccc(C(=O)c2ccccc2O)c(O)c1,le15
10451,"Benz(3,4)anthra(1,2-b)oxirene, 1a,11b-dihydro- (9CI)",485.55,1.0,c1ccc2c(c1)-c1cc3ccccc3cc1C1OC21,le15
10452,"2-Propanol, 1,3-diphenoxy-",466.95,1.0,OC(COc1ccccc1)COc1ccccc1,le15
10453,"2H-1-Benzopyran-2-one, 7-methoxy-8-(3-methyl-2-butenyl)- (9CI)",440.75,1.0,COc1ccc2ccc(=O)oc2c1CC=C(C)C,le15
10454,"Aziridine, 1,1'-(1,3-phenylenedicarbonyl)bis(2-methyl-",484.05,1.0,CC1CN1C(=O)c1cccc(C(=O)N2CC2C)c1,le15
10455,"Phosphorothioic acid, O,O-diethyl S-(ethylthio)methyl ester",399.15,1.0,CCOP(=O)(OCC)SCSCC,le15
10456,"Methane, triphenyl- (8CI)",433.45,1.0,c1ccc(C(c2ccccc2)c2ccccc2)cc1,le15
10457,"3-Cyclohexene-1-carboxylic acid, 5-ethyl-6-methyl-4-phenyl-",456.45,1.0,CCC1C(c2ccccc2)=CCC(C(=O)O)C1C,le15
10458,diethyl 2-hexylpropanedioate,395.85,1.0,CCCCCCC(C(=O)OCC)C(=O)OCC,le15
10459,"Phosphorotrithioic acid, O-methyl S,S-dipropyl ester",411.05,1.0,CCCSP(=S)(OC)SCCC,le15
10460,"Urea, 1,1,3-tributyl-2-thio- (8CI)",416.55,1.0,CCCCNC(=S)N(CCCC)CCCC,le15
10461,"Urea, 1-dodecyl-2-thio-",434.75,1.0,CCCCCCCCCCCCNC(N)=S,le15
10462,"2,3-Phenazinediamine, 7-chloro-",544.45,1.0,Nc1cc2nc3ccc(Cl)cc3nc2cc1N,le15
10463,"Benzenesulfonic acid, 4-((methoxycarbonyl)amino)-, hydrazide (9CI)",549.3499999999998,1.0,COC(=O)Nc1ccc(S(=O)(=O)NN)cc1,le15
10464,"Benzenamine, N,N-diphenyl-",430.45,1.0,c1ccc(N(c2ccccc2)c2ccccc2)cc1,le15
10465,"Pyridine, 2-((2-(dimethylamino)ethyl)furfurylamino)- (8CI)",447.35,1.0,CN(C)CCN(Cc1ccco1)c1ccccn1,le15
10466,"2,5-Cyclohexadiene-1,4-dione, 2,3,5,6-tetrachloro-",384.85,1.0,O=C1C(Cl)=C(Cl)C(=O)C(Cl)=C1Cl,le15
10467,"ethyl 2,2-dibromoacetate",342.65,1.0,CCOC(=O)C(Br)Br,le15
10468,"methyl 2,3-dibromopropanoate",344.25,1.0,COC(=O)C(Br)CBr,le15
10469,"Benzene, 1,2,3,4-tetrachloro-5-methoxy-",390.75,1.0,COc1cc(Cl)c(Cl)c(Cl)c1Cl,le15
10470,"Pentanoic acid, 2,2,3,3,4,4,5,5-octafluoro-",323.0499999999999,1.0,O=C(O)C(F)(F)C(F)(F)C(F)(F)C(F)F,le15
10471,"2H-Furo(2,3-h)-1-benzopyran-2-one, 5,6-dimethoxy-",493.65,1.0,COc1c(OC)c2occc2c2oc(=O)ccc12,le15
10472,"Benzophenone, 2,2',4,4'-tetrahydroxy-",562.3499999999998,1.0,O=C(c1ccc(O)cc1O)c1ccc(O)cc1O,le15
10473,"7H-Furo(3,2-g)(1)benzopyran-7-one, 4,9-dimethoxy- (8CI)(9CI)",498.25,1.0,COc1c2ccoc2c(OC)c2oc(=O)ccc12,le15
10474,"1,2-Benzenedicarboxylic acid, di-2-propenyl ester",439.15,1.0,C=CCOC(=O)c1ccccc1C(=O)OCC=C,le15
10475,"2,4,6(1H,3H,5H)-Pyrimidinetrione, 5-ethyl-1-methyl-5-phenyl-",466.35,1.0,CCC1(c2ccccc2)C(=O)NC(=O)N(C)C1=O,le15
10476,"Tryptophan, N-acetyl-, L-",581.75,1.0,CC(=O)N[C@@H](Cc1c[nH]c2ccccc12)C(=O)O,le15
10477,"Aniline, p-((p-nitrophenyl)thio)- (6CI,7CI,8CI)",516.65,1.0,Nc1ccc(Sc2ccc([N+](=O)[O-])cc2)cc1,le15
10478,"Phosphorothioic acid, S-(2-(ethylsulfinyl)ethyl) O,O-dimethyl ester",455.35,1.0,CCS(=O)CCSP(=O)(OC)OC,le15
10479,"6H-Pyrido(4,3-b)carbazole, 5,11-dimethyl-",500.25,1.0,Cc1c2ccncc2c(C)c2c1[nH]c1ccccc12,le15
10480,"1,4-Butanediol, dimethanesulfonate",507.55,1.0,CS(=O)(=O)OCCCCOS(C)(=O)=O,le15
10481,1-methyl-4-(4-methylphenyl)sulfonylbenzene,506.15,1.0,Cc1ccc(S(=O)(=O)c2ccc(C)cc2)cc1,le15