,compound,flashpoint,pure substance,smiles,source
14852,3methylbenzaldehyde,351.15,1.0,Cc1cccc(C=O)c1,le15
14853,4methylbenzaldehyde,353.15,1.0,Cc1ccc(C=O)cc1,le15
14854,Acetophenone,350.15,1.0,CC(=O)c1ccccc1,le15
14855,"1,8nonadiyne",314.0,1.0,C#CCCCCCC#C,le15
14856,1ethyl2methylBenzene,312.15,1.0,CCc1ccccc1C,le15
14857,1ethyl3methylBenzene,311.15,1.0,CCc1cccc(C)c1,le15
14858,1ethyl4methylBenzene,309.15,1.0,CCc1ccc(C)cc1,le15
14859,1methylethylBenzene,304.15,1.0,CC(C)c1ccccc1,le15
14860,Cumene,309.15,1.0,CC(C)c1ccccc1,le15
14861,Mesitylene,317.0,1.0,Cc1cc(C)cc(C)c1,le15
14862,Propylbenzene,320.15,1.0,CCCc1ccccc1,le15
14863,DimethylDimethoxySilane-,265.15,1.0,CO[Si](C)(C)OC,le15
14864,1chlorohexane,308.15,1.0,CCCCCCCl,le15
14865,DimethylVinylChloroSilane-,268.15,1.0,CC(C)=C[SiH2]Cl,le15
14866,"2,3dimethylaniline",370.15,1.0,Cc1cccc(N)c1C,le15
14867,2ethylbenzenamine,364.15,1.0,CCc1ccccc1N,le15
14868,BenzoicAcid,394.15,1.0,O=C(O)c1ccccc1,le15
14869,Salicylaldehyde,350.95,1.0,O=Cc1ccccc1O,le15
14870,"2,3dimethylphenol",368.0,1.0,Cc1cccc(O)c1C,le15
14871,"2,4dimethylphenol",367.0,1.0,Cc1ccc(O)c(C)c1,le15
14872,"2,5dimethylphenol",368.0,1.0,Cc1ccc(C)c(O)c1,le15
14873,"2,6dimethylphenol",346.0,1.0,Cc1cccc(C)c1O,le15
14874,2phenylethanol,375.15,1.0,OCCc1ccccc1,le15
14875,4ethylphenol,377.05,1.0,CCc1ccc(O)cc1,le15
14876,EthoxyBenzene,325.15,1.0,CCOc1ccccc1,le15
14877,Phenetole,335.95,1.0,CCOc1ccccc1,le15
14878,PhenylMethylSilane,298.15,1.0,[SiH3]Cc1ccccc1,le15
14879,2chloroethylacetate,339.25,1.0,CC(=O)OCCCl,le15
14880,ChloromethylTrimethylSilane-,271.15,1.0,C[Si](C)(C)CCl,le15
14881,EthylDimethylChloroSilane-,269.15,1.0,CC[Si](C)(C)Cl,le15
14882,1bromopropane,298.15,1.0,CCCBr,le15
14883,Nitrobenzene,360.95,1.0,O=[N+]([O-])c1ccccc1,le15
14884,MethylthioBenzene,342.15,1.0,CSc1ccccc1,le15
14885,Phenylmethanethiol,343.15,1.0,SCc1ccccc1,le15
14886,"1,8nonadiene",299.0,1.0,C=CCCCCCC=C,le15
14887,1nonyne,306.15,1.0,C#CCCCCCCC,le15
14888,TrivinylMethylSilane,288.15,1.0,C=CC([SiH3])(C=C)C=C,le15
14889,"1,3dichloro2butene",300.15,1.0,CC(Cl)=CCCl,le15
14890,"1,4dichloro2butene",326.15,1.0,ClCC=CCCl,le15
14891,"3,4dichloro1butene",301.15,1.0,C=CC(Cl)CCl,le15
14892,CyclohexylIsocyanate,322.0499999999999,1.0,O=C=NC1CCCCC1,le15
14893,2ethyl2hexenal,341.15,1.0,CCCC=C(C=O)CC,le15
14894,7methyl1octene,291.15,1.0,C=CCCCCC(C)C,le15
14895,1chloro2methylBenzene,324.15,1.0,Cc1ccccc1Cl,le15
14896,1chloro4methylBenzene,325.15,1.0,Cc1ccc(Cl)cc1,le15
14897,2chlorotoluene,316.0,1.0,Cc1ccccc1Cl,le15
14898,Benzylchloride,340.15,1.0,ClCc1ccccc1,le15
14899,ChloromethylBenzene,333.15,1.0,ClCc1ccccc1,le15
14900,"1,2dichlorobutane",299.0,1.0,CCC(Cl)CCl,le15
14901,"1,4dichlorobutane",313.0,1.0,ClCCCCCl,le15
14902,2chlorobenzenamine,364.15,1.0,Nc1ccccc1Cl,le15
14903,Butylacrylate,312.0,1.0,C=CC(=O)OCCCC,le15
14904,1octanal,325.15,1.0,CCCCCCCC=O,le15
14905,2ethylhexanal,317.15,1.0,CCCCC(C=O)CC,le15
14906,2octanone,335.15,1.0,CCCCCCC(C)=O,le15
14907,4octanone,318.15,1.0,CCCCC(=O)CCC,le15
14908,6methyl3heptanone,318.15,1.0,CCC(=O)CCC(C)C,le15
14909,PropargyloxytrimethylSilane,300.15,1.0,C#CCO[Si](C)(C)C,le15
14910,"2,2dimethyl3ethylpentane",286.15,1.0,CCC(CC)C(C)(C)C,le15
14911,"2,3dimethylheptane",363.0,1.0,CCCCC(C)C(C)C,le15
14912,"2,4dimethyl3ethylpentane",288.15,1.0,CCC(C(C)C)C(C)C,le15
14913,3ethyl4methylhexane,297.15,1.0,CCC(C)C(CC)CC,le15
14914,3ethylheptane,295.15,1.0,CCCCC(CC)CC,le15
14915,Nonane,304.15,1.0,CCCCCCCCC,le15
14916,VinylDiethylMethylSilane,288.15,1.0,C=C[Si](C)(CC)CC,le15
14917,"1,3dichloro2propanol",358.15,1.0,OC(CCl)CCl,le15
14918,"2,3dichloro1propanol",366.45,1.0,OCC(Cl)CCl,le15
14919,Dimethyldichlorosilane-,263.15,1.0,C[Si](C)(Cl)Cl,le15
14920,Ethyldichlorosilane-,264.15,1.0,CC[SiH](Cl)Cl,le15
14921,Quinoline,365.15,1.0,c1ccc2ncccc2c1,le15
14922,1piperazineEthanamine,366.15,1.0,NCCN1CCNCC1,le15
14923,Dibutylamine,313.15,1.0,CCCCNCCCC,le15
14924,Diisobutylamine,302.15,1.0,CC(C)CNCC(C)C,le15
14925,Ethylacetoacetate,330.35,1.0,CCOC(=O)CC(C)=O,le15
14926,"1,3diethenylBenzene",338.15,1.0,C=Cc1cccc(C=C)c1,le15
14927,1methyl1Hindene,338.15,1.0,CC1C=Cc2ccccc21,le15
14928,2methyl1Hindene,344.15,1.0,CC1=Cc2ccccc2C1,le15
14929,3methylbutylAcetate,298.15,1.0,CC(=O)OCCC(C)C,le15
14930,Butylpropionate,305.15,1.0,CCCCOC(=O)CC,le15
14931,Heptanoicacid,385.15,1.0,CCCCCCC(=O)O,le15
14932,Isopentylacetate,298.15,1.0,CC(=O)OCCC(C)C,le15
14933,PentylAcetate,297.0499999999999,1.0,CCCCCOC(C)=O,le15
14934,Propylbutyrate,310.15,1.0,CCCOC(=O)CCC,le15
14935,1octanol,354.15,1.0,CCCCCCCCO,le15
14936,2ethyl1hexanol,346.15,1.0,CCCCC(CC)CO,le15
14937,2octanol,360.95,1.0,CCCCCCC(C)O,le15
14938,Dibutylether,298.15,1.0,CCCCOCCCC,le15
14939,"1,1dimethyl1sila2oxacyclohexane",287.15,1.0,C[Si]1(C)CCCCO1,le15
14940,AllyloxytrimethylSilane,273.15,1.0,C=CCO[Si](C)(C)C,le15
14941,VinylDimethylEthoxySilane,277.15,1.0,C=C[Si](C)(C)OCC,le15
14942,TrimethylSilylIsothiocyanate,308.15,1.0,C[Si](C)(C)N=C=S,le15
14943,2methylbenzofuran,340.15,1.0,Cc1cc2ccccc2o1,le15
14944,2ethoxyethylacetate,320.35,1.0,CCOCCOC(C)=O,le15
14945,1ethenyl2ethylBenzene,331.15,1.0,C=Cc1ccccc1CC,le15
14946,1ethenyl3ethylBenzene,333.15,1.0,C=Cc1cccc(CC)c1,le15
14947,1ethenyl4ethylBenzene,334.15,1.0,C=Cc1ccc(CC)cc1,le15
14948,Tetralin,344.15,1.0,c1ccc2c(c1)CCCC2,le15
14949,AcetoxyTrimethylSilane,277.15,1.0,CC(=O)O[Si](C)(C)C,le15
14950,MethylVinylDimethoxySilane,277.15,1.0,CC=C[SiH](OC)OC,le15
14951,1heptanethiol,314.15,1.0,CCCCCCCS,le15
14952,BisDimethylaminoMethylSilane-,270.15,1.0,CN(C)C([SiH3])N(C)C,le15
14953,"1,2diethylBenzene",330.15,1.0,CCc1ccccc1CC,le15
14954,"1,3diethylBenzene",329.15,1.0,CCc1cccc(CC)c1,le15
14955,"1,4diethylbenzene",329.0,1.0,CCc1ccc(CC)cc1,le15
14956,1methyl2propylBenzene,326.15,1.0,CCCc1ccccc1C,le15
14957,1methyl3propylBenzene,325.15,1.0,CCCc1cccc(C)c1,le15
14958,1methylpropylBenzene,325.15,1.0,CCC(C)c1ccccc1,le15
14959,2methylpropylBenzene,325.15,1.0,CC(C)Cc1ccccc1,le15
14960,Isobutylbenzene,328.15,1.0,CC(C)Cc1ccccc1,le15
14961,secButylbenzene,325.15,1.0,CCC(C)c1ccccc1,le15
14962,tertbutylbenzene,317.0,1.0,CC(C)(C)c1ccccc1,le15
14963,AllylDimethylChloroSilane,278.15,1.0,C=CC[Si](C)(C)Cl,le15
14964,Acetanilide,446.15,1.0,CC(=O)Nc1ccccc1,le15
14965,PhenylIsothiocyanate,360.95,1.0,S=C=Nc1ccccc1,le15
14966,TrichloroSilane-,245.15,1.0,Cl[SiH](Cl)Cl,le15
14967,Methylbenzoate,356.15,1.0,COC(=O)c1ccccc1,le15
14968,PhenylAcetate,353.15,1.0,O=C([O-])Cc1ccccc1,le15
14969,EthoxymethylBenzene,332.15,1.0,CCOCc1ccccc1,le15
14970,PhenylDimethylSilane,311.15,1.0,C[SiH](C)c1ccccc1,le15
14971,TetravinylSilane,291.15,1.0,C=C[Si](C=C)(C=C)C=C,le15
14972,"1,5pentanedithiol",368.0,1.0,SCCCCCS,le15
14973,DiethylMethylChloroSilane,288.15,1.0,CC[Si](C)(Cl)CC,le15
14974,1bromobutane,297.0499999999999,1.0,CCCCBr,le15
14975,2phenoxyethanol,394.25,1.0,OCCOc1ccccc1,le15
14976,"1,9decadiene",316.15,1.0,C=CCCCCCCC=C,le15
14977,cisDecalin,331.15,1.0,C1CC[C@H]2CCCC[C@H]2C1,le15
14978,CyclopentadienylTrimethylSilane,302.15,1.0,C[Si](C)(C)C1C=CC=C1,le15
14979,Furfurylacetate,358.15,1.0,O=C([O-])CCc1ccco1,le15
14980,2decene,320.15,1.0,CC=CCCCCCCC,le15
14981,8methyl1nonene,316.15,1.0,C=CCCCCCC(C)C,le15
14982,"2,4pentadienylTrimethylSilane",291.15,1.0,C=CC=CC[Si](C)(C)C,le15
14983,3trimethylsilylCyclopentene,299.15,1.0,C[Si](C)(C)C1C=CCC1,le15
14984,Benzoylchloride,345.15,1.0,O=C(Cl)c1ccccc1,le15
14985,1chloro4ethylbenzene,337.15,1.0,CCc1ccc(Cl)cc1,le15
14986,"1,5dichloropentane",299.0,1.0,ClCCCCCCl,le15
14987,Vinylmethyldichlorosilane,277.15,1.0,C=CC[SiH](Cl)Cl,le15
14988,2oxolan2yloxolane,362.15,1.0,C1COC(C2CCCO2)C1,le15
14989,CyclohexylAcetate,331.15,1.0,O=C([O-])CC1CCCCC1,le15
14990,"2,6dimethyl4heptanone",322.15,1.0,CC(C)CC(=O)CC(C)C,le15
14991,2nonanone,333.15,1.0,CCCCCCCC(C)=O,le15
14992,3ethylheptanal,328.15,1.0,CCCCC(CC)CC=O,le15
14993,3nonanone,339.15,1.0,CCCCCCC(=O)CC,le15
14994,4nonanone,335.15,1.0,CCCCCC(=O)CCC,le15
14995,Decane,321.15,1.0,CCCCCCCCCC,le15
14996,CyclohexylDimethylSilane,336.15,1.0,C[SiH](C)C1CCCCC1,le15
14997,VinylTriethylSilane,302.15,1.0,C=C[Si](CC)(CC)CC,le15
14998,1propanesulfonylchloride,353.15,1.0,CCCS(=O)(=O)Cl,le15
14999,Ethylmethyldichlorosilane,275.15,1.0,CC[Si](C)(Cl)Cl,le15
15000,1nonanamine,335.15,1.0,CCCCCCCCCN,le15
15001,TripropylAmine,302.15,1.0,CCCN(CCC)CCC,le15
15002,2naphthol,426.15,1.0,Oc1ccc2ccccc2c1,le15
15003,Hexylacetate,318.15,1.0,CCCCCCOC(C)=O,le15
15004,IsobutylButyrate,323.15,1.0,CCCC(=O)OCC(C)C,le15
15005,Isobutylisobutyrate,313.0,1.0,CC(C)COC(=O)C(C)C,le15
15006,OctanoicAcid,254.15,1.0,CCCCCCCC(=O)O,le15
15007,1nonanol,348.15,1.0,CCCCCCCCCO,le15
15008,"2,6dimethyl4heptanol",339.15,1.0,CC(C)CC(O)CC(C)C,le15
15009,2nonanol,355.15,1.0,CCCCCCCC(C)O,le15
15010,3ethyl1heptanol,363.15,1.0,CCCCC(CC)CCO,le15
15011,4methyl1octanol,358.15,1.0,CCCCC(C)CCCO,le15
15012,6methyl1octanol,360.15,1.0,CCC(C)CCCCCO,le15
15013,Carbostyril ,473.75,1.0,O=c1ccc2ccccc2[nH]1,le15
15014,DiethylaminoTrimethylSilane,283.15,1.0,CCN(CC)[Si](C)(C)C,le15
15015,TrifluoromethylBenzene,285.15,1.0,FC(F)(F)c1ccccc1,le15
15016,AdipicAcid,469.15,1.0,O=C(O)CCCCC(=O)O,le15
15017,Ethylacetylglycolate,355.15,1.0,CCCC(=O)C(O)C(=O)[O-],le15
15018,Triethylenetetramine,408.15,1.0,NCCNCCNCCN,le15
15019,AcetoxymethylTrimethylSilane,293.15,1.0,CC(=O)OC[Si](C)(C)C,le15
15020,1octanethiol,341.15,1.0,CCCCCCCCS,le15
15021,Dibutylsulfide,349.85,1.0,CCCCSCCCC,le15
15022,Ditertbutylsulfide,321.15,1.0,CC(C)(C)SC(C)(C)C,le15
15023,BisDiethylaminoDimethylSilane,308.15,1.0,CCN(CC)[Si](C)(C)N(CC)CC,le15
15024,BisDimethylaminoDimethylSilane-,266.15,1.0,CN(C)[Si](C)(C)N(C)C,le15
15025,HexamethylDisilane-,272.15,1.0,C[Si](C)(C)[Si](C)(C)C,le15
15026,"1,2dichlorobenzene",340.0,1.0,Clc1ccccc1Cl,le15
15027,"1,3dichloroBenzene",345.15,1.0,Clc1cccc(Cl)c1,le15
15028,"1,4dichlorobenzene",339.15,1.0,Clc1ccc(Cl)cc1,le15
15029,Dichloroacetylchloride,339.25,1.0,O=C(Cl)C(Cl)Cl,le15
15030,TrichloroAcetaldehyde,323.15,1.0,O=CC(Cl)(Cl)Cl,le15
15031,Triethylorthoformate,303.15,1.0,CCOC(OCC)OCC,le15
15032,VinylTrimethoxySilane,296.15,1.0,C=C[Si](OC)(OC)OC,le15
15033,"1,2dimethyl3propylBenzene",345.15,1.0,CCCc1cccc(C)c1C,le15
15034,Pentylbenzene,338.15,1.0,CCCCCc1ccccc1,le15
15035,DimethylDiethoxySilane,284.15,1.0,CCO[Si](C)(C)OCC,le15
15036,1chlorooctane,343.15,1.0,CCCCCCCCCl,le15
15037,AllylChloromethylDimethylSilane,300.15,1.0,C=CC[Si](C)(C)CCl,le15
15038,Methyltrichlorosilane,276.15,1.0,C[Si](Cl)(Cl)Cl,le15
15039,Benzylacetate,363.75,1.0,O=C([O-])CCc1ccccc1,le15
15040,Ethylbenzoate,361.15,1.0,CCOC(=O)c1ccccc1,le15
15041,PhenylmethylAcetate,363.15,1.0,CC(=O)OCc1ccccc1,le15
15042,DipropylSulfone,399.15,1.0,CCCS(=O)(=O)CCC,le15
15043,EthylTrimethoxySilane,300.15,1.0,CC[Si](OC)(OC)OC,le15
15044,BenzylDimethylSilane,338.15,1.0,C[SiH](C)Cc1ccccc1,le15
15045,TrimethylPhenylSilane,313.15,1.0,C[Si](C)(C)c1ccccc1,le15
15046,TriethylChloroSilane,303.15,1.0,CC[Si](Cl)(CC)CC,le15
15047,1bromopentane,304.15,1.0,CCCCCBr,le15
15048,Methylsalicylate,369.15,1.0,COc1ccccc1C(=O)[O-],le15
15049,TetramethoxySilane,294.15,1.0,CO[Si](OC)(OC)OC,le15
15050,ChloromethylDimethylEthoxySilane,299.15,1.0,CCO[Si](C)(C)CCl,le15
15051,TrimethylBromoSilane-,270.15,1.0,C[Si](C)(C)Br,le15
15052,4chlorophenylisocyanate,383.15,1.0,O=C=Nc1ccc(Cl)cc1,le15
15053,DiethylPhosphate,364.15,1.0,CCOP(=O)([O-])OCC,le15
15054,1undecene,327.15,1.0,C=CCCCCCCCCC,le15
15055,PhenacylChloride,391.15,1.0,O=C(CCl)c1ccccc1,le15
15056,AllylMethylDichloroSilane,300.15,1.0,C=CCC[SiH](Cl)Cl,le15
15057,CyclopentenyloxyTrimethylSilane,311.15,1.0,C[Si](C)(C)OC1=CCCC1,le15
15058,Undecane,333.15,1.0,CCCCCCCCCCC,le15
15059,Trimethoxychlorosilane,295.15,1.0,CO[Si](Cl)(OC)OC,le15
15060,PhenylMethylChloroSilane,335.15,1.0,Cl[SiH2]Cc1ccccc1,le15
15061,Bromobenzene,324.15,1.0,Brc1ccccc1,le15
15062,BischloromethylDimethylSilane,319.15,1.0,C[Si](C)(CCl)CCl,le15
15063,DiethylDichloroSilane,300.15,1.0,CC[Si](Cl)(Cl)CC,le15
15064,Decylamine,372.15,1.0,CCCCCCCCCCN,le15
15065,Dipentylamine,324.15,1.0,CCCCCNCCCCC,le15
15066,ButylIsovalerate,326.15,1.0,CCCCOC(=O)CC(C)C,le15
15067,HeptylAcetate,340.15,1.0,CCCCCCCOC(C)=O,le15
15068,Isopentylbutyrate,332.15,1.0,CCCC(=O)OCCC(C)C,le15
15069,1decanol,355.15,1.0,CCCCCCCCCCO,le15
15070,TriisopropylSilane,310.15,1.0,CC(C)[SiH](C(C)C)C(C)C,le15
15071,ChloromethylDimethylchlorosilane,294.15,1.0,C[Si](C)(Cl)CCl,le15
15072,2butoxyethylacetate,344.15,1.0,CCCCOCCOC(C)=O,le15
15073,CyclohexylBenzene,372.15,1.0,c1ccc(C2CCCCC2)cc1,le15
15074,Dibutoxymethane,333.15,1.0,CCCCOCOCCCC,le15
15075,Ethyl2trimethylsilylAcetate,308.15,1.0,CCOC(=O)C[Si](C)(C)C,le15
15076,VinylMethylDiethoxySilane,289.15,1.0,C=CC[SiH](OCC)OCC,le15
15077,1nonanethiol,351.15,1.0,CCCCCCCCCS,le15
15078,BisTrimethylsilylMethane,285.15,1.0,C[Si](C)(C)C[Si](C)(C)C,le15
15079,DichloromethylBenzene,353.15,1.0,ClC(Cl)c1ccccc1,le15
15080,TrisdimethylaminoSilane,298.15,1.0,CN(C)[SiH](N(C)C)N(C)C,le15
15081,HexamethylDisilazane,281.15,1.0,C[Si](C)(C)N[Si](C)(C)C,le15
15082,Vinyltrichlorosilane,288.65,1.0,C=C[Si](Cl)(Cl)Cl,le15
15083,PhenylTrifluoroSilane-,283.15,1.0,F[Si](F)(F)c1ccccc1,le15
15084,AllylTrimethoxySilane,319.15,1.0,C=CC[Si](OC)(OC)OC,le15
15085,"1,3diisopropylbenzene",349.0,1.0,CC(C)c1cccc(C(C)C)c1,le15
15086,"1,4diisopropylbenzene",349.0,1.0,CC(C)c1ccc(C(C)C)cc1,le15
15087,1phenylhexane,356.15,1.0,CCCCCCc1ccccc1,le15
15088,1tertButyl4ethylBenzene,343.15,1.0,CCc1ccc(C(C)(C)C)cc1,le15
15089,Hexylbenzene,353.15,1.0,CCCCCCc1ccccc1,le15
15090,1methoxy2propoxyTrimethylSilane,293.15,1.0,COCC(C)O[Si](C)(C)C,le15
15091,Octanoylchloride,355.15,1.0,CCCCCCCC(=O)Cl,le15
15092,2chloromethyl3trimethylsilyl1propene,316.15,1.0,C=C(CCl)C[Si](C)(C)C,le15
15093,"2,4dichlorophenol",387.05,1.0,Oc1ccc(Cl)cc1Cl,le15
15094,Chloromethylmethyldichlorosilane,293.15,1.0,C[Si](Cl)(Cl)CCl,le15
15095,Ethyltrichlorosilane,300.15,1.0,CC[Si](Cl)(Cl)Cl,le15
15096,Isopropylbenzoate,372.05,1.0,CC(C)OC(=O)c1ccccc1,le15
15097,4tertButyl2methylphenol,390.95,1.0,Cc1cc(C(C)(C)C)ccc1O,le15
15098,TriethoxySilane,299.15,1.0,CCO[SiH](OCC)OCC,le15
15099,BenzylTrimethylSilane,335.15,1.0,C[Si](C)(C)Cc1ccccc1,le15
15100,1bromohexane,330.35,1.0,CCCCCCBr,le15
15101,"1,1bicyclohexyl",347.15,1.0,C1CCC(C2CCCCC2)CC1,le15
15102,Ethylbromoacetate,320.95,1.0,CCOC(=O)CBr,le15
15103,BromomethylTrimethylSilane,289.15,1.0,C[Si](C)(C)CBr,le15
15104,2cyanoethylMethylDichloroSilane,333.15,1.0,C[Si](Cl)(Cl)CCC#N,le15
15105,2dodecene,351.15,1.0,CC=CCCCCCCCCC,le15
15106,1heptynylTrimethylSilane,315.15,1.0,CCCCCC#C[Si](C)(C)C,le15
15107,CyclopentylDichloroSilane,316.15,1.0,Cl[SiH](Cl)C1CCCC1,le15
15108,Diphenylamine,425.95,1.0,c1ccc(Nc2ccccc2)cc1,le15
15109,2phenylphenol,397.05,1.0,Oc1ccccc1-c1ccccc1,le15
15110,Diphenylether,388.15,1.0,c1ccc(Oc2ccccc2)cc1,le15
15111,HexylTrifluoroSilane-,266.15,1.0,CCCCCC[Si](F)(F)F,le15
15112,Dodecane,344.15,1.0,CCCCCCCCCCCC,le15
15113,ChloromethylTrimethoxySilane,299.15,1.0,CO[Si](CCl)(OC)OC,le15
15114,PhenylDimethylChloroSilane,334.15,1.0,C[Si](C)(Cl)c1ccccc1,le15
15115,1bromo4methylBenzene,358.15,1.0,Cc1ccc(Br)cc1,le15
15116,3chloropropylDimethylChloroSilane,313.15,1.0,C[Si](C)(Cl)CCCCl,le15
15117,2ethylhexylacetate,344.15,1.0,CCCCC(CC)COC(C)=O,le15
15118,OctylAcetate,359.15,1.0,CCCCCCCCOC(C)=O,le15
15119,MethacryloxymethylTrimethylSilane,318.15,1.0,C=C(C)C(=O)OC[Si](C)(C)C,le15
15120,"2,5dimethoxychlorobenzene",390.35,1.0,COc1ccc(OC)c(Cl)c1,le15
15121,DiisopropylaminoTrimethylSilane,301.15,1.0,CC(C)N(C(C)C)[Si](C)(C)C,le15
15122,TriethylAcetoxySilane,314.15,1.0,CCC(CC)(CC)C(=O)O[SiH3],le15
15123,1dodecanethiol,360.95,1.0,CCCCCCCCCCCCS,le15
15124,VinylPentamethylDisiloxane,285.15,1.0,C=C[Si](C)(C)O[Si](C)(C)C,le15
15125,HeptamethylDisilazane,300.15,1.0,CN([Si](C)(C)C)[Si](C)(C)C,le15
15126,AllylTrichloroSilane,304.15,1.0,C=CC[Si](Cl)(Cl)Cl,le15
15127,DimethylDiacetoxySilane,310.15,1.0,CC(=O)O[Si](C)(C)OC(C)=O,le15
15128,DiethylDiethoxySilane,316.15,1.0,CCO[Si](CC)(CC)OCC,le15
15129,PhenylDichloroSilane,321.15,1.0,Cl[SiH](Cl)c1ccccc1,le15
15130,bisChloromethylMethylChloroSilane,315.15,1.0,C[Si](Cl)(CCl)CCl,le15
15131,Anthracene,394.15,1.0,c1ccc2cc3ccccc3cc2c1,le15
15132,Dibutylsulfone,416.15,1.0,CCCCS(=O)(=O)CCCC,le15
15133,IsobutylTrimethoxySilane,315.15,1.0,CO[Si](CC(C)C)(OC)OC,le15
15134,MethylTriethoxySilane,297.15,1.0,CCO[Si](C)(OCC)OCC,le15
15135,Dibutyldisulfide,366.45,1.0,CCCCSSCCCC,le15
15136,HexamethylDisilaThiane,299.15,1.0,C[Si](C)(C)S[Si](C)(C)C,le15
15137,1bromoheptane,333.75,1.0,CCCCCCCBr,le15
15138,1bromovinylTrimethylSilane,288.15,1.0,C=C(Br)[Si](C)(C)C,le15
15139,2bromovinylTrimethylSilane,288.15,1.0,C[Si](C)(C)C=CBr,le15
15140,3chloropropylMethylDimethoxySilane,318.15,1.0,CO[Si](C)(CCCCl)OC,le15
15141,ChloromethylMethylDiethoxySilane,311.15,1.0,CCO[Si](C)(CCl)OCC,le15
15142,1iodobutane,306.15,1.0,CCCCI,le15
15143,2iodobutane,301.15,1.0,CCC(C)I,le15
15144,2ethylhexylacrylate,359.0,1.0,C=CC(=O)OCC(CC)CCCC,le15
15145,DiphenylSilane,371.15,1.0,c1ccc([SiH2]c2ccccc2)cc1,le15
15146,Tridecane,352.15,1.0,CCCCCCCCCCCCC,le15
15147,BenzylDimethylChloroSilane,346.15,1.0,C[Si](C)(Cl)Cc1ccccc1,le15
15148,ChloromethylDimethylPhenylSilane,326.15,1.0,C[Si](C)(CCl)c1ccccc1,le15
15149,HexylDichloroSilane,337.15,1.0,CCCCCC[SiH](Cl)Cl,le15
15150,"1,3divinylTetramethylDisilazane",307.15,1.0,C=C[Si](C)(C)N[Si](C)(C)C=C,le15
15151,HexafluoroBenzene,283.15,1.0,Fc1c(F)c(F)c(F)c(F)c1F,le15
15152,TrimethylsilylTrifluoroacetate,273.15,1.0,C[Si](C)(C)OC(=O)C(F)(F)F,le15
15153,NonylAcetate,372.15,1.0,CCCCCCCCCOC(C)=O,le15
15154,2butyl1octanol,383.15,1.0,CCCCCCC(CO)CCCC,le15
15155,Dihexylether,350.15,1.0,CCCCCCOCCCCCC,le15
15156,TetramethylDivinylDisiloxane,292.15,1.0,C=C[Si](C)(C=C)O[Si](C)(C)C,le15
15157,BistrimethylsilylCarbodiimide,315.15,1.0,C[Si](C)(C)N=C=N[Si](C)(C)C,le15
15158,Bromomethyldimethylchlorosilane,314.15,1.0,C[Si](C)(Cl)CBr,le15
15159,CyclohexylMethylDimethoxySilane,339.15,1.0,CO[SiH](CC1CCCCC1)OC,le15
15160,VinylTriethoxySilane,312.15,1.0,C=C[Si](OCC)(OCC)OCC,le15
15161,1phenyloctane,380.15,1.0,CCCCCCCCc1ccccc1,le15
15162,PhenylMethylDichloroSilane,355.15,1.0,Cl[SiH](Cl)Cc1ccccc1,le15
15163,3bromo1trimethylsilyl1propyne,335.15,1.0,C[Si](C)(C)C#CCBr,le15
15164,3chloropropylMethylDichloroSilane,359.15,1.0,C[Si](Cl)(Cl)CCCCl,le15
15165,IsobutylTrichloroSilane,310.15,1.0,CC(C)C[Si](Cl)(Cl)Cl,le15
15166,EthylTriethoxySilane,313.15,1.0,CCO[Si](CC)(OCC)OCC,le15
15167,1bromooctane,351.45,1.0,CCCCCCCCBr,le15
15168,PhenylDimethylAcetoxySilane,345.15,1.0,CC(C)C(=O)O[SiH2]c1ccccc1,le15
15169,trichloromethylBenzene,354.15,1.0,ClC(Cl)(Cl)c1ccccc1,le15
15170,TetraisocyanatoSilane,323.15,1.0,O=C=N[Si](N=C=O)(N=C=O)N=C=O,le15
15171,2isopropylbiphenyl,413.75,1.0,CC(C)c1ccccc1-c1ccccc1,le15
15172,CyclohexylMethylDichloroSilane,339.15,1.0,Cl[SiH](Cl)CC1CCCCC1,le15
15173,1chloroethyltrichlorosilane,288.15,1.0,CC(Cl)[Si](Cl)(Cl)Cl,le15
15174,2chloroethyltrichlorosilane,301.15,1.0,ClCC[Si](Cl)(Cl)Cl,le15
15175,DichloromethylMethylDichloroSilane,301.15,1.0,C[Si](Cl)(Cl)C(Cl)Cl,le15
15176,Dibenzylether,408.15,1.0,c1ccc(COCc2ccccc2)cc1,le15
15177,PhenylTrimethoxySilane,359.15,1.0,CO[Si](OC)(OC)c1ccccc1,le15
15178,Tetradecane,373.15,1.0,CCCCCCCCCCCCCC,le15
15179,3chloropropylTrimethoxySilane,351.15,1.0,CO[Si](CCCCl)(OC)OC,le15
15180,TriethoxyChloroSilane,320.15,1.0,CCO[Si](Cl)(OCC)OCC,le15
15181,PhenethylDimethylChloroSilane,343.15,1.0,C[Si](C)(Cl)CCc1ccccc1,le15
15182,2nitrobiphenyl,452.15,1.0,O=[N+]([O-])c1ccccc1-c1ccccc1,le15
15183,"1,3dichloroTetramethylDisiloxane",288.15,1.0,C[Si](C)(Cl)O[Si](C)(C)Cl,le15
15184,CyclopentylTrichloroSilane,350.15,1.0,Cl[Si](Cl)(Cl)C1CCCC1,le15
15185,Iodobenzene,347.15,1.0,Ic1ccccc1,le15
15186,Tryptophan ,497.85,1.0,N[C@@H](Cc1c[nH]c2ccccc12)C(=O)O,le15
15187,AllylTriethoxySilane,320.15,1.0,C=CC[Si](OCC)(OCC)OCC,le15
15188,Nonylbenzene,372.15,1.0,CCCCCCCCCc1ccccc1,le15
15189,PhenylEthylDichloroSilane,365.15,1.0,Cl[SiH](Cl)CCc1ccccc1,le15
15190,3chloro2methylpropylMethylDichloroSilane,363.15,1.0,CC(CCl)C[Si](C)(Cl)Cl,le15
15191,secAmylTrichloroSilane,303.15,1.0,CCCC(C)[Si](Cl)(Cl)Cl,le15