,compound,flashpoint,pure substance,smiles,source
1159,1-Piperidinecarboxaldehyde,364.15,1,O=CN1CCCCC1,le15
1160,3-methylpiperidin-2-one,411.75,1,CC1CCCNC1=O,le15
1161,"1,5-dimethylpyrrolidin-2-one",362.55,1,CC1CCC(=O)N1C,le15
1162,"2,4-dimethyl-1,3-thiazole",315.15,1,Cc1csc(C)n1,le15
1163,"Thiazole, 4,5-dimethyl-",324.25,1,Cc1ncsc1C,le15
1164,"Piperidine, 2,6-dimethyl-",284.15,1,CC1CCCC(C)N1,le15
1165,"2,6-dimethylpiperidine",284.85,1,CC1CCCC(C)N1,le15
1166,"Azocine, octahydro-",302.55,1,C1CCCNCCC1,le15
1167,"3,3-dimethylpiperidine",305.35,1,CC1(C)CCCNC1,le15
1168,cyclohexylmethanamine,316.45,1,NCC1CCCCC1,le15
1169,4-ethylpiperidine,306.95,1,CCC1CCNCC1,le15
1170,"3,5-dimethylpiperidine",305.15,1,CC1CNCC(C)C1,le15
1171,"Cyclohexanamine, N-methyl-",302.55,1,CNC1CCCCC1,le15
1172,1ethylpiperidine,291.0,1,CCN1CCCCC1,le15
1173,Cyclohexanemethylamine,316.0,1,NCC1CCCCC1,le15
1174,"Pyridine, 2-chloro-",338.15,1,Clc1ccccn1,le15
1175,"Pyridine, 3-chloro-",338.15,1,Clc1cccnc1,le15
1176,"Acetic acid, 2,2,2-trifluoro-",270.15,1,O=C(O)C(F)(F)F,le15
1177,"Cyclobutenedione, dihydroxy- (8CI)",392.99,1,O=c1c(O)c(O)c1=O,le15
1178,"2-Propanol, 1,1,1-trifluoro-",311.95,1,CC(O)C(F)(F)F,le15
1179,"3,3,3-trifluoropropan-1-ol",320.25,1,OCCC(F)(F)F,le15
1180,"Benzene, 1,3-difluoro- (9CI)",275.15,1,Fc1cccc(F)c1,le15
1181,"Benzene, 1,4-difluoro- (9CI)",275.25,1,Fc1ccc(F)cc1,le15
1182,"1,2-difluorobenzene",275.35,1,Fc1ccccc1F,le15
1183,"2H-Pyran-2,6(3H)-dione, dihydro-",394.05,1,O=C1CCCC(=O)O1,le15
1184,"Fluorosulfuric acid, methyl ester",283.15,1,COS(=O)(=O)F,le15
1185,"3-methyloxolane-2,5-dione",381.35,1,CC1CC(=O)OC1=O,le15
1186,"Acetic acid, diazo-, ethyl ester",319.15,1,CCOC(=O)C=[N+]=[N-],le15
1187,"2H-1,2-Oxazine, 3,6-dihydro-2-nitroso-",303.45,1,O=NN1CC=CCO1,le15
1188,5-(Aminomethyl)isoxazol-3-ol hydrate,423.55,1,NCc1cc(O)no1.O,le15
1189,"2-Propenoic acid, 2-methyl-, ethyl ester",288.75,1,C=C(C)C(=O)OCC,le15
1190,"Propane, 1-(allyloxy)-2,3-epoxy- (8CI)",330.35,1,C=CCOCC1CO1,le15
1191,"Butanoic acid, ethenyl ester (9CI)",299.55,1,C=COC(=O)CCC,le15
1192,"2-Butenoic acid, ethyl ester, (E)- (9CI)",275.15,1,C/C=C/C(=O)OCC,le15
1193,"2(3H)-Furanone, 5-ethyldihydro-",371.45,1,CCC1CCC(=O)O1,le15
1194,methyl 3-methylbut-2-enoate,305.25,1,COC(=O)C=C(C)C,le15
1195,propyl prop-2-enoate,299.25,1,C=CC(=O)OCCC,le15
1196,(E)-hex-2-enoic acid,388.55,1,CCC/C=C/C(=O)O,le15
1197,"Propionic acid, allyl ester (8CI)",306.65,1,C=CCOC(=O)CC,le15
1198,"1,3-Dioxolane, 4-methyl-2-vinyl-",278.45,1,C=CC1OCC(C)O1,le15
1199,"hexane-2,4-dione",326.75,1,CCC(=O)CC(C)=O,le15
1200,cyclopentanecarboxylic acid,366.15,1,O=C(O)C1CCCC1,le15
1201,"2,3-Hexanedione",301.15,1,CCCC(=O)C(C)=O,le15
1202,(E)-hex-3-enoic acid,379.55,1,CC/C=C/CC(=O)O,le15
1203,"3,4-Hexanedione",305.95,1,CCC(=O)C(=O)CC,le15
1204,"2H-Pyran, 3,4-dihydro-2-methoxy-",289.85,1,COC1CCC=CO1,le15
1205,"Ethanone, 1-(3,3-dimethyloxiranyl)- (9CI)",308.45,1,CC(=O)C1OC1(C)C,le15
1206,ethyl cyclopropanecarboxylate,302.85,1,CCOC(=O)C1CC1,le15
1207,"2,2-dimethylbut-3-enoic acid",357.45,1,C=CC(C)(C)C(=O)O,le15
1208,"2-Butenoic acid, ethyl ester",301.45,1,CC=CC(=O)OCC,le15
1209,"2-Hexenoic acid, (2E)-",388.55,1,CCC/C=C/C(=O)O,le15
1210,(E)-2-methylpent-2-enoic acid,380.15,1,CC/C=C(\C)C(=O)O,le15
1211,(E)-2-methylpent-3-enoic acid,370.55,1,C/C=C/C(C)C(=O)O,le15
1212,hex-5-enoic acid,373.25,1,C=CCCCC(=O)O,le15
1213,ethyl but-3-enoate,303.85,1,C=CCC(=O)OCC,le15
1214,methyl (E)-2-methylbut-2-enoate,308.15,1,C/C=C(\C)C(=O)OC,le15
1215,(E)-4-methylpent-2-enoic acid,379.15,1,CC(C)/C=C/C(=O)O,le15
1216,"2-Imidazolidinone, 1,3-dimethyl-",349.65,1,CN1CCN(C)C1=O,le15
1217,"Piperidine, 1-nitroso-",365.95,1,O=NN1CCCCC1,le15
1218,furan-2-ylmethanethiol,318.15,1,SCc1ccco1,le15
1219,thiophen-2-ylmethanol,349.85,1,OCc1cccs1,le15
1220,"2H-Imidazole-2-thione, 1,3-dihydro-1-methyl-",320.55,1,Cn1cc[nH]c1=S,le15
1221,"2,5-dimethyl-1,3,4-thiadiazole",354.35,1,Cc1nnc(C)s1,le15
1222,cyclohexylmethanol,344.25,1,OCC1CCCCC1,le15
1223,4-methylhexan-2-one,304.15,1,CCC(C)CC(C)=O,le15
1224,"2-Hexanone, 5-methyl-",314.25,1,CC(=O)CCC(C)C,le15
1225,"2,2-dimethylpentan-3-one",295.55,1,CCC(=O)C(C)(C)C,le15
1226,"4,4-dimethylpentan-2-one",292.05,1,CC(=O)CC(C)(C)C,le15
1227,2-cyclopentylethanol,343.55,1,OCCC1CCCC1,le15
1228,2-methylhexanal,305.75,1,CCCCC(C)C=O,le15
1229,methoxycyclohexane,293.85,1,COC1CCCCC1,le15
1230,3-methylhexan-2-one,304.15,1,CCCC(C)C(C)=O,le15
1231,"(1R,3S)-3-methylcyclohexan-1-ol",335.95,1,C[C@H]1CCC[C@@H](O)C1,le15
1232,"3-Hexanone, 2-methyl-",297.05,1,CCCC(=O)C(C)C,le15
1233,(1R)-3-methylcyclohexan-1-ol,335.95,1,CC1CCC[C@@H](O)C1,le15
1234,"(1R,2S)-2-methylcyclohexan-1-ol",332.05,1,C[C@H]1CCCC[C@H]1O,le15
1235,4-methylhexan-3-one,304.15,1,CCC(=O)C(C)CC,le15
1236,3-methylhexanal,305.75,1,CCCC(C)CC=O,le15
1237,"2-Hepten-1-ol, (E)- (8CI)(9CI)",341.65,1,CCCC/C=C/CO,le15
1238,1-methylcyclohexan-1-ol,340.92800000000005,1,CC1(O)CCCCC1,le15
1239,5-methylhexan-3-one,304.15,1,CCC(=O)CC(C)C,le15
1240,hept-1-en-4-ol,329.55,1,C=CCC(O)CCC,le15
1241,2methylcyclohexanol,331.0,1,CC1CCCCC1O,le15
1242,3methylcyclohexanol,335.0,1,CC1CCCC(O)C1,le15
1243,Cycloheptanol,344.0,1,OC1CCCCCC1,le15
1244,Heptanal,314.0,1,CCCCCCC=O,le15
1245,"Piperazine, 2,5-dimethyl-",331.45,1,CC1CNC(C)CN1,le15
1246,piperidin-4-ylmethanamine,351.15,1,NCC1CCNCC1,le15
1247,"1-Propene, 3,3'-thiobis-",319.25,1,C=CCSCC=C,le15
1248,"3,3-dimethylhexane",282.45,1,CCCC(C)(C)CC,le15
1249,"2,2,3-trimethylpentane",281.85,1,CCC(C)C(C)(C)C,le15
1250,"3,4-dimethylhexane",304.75,1,CCC(C)C(C)CC,le15
1251,4-methylheptane,279.85,1,CCCC(C)CCC,le15
1252,"2,5-dimethylhexane",299.85,1,CC(C)CCC(C)C,le15
1253,"2,2,3,3-tetramethylbutane",277.55,1,CC(C)(C)C(C)(C)C,le15
1254,Octane,286.15,1,CCCCCCCC,le15
1255,"2,3,3-trimethylpentane",284.55,1,CCC(C)(C)C(C)C,le15
1256,"2,3,4-trimethylpentane",278.15,1,CC(C)C(C)C(C)C,le15
1257,3-ethyl-3-methylpentane,286.25,1,CCC(C)(CC)CC,le15
1258,2methylheptane,277.0,1,CCCCCC(C)C,le15
1259,3ethylhexane,279.0,1,CCCC(CC)CC,le15
1260,3methylheptane,280.0,1,CCCCC(C)CC,le15
1261,Isooctane,261.0,1,CC(C)CC(C)(C)C,le15
1262,trimethyl(prop-2-enyl)silane,280.35,1,C=CC[Si](C)(C)C,le15
1263,2-chloropyrazine,330.15,1,Clc1cnccn1,le15
1264,Methanesulphonyl chloride,315.35,1,CS(=O)(=O)Cl,le15
1265,"Ether, bis(chloromethyl)",348.05,1,ClCOCCl,le15
1266,"Ethanol, 2,2-dichloro-",351.45,1,OCC(Cl)Cl,le15
1267,Carbonothioic dichloride,335.15,1,S=C(Cl)Cl,le15
1268,"Silane, dichloromethyl-",240.95,1,[SiH3]C(Cl)Cl,le15
1269,"Pyridine, 2,6-difluoro-",307.05,1,Fc1cccc(F)n1,le15
1270,"Succinimide, N-hydroxy- (8CI)",385.65,1,O=C1CCC(=O)N1O,le15
1271,"Acrylamide, N-(hydroxymethyl)-2-methyl- (6CI,8CI)",412.15,1,C=C(C)C(=O)NCO,le15
1272,N-acetyl-N-methylacetamide,339.65,1,CC(=O)N(C)C(C)=O,le15
1273,"Piperazine, 1-nitroso-",386.95,1,O=NN1CCNCC1,le15
1274,"3(2H)-Isothiazolone, 2-methyl-",337.45,1,Cn1sccc1=O,le15
1275,1-methylpiperidin-4-ol,360.95,1,CN1CCC(O)CC1,le15
1276,"Morpholine, 2,6-dimethyl-",317.55,1,CC1CNCC(C)O1,le15
1277,Hexanamide,375.374,1,CCCCCC(N)=O,le15
1278,"Acetamide, N,N-diethyl-",342.45,1,CCN(CC)C(C)=O,le15
1279,N-butylacetamide,387.65,1,CCCCNC(C)=O,le15
1280,"Ethylamine, N,N-dimethyl-2-(vinyloxy)- (6CI,7CI,8CI)",301.55,1,C=COCCN(C)C,le15
1281,"Morpholine, 4-ethyl-",300.95,1,CCN1CCOCC1,le15
1282,4-amino-4-methylpentan-2-one,329.35,1,CC(=O)CC(C)(C)N,le15
1283,"Guanidine, 1,1,3,3-tetramethyl- (8CI)",333.15,1,CN(C)C(=N)N(C)C,le15
1284,2-isothiocyanato-2-methylpropane,311.45,1,CC(C)(C)N=C=S,le15
1285,"Isothiocyanic acid, butyl ester",339.25,1,CCCCN=C=S,le15
1286,1-isothiocyanato-2-methylpropane,317.35,1,CC(C)CN=C=S,le15
1287,butyl thiocyanate,338.05,1,CCCCSC#N,le15
1288,"Silane, azidotrimethyl-",279.15,1,C[Si](C)(C)N=[N+]=[N-],le15
1289,heptan-2-amine,327.15,1,CCCCCC(C)N,le15
1290,"1-Butanamine, N,N,3-trimethyl-",283.15,1,CC(C)CCN(C)C,le15
1291,"Propylamine, N-ethyl-1,2-dimethyl- (7CI)",278.75,1,CCNC(C)C(C)C,le15
1292,heptan-4-amine,314.45,1,CCCC(N)CCC,le15
1293,4-methylhexan-2-amine,302.05,1,CCC(C)CC(C)N,le15
1294,1-Heptanamine,317.15,1,CCCCCCCN,le15
1295,"Formamide, 1,1'-azobis-",399.15,1,NC(=O)N=NC(N)=O,le15
1296,"Butanoic acid, 3-oxo-, methyl ester",334.75,1,COC(=O)CC(C)=O,le15
1297,"Pentanoic acid, 4-oxo-",388.15,1,CC(=O)CCC(=O)O,le15
1298,2-oxopropyl acetate,325.05,1,CC(=O)COC(C)=O,le15
1299,"Pyruvic acid, ethyl ester (8CI)",318.15,1,CCOC(=O)C(C)=O,le15
1300,"2-Propenoic acid, 2-hydroxyethyl ester",371.45,1,C=CC(=O)OCCO,le15
1301,2-oxopentanoic acid,349.75,1,CCCC(=O)C(=O)O,le15
1302,"1,3-Dioxolan-2-one, 4-ethyl-",401.55,1,CCC1COC(=O)O1,le15
1303,3-methyl-2-oxobutanoic acid,344.15,1,CC(C)C(=O)C(=O)O,le15
1304,"Morpholine, N-nitroso-",363.65,1,O=NN1CCOCC1,le15
1305,"Hydrazine, 1,2-diacetyl- (8CI)",456.45,1,CC(=O)NNC(C)=O,le15
1306,prop-1-ynylbenzene,335.37199999999996,1,CC#Cc1ccccc1,le15
1307,1-ethynyl-4-methylbenzene,322.039,1,C#Cc1ccc(C)cc1,le15
1308,1H-Indene,331.15,1,C1=Cc2ccccc2C1,le15
1309,"Butanoic acid, 2-ethyl-",360.15,1,CCC(CC)C(=O)O,le15
1310,"Pentanoic acid, 2-methyl-",364.15,1,CCCC(C)C(=O)O,le15
1311,"Propanoic acid, 2-methyl-, ethyl ester",286.15,1,CCOC(=O)C(C)C,le15
1312,"2H-Pyran-2-methanol, tetrahydro-",366.45,1,OCC1CCCCO1,le15
1313,"Pentanoic acid, 3-methyl-",361.55,1,CCC(C)CC(=O)O,le15
1314,"Acetic acid, 1-methylpropyl ester",289.25,1,CCC(C)OC(C)=O,le15
1315,"Butanoic acid, ethyl ester",292.594,1,CCCC(=O)OCC,le15
1316,"Propanoic acid, propyl ester",297.55,1,CCCOC(=O)CC,le15
1317,"Acetic acid, 2-methylpropyl ester",294.85,1,CC(=O)OCC(C)C,le15
1318,"1-Butanol, 3-methyl-, formate",295.45,1,CC(C)CCOC=O,le15
1319,"2-Pentanone, 4-hydroxy-4-methyl-",331.15,1,CC(=O)CC(C)(C)O,le15
1320,"1,3-Dioxolane, 2-ethyl-2-methyl-",286.15,1,CCC1(C)OCCO1,le15
1321,"Acetic acid, 1,1-dimethylethyl ester",284.15,1,CC(=O)OC(C)(C)C,le15
1322,methyl 3-methylbutanoate,292.55,1,COC(=O)CC(C)C,le15
1323,"2,2-dimethylbutanoic acid",352.55,1,CCC(C)(C)C(=O)O,le15
1324,"Pentanoic acid, methyl ester",295.35,1,CCCCC(=O)OC,le15
1325,propan-2-yl propanoate,292.55,1,CCC(=O)OC(C)C,le15
1326,"3,3-dimethylbutanoic acid",353.75,1,CC(C)(C)CC(=O)O,le15
1327,"Oxirane, ((1-methylethoxy)methyl)-",306.45,1,CC(C)OCC1CO1,le15
1328,"2,3-dimethylbutanoic acid",356.55,1,CC(C)C(C)C(=O)O,le15
1329,2-(methoxymethyl)oxolane,306.45,1,COCC1CCCO1,le15
1330,6-hydroxyhexan-2-one,365.35,1,CC(=O)CCCCO,le15
1331,"methyl 2,2-dimethylpropanoate",279.85,1,COC(=O)C(C)(C)C,le15
1332,"Butanoic acid, 2-methyl-, methyl ester",292.55,1,CCC(C)C(=O)OC,le15
1333,2ethylbutyricacid,360.0,1,CCC(CC)C(=O)O,le15
1334,IsopropylGlycidylEther,306.0,1,CC(C)OCC1CO1,le15
1335,Methylvalerate,295.0,1,CCCCC(=O)OC,le15
1336,secButylacetate,289.0,1,CCC(C)OC(C)=O,le15
1337,tertButylacetate,288.0,1,CC(=O)OC(C)(C)C,le15
1338,"Urea, butyl-",335.45,1,CCCCNC(N)=O,le15
1339,"1,3-diethylurea",394.25,1,CCNC(=O)NCC,le15
1340,"Urea, 1,1,3,3-tetramethyl-",327.05,1,CN(C)C(=O)N(C)C,le15
1341,"2-Tetrazene, 1,1,4,4-tetramethyl-",535.55,1,CN(C)N=NN(C)C,le15
1342,4-Heptanol,334.95,1,CCCC(O)CCC,le15
1343,3-Heptanol,327.55,1,CCCCC(O)CC,le15
1344,"2,3,3-trimethylbutan-2-ol",306.75,1,CC(C)(C)C(C)(C)O,le15
1345,"2,3-dimethylpentan-3-ol",313.75,1,CCC(C)(O)C(C)C,le15
1346,3-ethylpentan-3-ol,313.15,1,CCC(O)(CC)CC,le15
1347,3-methylhexan-3-ol,322.55,1,CCCC(C)(O)CC,le15
1348,2-methylhexan-3-ol,313.70599999999996,1,CCCC(O)C(C)C,le15
1349,2-ethoxy-2-methylbutane,278.15,1,CCOC(C)(C)CC,le15
1350,1-propan-2-yloxybutane,280.45,1,CCCCOC(C)C,le15
1351,1-propoxybutane,288.75,1,CCCCOCCC,le15
1352,"2,2-dimethylpentan-3-ol",311.45,1,CCC(O)C(C)(C)C,le15
1353,1-methoxyhexane,294.15,1,CCCCCCOC,le15
1354,2-methyl-1-propoxypropane,282.15,1,CCCOCC(C)C,le15
1355,1-ethoxypentane,289.55,1,CCCCCOCC,le15
1356,"3-Pentanol, 2,4-dimethyl-",310.15,1,CC(C)C(O)C(C)C,le15
1357,2-methylhexan-1-ol,334.95,1,CCCCC(C)CO,le15
1358,2heptanol,344.0,1,CCCCCC(C)O,le15
1359,"1,2-Ethanediamine, N,N-diethyl-",303.75,1,CCN(CC)CCN,le15
1360,"N-ethyl-N',N'-dimethylethane-1,2-diamine",297.05,1,CCNCCN(C)C,le15
1361,Hexamethylenediamine,367.15,1,NCCCCCCN,le15
1362,"Hydrazine, 1,1-bis(1-methylethyl)- (9CI)",303.45,1,CC(C)N(N)C(C)C,le15
1363,thiepane,324.85,1,C1CCCSCC1,le15
1364,Cyclohexanethiol,316.0,1,SC1CCCCC1,le15
1365,"1-chloro-1,2,2-trifluoroethene",245.15,1,FC(F)=C(F)Cl,le15
1366,"Benzonitrile, 4-methyl-",358.786,1,Cc1ccc(C#N)cc1,le15
1367,"Acetonitrile, phenyl-",374.15,1,N#CCc1ccccc1,le15
1368,1H-Indole,380.98900000000003,1,c1ccc2[nH]ccc2c1,le15
1369,"Benzonitrile, 2-methyl-",358.15,1,Cc1ccccc1C#N,le15
1370,"Benzonitrile, 3-methyl-",359.85,1,Cc1cccc(C#N)c1,le15
1371,Benzylcyanide,374.0,1,N#CCc1ccccc1,le15
1372,"Nitrous acid, 3-methylbutyl ester",283.15,1,CC(C)CCON=O,le15
1373,"Nitrous acid, pentyl ester",282.05,1,CCCCCON=O,le15
1374,Valine,356.158,1,CC(C)[C@H](N)C(=O)O,le15
1375,"Pentane, 3-nitro-",319.25,1,CCC(CC)[N+](=O)[O-],le15
1376,"Carbamic acid, butyl ester",381.15,1,CCCCOC(N)=O,le15
1377,ethyl N-ethylcarbamate,348.75,1,CCNC(=O)OCC,le15
1378,"Butanoic acid, 4-(methylamino)-",370.45,1,CNCCCC(=O)O,le15
1379,"Ethanol, 2-(diethylamino)-",322.05,1,CCN(CC)CCO,le15
1380,"Ethanol, 2-(butylamino)-",352.45,1,CCCCNCCO,le15
1381,"1-Hexanol, 6-amino- (8CI)(9CI)",346.65,1,NCCCCCCO,le15
1382,"Ethanol, 2-((1,1-dimethylethyl)amino)-",342.05,1,CC(C)(C)NCCO,le15
1383,"1-Hexanol, 2-amino-",373.15,1,CCCCC(N)CO,le15
1384,"1-Pentanol, 2-amino-4-methyl-, (S)-",363.75,1,CC(C)C[C@H](N)CO,le15
1385,2-(2-methylpropylamino)ethanol,345.25,1,CC(C)CNCCO,le15
1386,N-methyl-N-trimethylsilylmethanamine,254.15,1,CN(C)[Si](C)(C)C,le15
1387,"Pentanenitrile, 5-chloro-",371.45,1,N#CCCCCCl,le15
1388,"Propanedioic acid, oxo- (9CI)",486.15,1,O=C(O)C(=O)C(=O)O,le15
1389,Butanedioic acid,384.05,1,O=C(O)CCC(=O)O,le15
1390,dimethyl oxalate,348.15,1,COC(=O)C(=O)OC,le15
1391,"Ethylene glycol, diformate",359.35,1,O=COCCOC=O,le15
1392,"Glycine, N-carbamoyl- (7CI,8CI)",424.65,1,NC(=O)NCC(=O)O,le15
1393,"Propane, 2-nitro-2-nitroso-",309.25,1,CC(C)(N=O)[N+](=O)[O-],le15
1394,"Guanidine, N-methyl-N'-nitro- (9CI)",378.55,1,CNC(=N)N[N+](=O)[O-],le15
1395,Benzofuran,329.0,1,c1ccc2occc2c1,le15
1396,1H-Benzimidazole,481.589,1,c1ccc2[nH]cnc2c1,le15
1397,"Propanoic acid, 2-hydroxy-, ethyl ester",327.75,1,CCOC(=O)C(C)O,le15
1398,"Carbonic acid, diethyl ester",304.25,1,CCOC(=O)OCC,le15
1399,"Propanoic acid, 2-hydroxy-, ethyl ester, (2S)-",319.15,1,CCOC(=O)[C@H](C)O,le15
1400,2-aminobenzonitrile,395.35,1,N#Cc1ccccc1N,le15
1401,methyl 2-hydroxy-2-methylpropanoate,309.95,1,COC(=O)C(C)(C)O,le15
1402,"Benzonitrile, 3-amino- (9CI)",385.15,1,N#Cc1cccc(N)c1,le15
1403,methyl 3-methoxypropanoate,320.15,1,COCCC(=O)OC,le15
1404,ethyl 2-methoxyacetate,319.25,1,CCOC(=O)COC,le15
1405,"Ethanol, 2-methoxy-, acetate",317.05,1,COCCOC(C)=O,le15
1406,1H-indazole,401.65,1,c1ccc2[nH]ncc2c1,le15
1407,"Benzonitrile, p-amino- (8CI)",400.25,1,N#Cc1ccc(N)cc1,le15
1408,DiethylCarbonate,298.0,1,CCOC(=O)OCC,le15
1409,"Ethene, 1,1'-sulfonylbis-",375.15,1,C=CS(=O)(=O)C=C,le15
1410,"Thiophene, 2,5-dihydro-, 1,1-dioxide",385.15,1,O=S1(=O)CC=CC1,le15
1411,triethylphosphane,255.95,1,CCP(CC)CC,le15
1412,"Acetamide, N-(aminothioxomethyl)-",353.15,1,CC(=O)NC(N)=S,le15
1413,"Benzene, (1-methylethenyl)-",318.70599999999996,1,C=C(C)c1ccccc1,le15
1414,1-ethenyl-3-methylbenzene,320.55,1,C=Cc1cccc(C)c1,le15
1415,"Benzene, 2-propenyl-",306.45,1,CC=Cc1ccccc1,le15
1416,"1H-Indene, 2,3-dihydro-",323.15,1,c1ccc2c(c1)CCC2,le15
1417,"Benzene, 1-ethenyl-4-methyl-",321.85,1,C=Cc1ccc(C)cc1,le15
1418,cyclopropylbenzene,317.05,1,c1ccc(C2CC2)cc1,le15
1419,"Benzene, 1-propenyl-, (Z)-",322.55,1,C/C=C\c1ccccc1,le15
1420,3methylstyrene,324.0,1,C=Cc1cccc(C)c1,le15
1421,4methylstyrene,318.0,1,C=Cc1ccc(C)cc1,le15
1422,"2,3-dimethylbutane-2,3-diol",350.35,1,CC(C)(O)C(C)(C)O,le15
1423,"2-ethyl-2-methylpropane-1,3-diol",369.25,1,CCC(C)(CO)CO,le15
1424,"2,4-Pentanediol, 2-methyl-",367.05,1,CC(O)CC(C)(C)O,le15
1425,"1-Propanol, 3-(1-methylethoxy)- (9CI)",328.35,1,CC(C)OCCCO,le15
1426,"1-Butanol, 4-ethoxy-",330.05,1,CCOCCCCO,le15
1427,"Ethanol, 2-butoxy-",333.15,1,CCCCOCCO,le15
1428,"1,3-Pentanediol, 2-methyl-",381.65,1,CCC(O)C(C)CO,le15
1429,"Ethane, 1,2-diethoxy-",293.75,1,CCOCCOCC,le15
1430,"2-Propanol, 1-propoxy-",321.15,1,CCCOCC(C)O,le15
1431,"Ethanol, 2-(2-methylpropoxy)-",323.55,1,CC(C)COCCO,le15
1432,"3-methylpentane-2,4-diol",364.45,1,CC(O)C(C)C(C)O,le15
1433,"1,2-Hexanediol",395.15,1,CCCCC(O)CO,le15
1434,"1,3-Butanediol, 2,2-dimethyl-",360.75,1,CC(O)C(C)(C)CO,le15
1435,"2,4-Hexanediol",374.15,1,CCC(O)CC(C)O,le15
1436,1-propan-2-yloxypropan-2-ol,321.35,1,CC(O)COC(C)C,le15
1437,"Ethanol, 2-sec-butoxy-",323.35,1,CCC(C)OCCO,le15
1438,"Sulfide, methylvinyloxyethyl-",319.05,1,CC=COCCSCCOC=CC,le15
1439,1fluoroheptane,286.0,1,CCCCCCCF,le15
1440,1-Hexanethiol,303.15,1,CCCCCCS,le15
1441,Propyl sulfide (8CI),301.45,1,CCCSCCC,le15
1442,2-propan-2-ylsulfanylpropane,280.15,1,CC(C)SC(C)C,le15
1443,1-propan-2-ylsulfanylpropane,296.15,1,CCCSC(C)C,le15
1444,1-methylsulfanylpentane,312.85,1,CCCCCSC,le15
1445,ethoxy(trimethyl)silane,255.15,1,CCO[Si](C)(C)C,le15
1446,3-methylbut-2-enoyl chloride,324.15,1,CC(C)=CC(=O)Cl,le15
1447,2-chlorothiophene,295.15,1,Clc1cccs1,le15
1448,"Cyclohexane, chloro-",301.15,1,ClC1CCCCC1,le15
1449,"1-Propyne, 3-bromo-",290.25,1,C#CCBr,le15
1450,"Propanoic acid, 3-nitro- (9CI)",421.55,1,O=C(O)CC[N+](=O)[O-],le15
1451,"Acetic acid, nitro-, methyl ester",378.15,1,COC(=O)C[N+](=O)[O-],le15
1452,"2,1-benzoxazole",367.05,1,c1ccc2nocc2c1,le15
1453,"1,3-benzoxazole",338.45,1,c1ccc2ocnc2c1,le15
1454,"Benzonitrile, 4-hydroxy-",397.05,1,N#Cc1ccc(O)cc1,le15
1455,"Benzonitrile, 3-hydroxy-",380.75,1,N#Cc1cccc(O)c1,le15
1456,(E)-3-(furan-2-yl)prop-2-enenitrile,360.35,1,N#C/C=C/c1ccco1,le15
1457,1H-Benzotriazole,407.05,1,c1ccc2[nH]nnc2c1,le15
1458,2-methylpropyl nitrate,314.05,1,CC(C)CO[N+](=O)[O-],le15
1459,butan-2-yl nitrate,314.05,1,CCC(C)O[N+](=O)[O-],le15
1460,"Ethanol, 2-methoxy-, carbamate",404.15,1,COCCOC(N)=O,le15
1461,"Hydrazinecarbothioamide, 1-formyl- (9CI)",364.65,1,NC(=S)N(N)C=O,le15
1462,"Pyridine, 5-ethenyl-2-methyl-",329.75,1,C=Cc1ccc(C)nc1,le15
1463,"2,3-dihydro-1H-indole",365.95,1,c1ccc2c(c1)CCN2,le15
1464,N-methyl-1-phenylmethanimine,386.15,1,CN=Cc1ccccc1,le15
1465,"Benzenamine, 4-ethenyl-",381.75,1,C=Cc1ccc(N)cc1,le15
1466,"Ethanol, 2,2'-(methylimino)bis-",399.85,1,CN(CCO)CCO,le15
1467,"2,2-dimethoxy-N-methylethanamine",302.55,1,CNCC(OC)OC,le15
1468,MethylDiethanolAmine,411.0,1,CN(CCO)CCO,le15
1469,2-Thiazolidinethione,341.25,1,S=C1NCCS1,le15
1470,"Acetonitrile, bromo-",297.45,1,N#CCBr,le15
1471,trimethylarsane,373.15,1,C[As](C)C,le15
1472,"1,1-dinitroethane",352.15,1,CC([N+](=O)[O-])[N+](=O)[O-],le15
1473,"Urea, 1,3-bis(hydroxymethyl)- (8CI)",505.45,1,O=C(NCO)NCO,le15
1474,"Benzene, (epoxyethyl)-",352.55,1,c1ccc(C2CO2)cc1,le15
1475,"Acetaldehyde, phenyl- (8CI)",362.35,1,O=CCc1ccccc1,le15
1476,"Isobenzofuran, 1,3-dihydro-",336.15,1,c1ccc2c(c1)COC2,le15
1477,"Benzofuran, 2,3-dihydro-",339.15,1,c1ccc2c(c1)CCO2,le15
1478,o-Tolualdehyde (8CI),352.65,1,Cc1ccccc1C=O,le15
1479,"Benzaldehyde, 3-methyl-",351.15,1,Cc1cccc(C=O)c1,le15
1480,4-ethenylphenol,365.45,1,C=Cc1ccc(O)cc1,le15
1481,"Ethanone, 1-phenyl-",354.05,1,CC(=O)c1ccccc1,le15
1482,"2-(hydroxymethyl)-2-methylpropane-1,3-diol",418.65,1,CC(CO)(CO)CO,le15
1483,"Ethanol, 2-(2-methoxyethoxy)-",357.05,1,COCCOCCO,le15
1484,"1,3-dimethoxypropan-2-ol",331.35,1,COCC(O)COC,le15
1485,"1,1,1-trimethoxyethane",289.15,1,COC(C)(OC)OC,le15
1486,"3-ethoxypropane-1,2-diol",372.65,1,CCOCC(O)CO,le15
1487,"Thiophene, tetrahydro-, 1,1-dioxide",443.82800000000003,1,O=S1(=O)CCCC1,le15
1488,"Acetic acid, mercapto-, ethyl ester",320.95,1,CCOC(=O)CS,le15
1489,(Ethylsulphonyl)ethylene,382.15,1,C=CS(=O)(=O)CC,le15
1490,methyl 3-sulfanylpropanoate,333.15,1,COC(=O)CCS,le15
1491,"Benzene, (1-methylethyl)-",304.15,1,CC(C)c1ccccc1,le15
1492,1-ethyl-2-methylbenzene,312.55,1,CCc1ccccc1C,le15
1493,"Bicyclo(2.2.1)hept-2-ene, 5-ethenyl-",299.35,1,C=CC1CC2C=CC1C2,le15
1494,"Bicyclo(2.2.1)hept-2-ene, 5-ethylidene-",311.45,1,CC=C1CC2C=CC1C2,le15
1495,"1H-Indene, 3a,4,7,7a-tetrahydro-",306.95,1,C1=CCC2CC=CC2C1,le15