,compound,flashpoint,pure substance,smiles,source
7184,"Propane, 1,3-dibromo-2,2-bis(bromomethyl)-",425.65,1,BrCC(CBr)(CBr)CBr,le15
7185,"1,1,1,2,2,3,3,4,4,5,5,6,6,7,7,7-hexadecafluoroheptane",289.85,1,FC(F)(F)C(F)(F)C(F)(F)C(F)(F)C(F)(F)C(F)(F)C(F)(F)F,le15
7186,"3,5-Pyrazolidinedione, 1,2-diphenyl-4-(2-(phenylthio)ethyl)-",552.35,1,O=C1C(CCSc2ccccc2)C(=O)N(c2ccccc2)N1c1ccccc1,le15
7187,"2H-1-Benzopyran-2-one, 7-(2H-naphtho(1,2-d)triazol-2-yl)-3-phenyl-",626.75,1,O=c1oc2cc(-n3nc4ccc5ccccc5c4n3)ccc2cc1-c1ccccc1,le15
7188,"1,2-Benzenedicarboxylic acid, bis(2-ethylhexyl) ester",477.65,1,CCCCC(CC)COC(=O)c1ccccc1C(=O)OCC(CC)CCCC,le15
7189,"1,2-Benzenedicarboxylic acid, dioctyl ester",495.45,1,CCCCCCCCOC(=O)c1ccccc1C(=O)OCCCCCCCC,le15
7190,"1,3-Benzenedicarboxylic acid, bis(2-ethylhexyl) ester",481.55,1,CCCCC(CC)COC(=O)c1cccc(C(=O)OCC(CC)CCCC)c1,le15
7191,3beta-Hydroxy-12-oxo-5beta-cholanoic acid,571.15,1,C[C@H](CCC(=O)O)[C@H]1CC[C@H]2[C@@H]3CC[C@@H]4C[C@@H](O)CC[C@]4(C)[C@H]3CC(=O)[C@@]21C,le15
7192,"1,2-Benzenedicarboxylic acid, diisooctyl ester",477.65,1,CC(C)CCCCCOC(=O)c1ccccc1C(=O)OCCCCCC(C)C,le15
7193,"Phenol, 2,6-diiodo-4-nitro-",414.75,1,O=[N+]([O-])c1cc(I)c(O)c(I)c1,le15
7194,"p-Cresol, 2,2'-methylenebis(6-cyclohexyl- (6CI,7CI,8CI)",472.65,1,Cc1cc(Cc2cc(C)cc(C3CCCCC3)c2O)c(O)c(C2CCCCC2)c1,le15
7195,"Benzene, 1,2,4,5-tetrabromo-",421.65,1,Brc1cc(Br)c(Br)cc1Br,le15
7196,"Methane, triiodo-",477.15,1,IC(I)I,le15
7197,"Bicyclo(2.2.1)hept-2-ene, 5-(bromomethyl)-1,2,3,4,7,7-hexachloro-",479.65,1,ClC1=C(Cl)C2(Cl)C(CBr)CC1(Cl)C2(Cl)Cl,le15
7198,"Phosphorothioic acid, O-(4-bromo-2,5-dichlorophenyl) O,O-diethyl ester",462.05,1,CCOP(=S)(OCC)Oc1cc(Cl)c(Br)cc1Cl,le15
7199,"Cyclohexene-1,2-dicarboxylic acid, bis(2-ethylhexyl) ester",491.85,1,CCCCC(CC)COC(=O)C1=C(C(=O)OCC(CC)CCCC)CCCC1,le15
7200,octacosane,500.15,1,CCCCCCCCCCCCCCCCCCCCCCCCCCCC,le15
7201,"Benzoic acid, 2-hydroxy-5-((4-((2-pyridinylamino)sulfonyl)phenyl)azo)-",608.55,1,O=C(O)c1cc(N=Nc2ccc(S(=O)(=O)Nc3ccccn3)cc2)ccc1O,le15
7202,"Ethanol, 2-butoxy-, phosphate (3:1)",514.65,1,CCCCOCCO.CCCCOCCO.CCCCOCCO.O=P(O)(O)O,le15
7203,"N,N'-1,2-Ethanediylbis(n-butyl-4-morpholinecarboxamide)",572.45,1,CCCCC1COCCN1C(=O)NCCNC(=O)N1CCOCC1CCCC,le15
7204,"1-bromo-1,1,2,2,3,3,4,4,5,5,6,6,6-tridecafluorohexane",286.45,1,FC(F)(F)C(F)(F)C(F)(F)C(F)(F)C(F)(F)C(F)(F)Br,le15
7205,"Phenol, 2,2'-thiobis(6-tert-butyl-4-chloro-",502.75,1,CC(C)(C)c1cc(Cl)cc(Sc2cc(Cl)cc(C(C)(C)C)c2O)c1O,le15
7206,"2,3,4,5-tetrabromothiophene",420.25,1,Brc1sc(Br)c(Br)c1Br,le15
7207,"1,1,2,2,3,3,4,4,5,6-decafluoro-5,6-bis(trifluoromethyl)cyclohexane",287.35,1,FC(F)(F)C1(F)C(F)(F)C(F)(F)C(F)(F)C(F)(F)C1(F)C(F)(F)F,le15
7208,"1,1,2,2,3,3,4,5,5,6-decafluoro-4,6-bis(trifluoromethyl)cyclohexane",284.65,1,FC(F)(F)C1(F)C(F)(F)C(F)(F)C(F)(F)C(F)(C(F)(F)F)C1(F)F,le15
7209,"Androst-4-en-3-one, 17-((1-oxoheptyl)oxy)-, (17beta)-",487.35,1,CCCCCCC(=O)O[C@H]1CC[C@H]2[C@@H]3CCC4=CC(=O)CC[C@]4(C)[C@H]3CC[C@]12C,le15
7210,"Benzamide, 2,3,5-trichloro-N-(3,5-dichloro-2-hydroxyphenyl)-6-hydroxy-",496.65,1,O=C(Nc1cc(Cl)cc(Cl)c1O)c1c(O)c(Cl)cc(Cl)c1Cl,le15
7211,"Phosphoric acid, (1,1'-biphenyl)-2-yl diphenyl ester (9CI)",539.15,1,O=P(Oc1ccccc1)(Oc1ccccc1)Oc1ccccc1-c1ccccc1,le15
7212,"Pregn-4-ene-3,11,20-trione, 21-(acetyloxy)-17-hydroxy-",470.45,1,CC(=O)OCC(=O)[C@@]1(O)CC[C@H]2[C@@H]3CCC4=CC(=O)CC[C@]4(C)[C@H]3C(=O)C[C@@]21C,le15
7213,"Citric acid, tributyl ester, acetate (8CI)",448.25,1,CC(=O)O.CCCCOC(=O)CC(O)(CC(=O)OCCCC)C(=O)OCCCC,le15
7214,"5beta-Cholan-24-oic acid, 3,7,12-trioxo- (8CI)",592.65,1,C[C@H](CCC(=O)O)[C@H]1CC[C@H]2[C@@H]3C(=O)C[C@@H]4CC(=O)CC[C@]4(C)[C@H]3CC(=O)[C@@]21C,le15
7215,"Cholestan-3-ol, 5,6-epoxy-, (3beta,5alpha,6alpha)- (9CI)",474.05,1,CC(C)CCC[C@@H](C)[C@H]1CC[C@H]2[C@@H]3C[C@@H]4O[C@@]45C[C@@H](O)CC[C@]5(C)[C@H]3CC[C@@]21C,le15
7216,"Naphthalene, 1,2,3,4,5,6,7,8-octachloro-",487.35,1,Clc1c(Cl)c(Cl)c2c(Cl)c(Cl)c(Cl)c(Cl)c2c1Cl,le15
7217,"1-Piperazineethanol, 4-(3-(2-chloro-10H-phenothiazin-10-yl)propyl)-",577.95,1,OCCN1CCN(CCCN2c3ccccc3Sc3ccc(Cl)cc32)CC1,le15
7218,"3,5-Pyrazolidinedione, 1,2-diphenyl-4-(2-(phenylsulfinyl)ethyl)-",584.25,1,O=C1C(CCS(=O)c2ccccc2)C(=O)N(c2ccccc2)N1c1ccccc1,le15
7219,"Pregna-4,6-diene-3,20-dione, 6-chloro-17-hydroxy-, acetate",445.65,1,CC(=O)O.CC(=O)[C@@]1(O)CC[C@H]2[C@@H]3C=C(Cl)C4=CC(=O)CC[C@]4(C)[C@H]3CC[C@@]21C,le15
7220,"Ethanamine, 2-(4-(2-chloro-1,2-diphenylethenyl)phenoxy)-N,N-diethyl-",534.75,1,CCN(CC)CCOc1ccc(C(=C(Cl)c2ccccc2)c2ccccc2)cc1,le15
7221,"2,2,3,3,4,4,4-heptafluorobutanoyl 2,2,3,3,4,4,4-heptafluorobutanoate",292.05,1,O=C(OC(=O)C(F)(F)C(F)(F)C(F)(F)F)C(F)(F)C(F)(F)C(F)(F)F,le15
7222,"Phenol, o-ethyl-, phosphate (6CI,7CI)",530.05,1,CCc1ccccc1OP(=O)(O)O,le15
7223,"Phenol, 2,4-dimethyl-, phosphate (3:1)",517.75,1,Cc1ccc(O)c(C)c1.Cc1ccc(O)c(C)c1.Cc1ccc(O)c(C)c1.O=P(O)(O)O,le15
7224,1-Octacosanol,408.45,1,CCCCCCCCCCCCCCCCCCCCCCCCCCCCO,le15
7225,"Nonanedioic acid, bis(2-ethylhexyl) ester",457.75,1,CCCCC(CC)COC(=O)CCCCCCCC(=O)OCC(CC)CCCC,le15
7226,"L-Glutamic acid, N-(1-oxooctadecyl)- (9CI)",589.95,1,CCCCCCCCCCCCCCCCCC(=O)N[C@@H](CCC(=O)O)C(=O)O,le15
7227,"Octanoic acid, 2,2,3,3,4,4,5,5,6,6,7,7,8,8,8-pentadecafluoro-",335.25,1,O=C(O)C(F)(F)C(F)(F)C(F)(F)C(F)(F)C(F)(F)C(F)(F)C(F)(F)F,le15
7228,"3,6,9,12,15,18,21,24-Octaoxahexacosane-1,26-diol",533.15,1,OCCOCCOCCOCCOCCOCCOCCOCCOCCO,le15
7229,"Stigmast-5-en-3-ol, (3beta)-",493.55,1,CC[C@H](CC[C@@H](C)[C@H]1CC[C@H]2[C@@H]3CC=C4C[C@@H](O)CC[C@]4(C)[C@H]3CC[C@@]21C)C(C)C,le15
7230,"2,2,3,3,4,4,5-heptafluoro-5-(1,1,2,2,3,3,4,4,4-nonafluorobutyl)oxolane",290.75,1,FC(F)(F)C(F)(F)C(F)(F)C(F)(F)C1(F)OC(F)(F)C(F)(F)C1(F)F,le15
7231,"9,10-Anthracenedione, 1,4-bis((4-methylphenyl)amino)-",470.15,1,Cc1ccc(Nc2ccc(Nc3ccc(C)cc3)c3c2C(=O)c2ccccc2C3=O)cc1,le15
7232,"1,2-Benzenedicarboxylic acid, decyl octyl ester",506.25,1,CCCCCCCCCCOC(=O)c1ccccc1C(=O)OCCCCCCCC,le15
7233,"2-O-(8-methylnonyl) 1-O-octyl benzene-1,2-dicarboxylate",497.75,1,CCCCCCCCOC(=O)c1ccccc1C(=O)OCCCCCCCC(C)C,le15
7234,"dinonyl benzene-1,2-dicarboxylate",506.25,1,CCCCCCCCCOC(=O)c1ccccc1C(=O)OCCCCCCCCC,le15
7235,"Cholestane-3,5,6-triol, (3beta,5alpha,6beta)- (9CI)",485.65,1,CC(C)CCC[C@@H](C)[C@H]1CC[C@H]2[C@@H]3C[C@@H](O)[C@@]4(O)C[C@@H](O)CC[C@]4(C)[C@H]3CC[C@@]21C,le15
7236,"1,2,3,4-tetrabromo-5,6-dimethylbenzene",450.75,1,Cc1c(C)c(Br)c(Br)c(Br)c1Br,le15
7237,"Benzimidazole, 4,5,6-tribromo-2-(trifluoromethyl)-",486.95,1,FC(F)(F)c1nc2cc(Br)c(Br)c(Br)c2[nH]1,le15
7238,"2,6,10,15,19,23-hexamethyltetracosane",490.95,1,CC(C)CCCC(C)CCCC(C)CCCCC(C)CCCC(C)CCCC(C)C,le15
7239,"o-Cresol, tetrabromo- (8CI)",443.45,1,Cc1c(O)c(Br)c(Br)c(Br)c1Br,le15
7240,"Methanone, (3,5-dibromo-4-hydroxyphenyl)(2-ethyl-3-benzofuranyl)-",537.85,1,CCc1oc2ccccc2c1C(=O)c1cc(Br)c(O)c(Br)c1,le15
7241,"Ethane, pentabromo-",393.45,1,BrC(Br)C(Br)(Br)Br,le15
7242,"Phenol, 4,4'-methylenebis(2,6-bis(1,1-dimethylethyl)-",451.25,1,CC(C)(C)c1cc(Cc2cc(C(C)(C)C)c(O)c(C(C)(C)C)c2)cc(C(C)(C)C)c1O,le15
7243,"Tetradecanoic acid, tetradecyl ester",513.95,1,CCCCCCCCCCCCCCOC(=O)CCCCCCCCCCCCC,le15
7244,"1,2-Benzenediol, 3,4,5,6-tetrabromo- (9CI)",432.15,1,Oc1c(O)c(Br)c(Br)c(Br)c1Br,le15
7245,"Sebacic acid, bis(2-ethylhexyl) ester (8CI)",462.805,1,CCCCC(CC)COC(=O)CCCCCCCCC(=O)OCC(CC)CCCC,le15
7246,"Cyclohexane, 1,2-dibromo-4-(1,2-dibromoethyl)-",446.45,1,BrCC(Br)C1CCC(Br)C(Br)C1,le15
7247,"methyl 2,2,3,3,4,4,5,5,6,6,7,7,8,8,8-pentadecafluorooctanoate",318.65,1,COC(=O)C(F)(F)C(F)(F)C(F)(F)C(F)(F)C(F)(F)C(F)(F)C(F)(F)F,le15
7248,Inosine 5'-(trihydrogen pyrophosphate),786.45,1,O=P(O)(O)OP(=O)(O)OC[C@H]1O[C@@H](n2cnc3c(O)ncnc32)[C@H](O)[C@@H]1O,le15
7249,"Cholesterol, acetate (8CI)",521.95,1,CC(=O)O[C@H]1CC[C@@]2(C)C(=CC[C@@H]3[C@@H]2CC[C@@]2(C)[C@H]3CC[C@@H]2[C@H](C)CCCC(C)C)C1,le15
7250,"Ethanimidoyl chloride, 2,2,2-trichloro-N-(pentachlorophenyl)-",499.25,1,ClC(=Nc1c(Cl)c(Cl)c(Cl)c(Cl)c1Cl)C(Cl)(Cl)Cl,le15
7251,"Benzoxazole, 2,2'-(2,5-thiophenediyl)bis(5-(1,1-dimethylethyl)-",548.25,1,CC(C)(C)c1ccc2oc(-c3ccc(-c4nc5cc(C(C)(C)C)ccc5o4)s3)nc2c1,le15
7252,"(1,4'-Bipiperidine)-4'-carboxamide, 1'-(3-cyano-3,3-diphenylpropyl)-",615.45,1,N#CC(CCN1CCC(C(N)=O)(N2CCCCC2)CC1)(c1ccccc1)c1ccccc1,le15
7253,"1-Nonanol, 2,2,3,3,4,4,5,5,6,6,7,7,8,8,9,9-hexadecafluoro-",346.55,1,OCC(F)(F)C(F)(F)C(F)(F)C(F)(F)C(F)(F)C(F)(F)C(F)(F)C(F)F,le15
7254,"1,3-Propanediol, 2-((benzoyloxy)methyl)-2-methyl-, 1,3-dibenzoate",518.45,1,CC(COC(=O)c1ccccc1)(COC(=O)c1ccccc1)COC(=O)c1ccccc1,le15
7255,"Phosphoric acid, tris(2-ethylhexyl) ester",479.75,1,CCCCC(CC)COP(=O)(OCC(CC)CCCC)OCC(CC)CCCC,le15
7256,"Phosphoric acid, trioctyl ester",491.15,1,CCCCCCCCOP(=O)(OCCCCCCCC)OCCCCCCCC,le15
7257,TrioctylPhosphate,491.15,1,CCCCCCCCOP(=O)(OCCCCCCCC)OCCCCCCCC,le15
7258,"1,1,1,2,2,3,3,4,4,5,5,6,6,7,7,8,8,8-octadecafluorooctane",303.85,1,FC(F)(F)C(F)(F)C(F)(F)C(F)(F)C(F)(F)C(F)(F)C(F)(F)C(F)(F)F,le15
7259,"Benzenamine, 2,4,6-trinitro-N-(2,4,6-trinitrophenyl)-",549.05,1,O=[N+]([O-])c1cc([N+](=O)[O-])c(Nc2c([N+](=O)[O-])cc([N+](=O)[O-])cc2[N+](=O)[O-])c([N+](=O)[O-])c1,le15
7260,"5,9,14,18-Anthrazinetetrone, 6,15-dihydro-",527.05,1,O=c1c2ccccc2c(=O)c2c1ccc1[nH]c3c(ccc4c(=O)c5ccccc5c(=O)c43)[nH]c12,le15
7261,"Phosphoric acid, 1,2-dibromo-2,2-dichloroethyl methyl phenyl ester",436.55,1,COP(=O)(Oc1ccccc1)OC(Br)C(Cl)(Cl)Br,le15
7262,"Cyclohexasiloxane, dodecamethyl-",397.55,1,C[Si]1(C)O[Si](C)(C)O[Si](C)(C)O[Si](C)(C)O[Si](C)(C)O[Si](C)(C)O1,le15
7263,"1H-Imidazole, 2,4,5-triiodo- (9CI)",504.65,1,Ic1nc(I)c(I)[nH]1,le15
7264,"1,1,1,2,2,3,3,4,4,5,5,6,6-tridecafluoro-6-iodohexane",318.15,1,FC(F)(F)C(F)(F)C(F)(F)C(F)(F)C(F)(F)C(F)(F)I,le15
7265,"1,2-Benzenedicarboxylic acid, didecyl ester",516.85,1,CCCCCCCCCCOC(=O)c1ccccc1C(=O)OCCCCCCCCCC,le15
7266,"Hexasulfide, bis(1-piperidinylthioxomethyl)",576.75,1,S=C(SSSSSSC(=S)N1CCCCC1)N1CCCCC1,le15
7267,"1-bromo-1,1,2,2,3,3,4,4,5,5,6,6,7,7,7-pentadecafluoroheptane",300.65,1,FC(F)(F)C(F)(F)C(F)(F)C(F)(F)C(F)(F)C(F)(F)C(F)(F)Br,le15
7268,dotriacontane,597.05,1,CCCCCCCCCCCCCCCCCCCCCCCCCCCCCCCC,le15
7269,"1,1,2,2,3,3,4,4-octafluoro-1,4-diiodobutane",329.05,1,FC(F)(I)C(F)(F)C(F)(F)C(F)(F)I,le15
7270,"Benzamide, N,N'-(dithiodi-2,1-phenylene)bis-",523.15,1,O=C(Nc1ccccc1SSc1ccccc1NC(=O)c1ccccc1)c1ccccc1,le15
7271,"1,3-Benzodioxole, 5-(bis(2-(2-butoxyethoxy)ethoxy)methyl)- (9CI)",470.75,1,CCCCOCCOCCOC(OCCOCCOCCCC)c1ccc2c(c1)OCO2,le15
7272,"Dibenzo-p-dioxin, 1,2,3,4,6,7,8,9-octachloro-",468.85,1,Clc1c(Cl)c(Cl)c2c(c1Cl)Oc1c(Cl)c(Cl)c(Cl)c(Cl)c1O2,le15
7273,"1,6-Dibromo-1,1,2,2,3,3,4,4,5,5,6,6-dodecafluorohexane",319.55,1,FC(F)(Br)C(F)(F)C(F)(F)C(F)(F)C(F)(F)C(F)(F)Br,le15
7274,2-[2-[2-(2-hydroxyethoxy)ethoxy]ethoxy]ethyl octadecanoate,436.15,1,CCCCCCCCCCCCCCCCCC(=O)OCCOCCOCCOCCO,le15
7275,"1,1,2,2,3,3,4,4,4a,5,5,6,6,7,7,8,8,8a-octadecafluoronaphthalene",319.55,1,FC1(F)C(F)(F)C(F)(F)C2(F)C(F)(F)C(F)(F)C(F)(F)C(F)(F)C2(F)C1(F)F,le15
7276,"1,3-Isobenzofurandione, 4,5,6,7-tetrabromo-",553.85,1,O=C1OC(=O)c2c(Br)c(Br)c(Br)c(Br)c21,le15
7277,"Cyclotrisiloxane, 2,4,6-trimethyl-2,4,6-tris(3,3,3-trifluoropropyl)-",380.25,1,C[Si]1(CCC(F)(F)F)O[Si](C)(CCC(F)(F)F)O[Si](C)(CCC(F)(F)F)O1,le15
7278,"Phenol, 2,4,6-triiodo-",418.25,1,Oc1c(I)cc(I)cc1I,le15
7279,"Piperazine, 1,4-bis(3,4,5-trimethoxybenzoyl)-",636.85,1,COc1cc(C(=O)N2CCN(C(=O)c3cc(OC)c(OC)c(OC)c3)CC2)cc(OC)c1OC,le15
7280,"Anthra(2,1-d:6,5-d')bisthiazole-6,12-dione, 2,8-diphenyl-",666.75,1,O=C1c2ccc3nc(-c4ccccc4)sc3c2C(=O)c2ccc3nc(-c4ccccc4)sc3c21,le15
7281,tetratriacontane,618.45,1,CCCCCCCCCCCCCCCCCCCCCCCCCCCCCCCCCC,le15
7282,"Phosphonic acid, ((ethylthio)methylidyne)tris-, hexaethyl ester",538.45,1,CCOP(=O)(OCC)C(SCC)(P(=O)(OCC)OCC)P(=O)(OCC)OCC,le15
7283,"Benzene, 1,2,3,4,5-pentabromo-6-methyl-",459.65,1,Cc1c(Br)c(Br)c(Br)c(Br)c1Br,le15
7284,"Leucine, N-(N-acetyl-3-(p-(bis(2-chloroethyl)amino)phenyl)-DL-alanyl)-",642.25,1,CC(=O)NC(Cc1ccc(N(CCCl)CCCl)cc1)C(=O)N[C@@H](CC(C)C)C(=O)O,le15
7285,"Phenol, pentabromo-",440.05,1,Oc1c(Br)c(Br)c(Br)c(Br)c1Br,le15
7286,"1,1,1,2,2,3,3,4,4,5,5,6,6,7,7-pentadecafluoro-7-iodoheptane",330.25,1,FC(F)(F)C(F)(F)C(F)(F)C(F)(F)C(F)(F)C(F)(F)C(F)(F)I,le15
7287,"1-bromo-1,1,2,2,3,3,4,4,5,5,6,6,7,7,8,8,8-heptadecafluorooctane",314.05,1,FC(F)(F)C(F)(F)C(F)(F)C(F)(F)C(F)(F)C(F)(F)C(F)(F)C(F)(F)Br,le15
7288,"Benzoic acid, 2,3,5-triiodo-",503.15,1,O=C(O)c1cc(I)cc(I)c1I,le15
7289,"Phenarsazine, 10,10'-oxydi-",517.05,1,c1ccc2c(c1)Nc1ccccc1[As]2O[As]1c2ccccc2Nc2ccccc21,le15
7290,"Benzimidazole, 4,5,6,7-tetrabromo-2-(trifluoromethyl)-",511.95,1,FC(F)(F)c1nc2c(Br)c(Br)c(Br)c(Br)c2[nH]1,le15
7291,"10H-Phenoxarsine, 10,10'-oxybis- (9CI)",487.25,1,c1ccc2c(c1)Oc1ccccc1[As]2O[As]1c2ccccc2Oc2ccccc21,le15
7292,"triheptyl benzene-1,2,4-tricarboxylate",504.85,1,CCCCCCCOC(=O)c1ccc(C(=O)OCCCCCCC)c(C(=O)OCCCCCCC)c1,le15
7293,"Hexadecanoic acid, octadecyl ester",556.75,1,CCCCCCCCCCCCCCCCCCOC(=O)CCCCCCCCCCCCCCC,le15
7294,"5,9,14,18-Anthrazinetetrone, 7,16-dichloro-6,15-dihydro-",703.75,1,O=c1c2ccccc2c(=O)c2c1cc(Cl)c1[nH]c3c([nH]c12)c(Cl)cc1c(=O)c2ccccc2c(=O)c13,le15
7295,"Decanoic acid, nonadecafluoro-",355.85,1,O=C(O)C(F)(F)C(F)(F)C(F)(F)C(F)(F)C(F)(F)C(F)(F)C(F)(F)C(F)(F)C(F)(F)F,le15
7296,"Propanoic acid, 3,3'-thiobis-, didodecyl ester",537.95,1,CCCCCCCCCCCCOC(=O)CCSCCC(=O)OCCCCCCCCCCCC,le15
7297,"1,2-Benzenedicarboxylic acid, ditridecyl ester",547.35,1,CCCCCCCCCCCCCOC(=O)c1ccccc1C(=O)OCCCCCCCCCCCCC,le15
7298,"Lycopene, all-trans- (8CI)",623.85,1,CC(C)=CCC/C(C)=C/C=C/C(C)=C/C=C/C(C)=C/C=C/C=C(C)/C=C/C=C(C)/C=C/C=C(\C)CCC=C(C)C,le15
7299,"beta-Carotene, all-trans-",619.15,1,CC1=C(/C=C/C(C)=C/C=C/C(C)=C/C=C/C=C(C)/C=C/C=C(C)/C=C/C2=C(C)CCCC2(C)C)C(C)(C)CCC1,le15
7300,"1,1,1,2,2,3,3,4,4,5,5,6,6,7,7,8,8,9,9,10,10,10-docosafluorodecane",328.65,1,FC(F)(F)C(F)(F)C(F)(F)C(F)(F)C(F)(F)C(F)(F)C(F)(F)C(F)(F)C(F)(F)C(F)(F)F,le15
7301,"Phenol, 4,4'-isopropylidenebis(2,6-dibromo- (8CI)",479.75,1,CC(C)(c1cc(Br)c(O)c(Br)c1)c1cc(Br)c(O)c(Br)c1,le15
7302,"1,2,4-Benzenetricarboxylic acid, 1,2,4-tris(2-ethylhexyl) ester",511.45,1,CCCCC(CC)COC(=O)c1ccc(C(=O)OCC(CC)CCCC)c(C(=O)OCC(CC)CCCC)c1,le15
7303,"Benzene, 1,2,3,4,5,6-hexabromo-",472.75,1,Brc1c(Br)c(Br)c(Br)c(Br)c1Br,le15
7304,"beta,beta-Carotene-4,4'-dione (9CI)",527.05,1,CC1=C(/C=C/C(C)=C/C=C/C(C)=C/C=C/C=C(C)/C=C/C=C(C)/C=C/C2=C(C)C(=O)CCC2(C)C)C(C)(C)CCC1=O,le15
7305,"Benzenepropanoic acid, 3-amino-alpha-ethyl-2,4,6-triiodo-",546.95,1,CCC(Cc1c(I)cc(I)c(N)c1I)C(=O)O,le15
7306,"Hydrocinnamic acid, alpha-ethyl-3-hydroxy-2,4,6-triiodo-",504.55,1,CCC(Cc1c(I)cc(I)c(O)c1I)C(=O)O,le15
7307,"Octadecanamide, N,N'-ethylenebis- (8CI)",373.85,1,CCCCCCCCCCCCCCCCCC(=O)NCCNC(=O)CCCCCCCCCCCCCCCCC,le15
7308,"1,1,1,2,2,3,3,4,4,5,5,6,6,7,7,8,8,9,9-nonadecafluoro-9-iodononane",352.85,1,FC(F)(F)C(F)(F)C(F)(F)C(F)(F)C(F)(F)C(F)(F)C(F)(F)C(F)(F)C(F)(F)I,le15
7309,"Benzoic acid, 3,5-bis(acetylamino)-2,4,6-triiodo-",598.35,1,CC(=O)Nc1c(I)c(NC(C)=O)c(I)c(C(=O)O)c1I,le15
7310,"Benzoic acid, 3-(acetylamino)-2,4,6-triiodo-5-((methylamino)carbonyl)-",541.55,1,CNC(=O)c1c(I)c(NC(C)=O)c(I)c(C(=O)O)c1I,le15
7311,tetratetracontane,721.35,1,CCCCCCCCCCCCCCCCCCCCCCCCCCCCCCCCCCCCCCCCCCCC,le15
7312,[2-hydroxy-3-[(Z)-octadec-9-enoyl]oxypropyl] (Z)-octadec-9-enoate,462.35,1,CCCCCCCC/C=C\CCCCCCCC(=O)OCC(O)COC(=O)CCCCCCC/C=C\CCCCCCCC,le15
7313,"Benzoic acid, 3-(acetylamino)-5-(acetylmethylamino)-2,4,6-triiodo-",637.45,1,CC(=O)CNc1c(I)c(NC(C)=O)c(I)c(C(=O)O)c1I,le15
7314,"Benzoic acid, 4-(4-acetyl-3-iodophenoxy)-3,5-diiodo-",572.75,1,CC(=O)c1ccc(Oc2c(I)cc(C(=O)O)cc2I)cc1I,le15
7315,"Cholesterol, (p-(bis(2-chloroethyl)amino)phenyl)acetate (8CI)",642.35,1,CC(C)CCC[C@@H](C)[C@H]1CC[C@H]2[C@@H]3CC=C4C[C@@H](OC(=O)Cc5ccc(N(CCCl)CCCl)cc5)CC[C@]4(C)[C@H]3CC[C@@]21C,le15
7316,Bis(perfluorohexyl)ether,345.95,1,FC(F)(F)C(F)(F)C(F)(F)C(F)(F)C(F)(F)C(F)(F)OC(F)(F)C(F)(F)C(F)(F)C(F)(F)C(F)(F)C(F)(F)F,le15
7317,"1-Butanamine, 1,1,2,2,3,3,4,4,4-nonafluoro-N,N-bis(nonafluorobutyl)-",337.25,1,FC(F)(F)C(F)(F)C(F)(F)C(F)(F)N(C(F)(F)C(F)(F)C(F)(F)C(F)(F)F)C(F)(F)C(F)(F)C(F)(F)C(F)(F)F,le15
7318,"alpha-D-Glucopyranoside, 1,3,4,6-tetra-O-acetyl-beta-D-fructofuranosyl",548.15,1,CC(=O)OC[C@H]1O[C@@](COC(C)=O)(O[C@H]2O[C@H](CO)[C@@H](O)[C@H](O)[C@H]2O)[C@@H](OC(C)=O)[C@@H]1OC(C)=O,le15
7319,"Propanoic acid, 3,3'-thiobis-, dioctadecyl ester",596.85,1,CCCCCCCCCCCCCCCCCCOC(=O)CCSCCC(=O)OCCCCCCCCCCCCCCCCCC,le15
7320,"1-Propanol, 2,3-dibromo-, phosphate (3:1)",556.05,1,O=P(O)(O)O.OCC(Br)CBr.OCC(Br)CBr.OCC(Br)CBr,le15
7321,"2,3-di(tetradecanoyloxy)propyl tetradecanoate",544.05,1,CCCCCCCCCCCCCC(=O)OCC(COC(=O)CCCCCCCCCCCCC)OC(=O)CCCCCCCCCCCCC,le15
7322,"Cyclotetrasiloxane, octaphenyl-",473.15,1,c1ccc([Si]2(c3ccccc3)O[Si](c3ccccc3)(c3ccccc3)O[Si](c3ccccc3)(c3ccccc3)O[Si](c3ccccc3)(c3ccccc3)O2)cc1,le15
7323,"3,3-Bis(4-hydroxy-3,5-diiodophenyl)-1(3H)-isobenzofuranone",624.95,1,O=C1OC(c2cc(I)c(O)c(I)c2)(c2cc(I)c(O)c(I)c2)c2ccccc21,le15
7324,"2,3-bis[[(Z)-octadec-9-enoyl]oxy]propyl (Z)-octadec-9-enoate",575.75,1,CCCCCCCC/C=C\CCCCCCCC(=O)OCC(COC(=O)CCCCCCC/C=C\CCCCCCCC)OC(=O)CCCCCCC/C=C\CCCCCCCC,le15
7325,"Benzene, 1,1'-oxybis(2,3,4,5,6-pentabromo-",514.55,1,Brc1c(Br)c(Br)c(Oc2c(Br)c(Br)c(Br)c(Br)c2Br)c(Br)c1Br,le15
7326,"1,1bicyclohexyl",347.15,1,C1CCC(C2CCCCC2)CC1,le15
7327,"1,1dichloroethane",267.0,1,CC(Cl)Cl,le15
7328,"1,1dichloroethylene",248.0,1,C=C(Cl)Cl,le15
7329,"1,1dichloropropane",280.0,1,CCC(Cl)Cl,le15
7330,"1,1diethoxyethane",252.0,1,CCOC(C)OCC,le15
7331,"1,1dimethoxyethane",256.0,1,COC(C)OC,le15
7332,"1,1dimethyl1sila2oxacyclohexane",287.15,1,C[Si]1(C)CCCCO1,le15
7333,"1,2butanediol",366.0,1,CCC(O)CO,le15
7334,"1,2cyclohexanedione",357.0,1,O=C1CCCCC1=O,le15
7335,"1,2dibromoethyltrichlorosilane",338.15,1,Cl[Si](Cl)(Cl)C(Br)CBr,le15
7336,"1,2dichlorobenzene",340.0,1,Clc1ccccc1Cl,le15
7337,"1,2dichlorobutane",299.0,1,CCC(Cl)CCl,le15
7338,"1,2dichloroethane",286.0,1,ClCCCl,le15
7339,"1,2dichloropropane",289.0,1,CC(Cl)CCl,le15
7340,"1,2diethoxyethane",308.15,1,CCOCCOCC,le15
7341,"1,2diethylBenzene",330.15,1,CCc1ccccc1CC,le15
7342,"1,2dimethoxyethane",271.45,1,COCCOC,le15
7343,"1,2dimethyl3propylBenzene",345.15,1,CCCc1cccc(C)c1C,le15
7344,"1,2dimethylbenzene",305.0,1,Cc1ccccc1C,le15
7345,"1,2dimethylcyclohexane",288.0,1,CC1CCCCC1C,le15
7346,"1,2ethanediamine",307.0,1,NCCN,le15
7347,"1,2ethanediol",384.0,1,OCCO,le15
7348,"1,2ethanedithiol",323.0,1,SCCS,le15
7349,"1,2hexadiene-",253.15,1,C=C=CCCC,le15
7350,"1,2pentadiene-",233.15,1,C=C=CCC,le15
7351,"1,2propadiene",172.0,1,C=C=C,le15
7352,"1,2propanediamine",306.0,1,CC(N)CN,le15
7353,"1,2propanediol",380.0,1,CC(O)CO,le15
7354,"1,3butadiene",197.0,1,C=CC=C,le15
7355,"1,3butanediol",394.0,1,CC(O)CCO,le15
7356,"1,3cyclohexadiene",299.0,1,C1=CCCC=C1,le15
7357,"1,3cyclopentadiene",298.0,1,C1=CCC=C1,le15
7358,"1,3dibromoBenzene",366.15,1,Brc1cccc(Br)c1,le15
7359,"1,3dichloro2butene",300.15,1,CC(Cl)=CCCl,le15
7360,"1,3dichloro2propanol",358.15,1,OC(CCl)CCl,le15
7361,"1,3dichloroBenzene",345.15,1,Clc1cccc(Cl)c1,le15
7362,"1,3dichloropropane",293.0,1,ClCCCCl,le15
7363,"1,3dichloroTetramethylDisiloxane",288.15,1,C[Si](C)(Cl)O[Si](C)(C)Cl,le15
7364,"1,3diethenylBenzene",338.15,1,C=Cc1cccc(C=C)c1,le15
7365,"1,3diethylBenzene",329.15,1,CCc1cccc(CC)c1,le15
7366,"1,3diisopropylbenzene",349.0,1,CC(C)c1cccc(C(C)C)c1,le15
7367,"1,3dimethylBenzene",298.15,1,Cc1cccc(C)c1,le15
7368,"1,3dimethylbutylamine",285.95,1,CC(C)CC(C)N,le15
7369,"1,3dimethylcyclohexane",278.0,1,CC1CCCC(C)C1,le15
7370,"1,3dioxane",274.15,1,C1COCOC1,le15
7371,"1,3dioxolane",275.0,1,C1COCO1,le15
7372,"1,3divinylTetramethylDisilazane",307.15,1,C=C[Si](C)(C)N[Si](C)(C)C=C,le15
7373,"1,3pentadiene-",231.15,1,C=CC=CC,le15
7374,"1,3propanediamine",321.0,1,NCCCN,le15
7375,"1,3propanediol",404.0,1,OCCCO,le15
7376,"1,4butanediol",394.25,1,OCCCCO,le15
7377,"1,4cyclohexadiene",267.0,1,C1=CCC=CC1,le15
7378,"1,4dichloro2butene",326.15,1,ClCC=CCCl,le15
7379,"1,4dichlorobenzene",339.15,1,Clc1ccc(Cl)cc1,le15
7380,"1,4dichlorobutane",313.0,1,ClCCCCCl,le15
7381,"1,4dicyanobutane",432.0,1,N#CCCCCC#N,le15
7382,"1,4diethylbenzene",329.0,1,CCc1ccc(CC)cc1,le15
7383,"1,4diisopropylbenzene",349.0,1,CC(C)c1ccc(C(C)C)cc1,le15