,compound,flashpoint,pure substance,smiles,source
10046,"1,2-Propanediol, 3-(2-methylphenoxy)-, 1-carbamate (9CI)",505.95,1.0,Cc1ccccc1OCC(O)COC(N)=O,le15
10047,"1H-Purin-6-amine, N-(phenylmethyl)-",547.15,1.0,c1ccc(CNc2[nH]cnc3ncnc2-3)cc1,le15
10048,"9H-Purin-6-amine, 9-(phenylmethyl)- (9CI)",522.15,1.0,Nc1ncnc2c1ncn2Cc1ccccc1,le15
10049,"Benzenamine, 4-(2-(4-methoxyphenyl)ethenyl)-",488.55,1.0,COc1ccc(C=Cc2ccc(N)cc2)cc1,le15
10050,"Benzenamine, N,N-dimethyl-4-(phenylazo)-",451.35,1.0,CN(C)c1ccc(N=Nc2ccccc2)cc1,le15
10051,"1-Triazene, 1-(1,1'-biphenyl)-4-yl-3,3-dimethyl- (9CI)",433.65,1.0,CN(C)N=Nc1ccc(-c2ccccc2)cc1,le15
10052,"1,3,5-Triazine-2,4-diamine, 6-methoxy-N,N'-bis(1-methylethyl)-",444.05,1.0,COc1nc(NC(C)C)nc(NC(C)C)n1,le15
10053,"Phenol, 3,5-dimethyl-4-(methylthio)-, methylcarbamate (9CI)",414.85,1.0,CNC(=O)Oc1cc(C)c(SC)c(C)c1,le15
10054,"Benzenemethanamine, alpha-methyl-N-(1-phenylethyl)- (9CI)",410.35,1.0,CC(NC(C)c1ccccc1)c1ccccc1,le15
10055,"Benzoic acid, 2,3,6-trichloro-",423.25,1.0,O=C(O)c1c(Cl)ccc(Cl)c1Cl,le15
10056,"5-Chloro-alpha,alpha,alpha-trifluoro-2-nitrotoluene",367.05,1.0,O=[N+]([O-])c1ccc(Cl)cc1C(F)(F)F,le15
10057,"Toluene, 4-chloro-alpha,alpha,alpha-trifluoro-3-nitro- (8CI)",374.817,1.0,O=[N+]([O-])c1cc(C(F)(F)F)ccc1Cl,le15
10058,1-chloro-4-nitro-2-(trifluoromethyl)benzene,371.15,1.0,O=[N+]([O-])c1ccc(Cl)c(C(F)(F)F)c1,le15
10059,"Acetamide, 2-chloro-N-(2,6-diethylphenyl)-",450.25,1.0,CCc1cccc(CC)c1NC(=O)CCl,le15
10060,"Imidazole, 4,5-dibromo- (7CI,8CI)",461.95,1.0,Brc1nc[nH]c1Br,le15
10061,"1-bromo-2,4-dichlorobenzene",379.85,1.0,Clc1ccc(Br)c(Cl)c1,le15
10062,"2-bromo-1,3-dichlorobenzene",384.45,1.0,Clc1cccc(Cl)c1Br,le15
10063,"1-bromo-3,5-dichlorobenzene",377.05,1.0,Clc1cc(Cl)cc(Br)c1,le15
10064,"1-bromo-2,3-dichlorobenzene",381.85,1.0,Clc1cccc(Br)c1Cl,le15
10065,"2-bromo-1,4-dichlorobenzene",379.55,1.0,Clc1ccc(Cl)c(Br)c1,le15
10066,"4-bromo-1,2-dichlorobenzene",377.25,1.0,Clc1ccc(Br)cc1Cl,le15
10067,"Phenol, 2-(1-methylethyl)-4,6-dinitro- (9CI)",400.65,1.0,CC(C)c1cc([N+](=O)[O-])cc([N+](=O)[O-])c1O,le15
10068,"Tyrosine, 3-nitro-, L- (8CI)",487.95,1.0,N[C@@H](Cc1ccc(O)c([N+](=O)[O-])c1)C(=O)O,le15
10069,benzoyl benzoate,441.55,1.0,O=C(OC(=O)c1ccccc1)c1ccccc1,le15
10070,"9(10H)-Anthracenone, 1,8-dihydroxy- (9CI)",521.75,1.0,O=C1c2c(O)cccc2Cc2cccc(O)c21,le15
10071,"methyl 3,4,5-trimethoxybenzoate",388.35,1.0,COC(=O)c1cc(OC)c(OC)c(OC)c1,le15
10072,"9H-Fluoren-2-amine, 7-nitro- (9CI)",504.15,1.0,Nc1ccc2c(c1)Cc1cc([N+](=O)[O-])ccc1-2,le15
10073,"2-Propen-1-one, 1-(4-fluorophenyl)-3-phenyl- (9CI)",433.45,1.0,O=C(C=Cc1ccccc1)c1ccc(F)cc1,le15
10074,"2-Propen-1-one, 3-(4-fluorophenyl)-1-phenyl- (9CI)",430.45,1.0,O=C(C=Cc1ccc(F)cc1)c1ccccc1,le15
10075,"Benzoic acid, 2-phenylethyl ester",433.85,1.0,O=C(OCCc1ccccc1)c1ccccc1,le15
10076,"Acetic acid, phenyl-, p-tolyl ester (6CI,7CI,8CI)",395.45,1.0,Cc1ccc(OC(=O)Cc2ccccc2)cc1,le15
10077,"Benzeneacetic acid, phenylmethyl ester",528.45,1.0,O=C(Cc1ccccc1)OCc1ccccc1,le15
10078,"Propane, 1-(2-biphenylyloxy)-2,3-epoxy- (6CI,7CI,8CI)",410.45,1.0,c1ccc(-c2ccccc2OCC2CO2)cc1,le15
10079,"Propane, 1-(4-biphenyloxy)-2,3-epoxy- (7CI,8CI)",430.75,1.0,c1ccc(-c2ccc(OCC3CO3)cc2)cc1,le15
10080,"1-Propanone, 2-methyl-1,2-di-3-pyridinyl-",462.45,1.0,CC(C)(C(=O)c1cccnc1)c1cccnc1,le15
10081,"Acetamide, N-(4'-amino(1,1'-biphenyl)-4-yl)- (9CI)",508.45,1.0,CC(=O)Nc1ccc(-c2ccc(N)cc2)cc1,le15
10082,"Benzenemethanamide, N-nitroso-N-(phenylmethyl)- (9CI)",481.55,1.0,O=NN(Cc1ccccc1)C(=O)c1ccccc1,le15
10083,"Phosphorothioic acid, S-tert-butyl O,O-diethyl ester",383.35,1.0,CCOP(=O)(OCC)SC(C)(C)C,le15
10084,"1,4-Benzenediamine, N-(1-methylethyl)-N'-phenyl-",504.05,1.0,CC(C)Nc1ccc(Nc2ccccc2)cc1,le15
10085,"o-Toluidine, 4,4'-methylenedi- (8CI)",512.05,1.0,Cc1cc(Cc2ccc(N)c(C)c2)ccc1N,le15
10086,"2-Propenoic acid, 2-methyl-, decyl ester",387.85,1.0,C=C(C)C(=O)OCCCCCCCCCC,le15
10087,"Benzene, 1,2,4-trichloro-5-nitro-",402.85,1.0,O=[N+]([O-])c1cc(Cl)c(Cl)cc1Cl,le15
10088,pentadecan-8-one,356.25,1.0,CCCCCCCC(=O)CCCCCCC,le15
10089,pentadecan-2-one,357.04999999999984,1.0,CCCCCCCCCCCCCC(C)=O,le15
10090,"Nonane, 2,2,4,4,6,8,8-heptamethyl-",368.75,1.0,CC(CC(C)(C)C)CC(C)(C)CC(C)(C)C,le15
10091,"2,2,4,4,6,6,8-heptamethylnonane",383.35,1.0,CC(C)CC(C)(C)CC(C)(C)CC(C)(C)C,le15
10092,"1,4-Cyclohexadiene-1,2-dicarbonitrile, 4,5-dichloro-3,6-dioxo-",409.45,1.0,N#CC1=C(C#N)C(=O)C(Cl)=C(Cl)C1=O,le15
10093,"1,4-Naphthalenedione, 2,3-dichloro-",400.65,1.0,O=C1C(Cl)=C(Cl)C(=O)c2ccccc21,le15
10094,"1,2,3-Propanetriol, trinitrate",285.15,1.0,O=[N+]([O-])OCC(CO[N+](=O)[O-])O[N+](=O)[O-],le15
10095,"Benzene, 2-methyl-1,3,5-trinitro-",440.25,1.0,Cc1c([N+](=O)[O-])cc([N+](=O)[O-])cc1[N+](=O)[O-],le15
10096,"1-methyl-2,3,4-trinitrobenzene",504.65,1.0,Cc1ccc([N+](=O)[O-])c([N+](=O)[O-])c1[N+](=O)[O-],le15
10097,"Diazene, (4-nitrophenyl)phenyl- (9CI)",464.55,1.0,O=[N+]([O-])c1ccc(N=Nc2ccccc2)cc1,le15
10098,"Benzeneacetamide, alpha-hydroxy-alpha-phenyl- (9CI)",489.75,1.0,NC(=O)C(O)(c1ccccc1)c1ccccc1,le15
10099,N-(4-Phenoxyphenyl)acetamide,475.35,1.0,CC(=O)Nc1ccc(Oc2ccccc2)cc1,le15
10100,"Benzenamine, 2-methoxy-4-(phenylazo)- (9CI)",468.15,1.0,COc1cc(N=Nc2ccccc2)ccc1N,le15
10101,"Benzenamine, 4-(1-methylethoxy)-N-phenyl-",420.55,1.0,CC(C)Oc1ccc(Nc2ccccc2)cc1,le15
10102,"1,3,5-Triazine-2,4-diamine, N-ethyl-N'-(1-methylethyl)-6-(methylthio)-",466.65,1.0,CCNc1nc(NC(C)C)nc(SC)n1,le15
10103,"Phenol, 2,3,4-trichloro-6-methoxy-",403.05,1.0,COc1cc(Cl)c(Cl)c(Cl)c1O,le15
10104,"1-Pentanamine, N,N-dipentyl-",370.95,1.0,CCCCCN(CCCCC)CCCCC,le15
10105,"3-methyl-N,N-bis(3-methylbutyl)butan-1-amine",357.25,1.0,CC(C)CCN(CCC(C)C)CCC(C)C,le15
10106,1-Pentadecanamine,402.45,1.0,CCCCCCCCCCCCCCCN,le15
10107,"Benzonitrile, 4-chloro-3,5-dinitro-",424.35,1.0,N#Cc1cc([N+](=O)[O-])c(Cl)c([N+](=O)[O-])c1,le15
10108,"Phenol, 2-chloro-3-(1-methylethyl)-, methylcarbamate (9CI)",401.75,1.0,CNC(=O)Oc1cccc(C(C)C)c1Cl,le15
10109,"Benzene, (2-bromo-2-nitroethenyl)-",399.35,1.0,O=[N+]([O-])C(Br)=Cc1ccccc1,le15
10110,"8-Quinolinol, 5,7-dichloro-2-methyl-",439.05,1.0,Cc1ccc2c(Cl)cc(Cl)c(O)c2n1,le15
10111,2-Bromo-N-(4-methylphenyl)acetamide,441.85,1.0,Cc1ccc(NC(=O)CBr)cc1,le15
10112,"1-Triazene, 1-(4-bromophenyl)-3,3-dimethyl- (9CI)",385.25,1.0,CN(C)N=Nc1ccc(Br)cc1,le15
10113,"Benzoic acid, 2-hydroxy-3,5-dinitro-",446.95,1.0,O=C(O)c1cc([N+](=O)[O-])cc([N+](=O)[O-])c1O,le15
10114,"4-bromo-N,N-diethylaniline",398.25,1.0,CCN(CC)c1ccc(Br)cc1,le15
10115,"Benzeneacetic acid, alpha-hydroxy-alpha-phenyl-",488.45,1.0,O=C(O)C(O)(c1ccccc1)c1ccccc1,le15
10116,"Benzoic acid, 2-hydroxy-, phenylmethyl ester",410.15,1.0,O=C(OCc1ccccc1)c1ccccc1O,le15
10117,"Methanone, (2-hydroxy-4-methoxyphenyl)phenyl-",413.65,1.0,COc1ccc(C(=O)c2ccccc2)c(O)c1,le15
10118,"7H-Furo(3,2-g)(1)benzopyran-7-one, 2,5,9-trimethyl-",462.25,1.0,Cc1cc2cc3c(C)cc(=O)oc3c(C)c2o1,le15
10119,"Benzenamine, 4-methyl-N-(4-nitrophenyl)-",468.15,1.0,Cc1ccc(Nc2ccc([N+](=O)[O-])cc2)cc1,le15
10120,"Phosphine, diphenylpropyl-",423.65,1.0,PCCC(c1ccccc1)c1ccccc1,le15
10121,Triphenylene,482.25,1.0,c1ccc2c(c1)c1ccccc1c1ccccc21,le15
10122,Chrysene,482.25,1.0,c1ccc2c(c1)ccc1c3ccccc3ccc21,le15
10123,"Phenol, 4,4'-(1-methylethylidene)bis-",500.15,1.0,CC(C)(c1ccc(O)cc1)c1ccc(O)cc1,le15
10124,"Thiourea, N,N'-diphenyl-",437.85,1.0,S=C(Nc1ccccc1)Nc1ccccc1,le15
10125,"p-Toluenesulfonic acid, isobutyl ester",425.95,1.0,Cc1ccc(S(=O)(=O)OCC(C)C)cc1,le15
10126,"Benzenesulfonamide, 4-amino-N,N-diethyl-",454.25,1.0,CCN(CC)S(=O)(=O)c1ccc(N)cc1,le15
10127,"Phosphorodithioic acid, O-methyl S,S-dipropyl ester",404.45,1.0,CCCSP(=O)(OC)SCCC,le15
10128,"2,2-bis(ethylsulfonyl)propane",556.05,1.0,CCS(=O)(=O)C(C)(C)S(=O)(=O)CC,le15
10129,"Lauric acid, ethyl ester (8CI)",391.75,1.0,CCCCCCCCCCCC(=O)OCC,le15
10130,"Phosphonotrithioic acid, methyl-, dipropyl ester",409.45,1.0,CCCSP(C)(=S)SCCC,le15
10131,"Octanoic acid, hexyl ester",393.15,1.0,CCCCCCCC(=O)OCCCCCC,le15
10132,octyl hexanoate,393.15,1.0,CCCCCCCCOC(=O)CCCCC,le15
10133,pentadecan-1-ol,403.25,1.0,CCCCCCCCCCCCCCCO,le15
10134,pentadecan-2-ol,382.15,1.0,CCCCCCCCCCCCCC(C)O,le15
10135,"Butanoic acid, 4-(4-chloro-2-methylphenoxy)- (9CI)",464.65,1.0,Cc1cc(Cl)ccc1OCCCC(=O)O,le15
10136,"Acetic acid, bromo-, phenylmethyl ester",389.65,1.0,O=C(CBr)OCc1ccccc1,le15
10137,"Benzoic acid, p-bromo-, ethyl ester (8CI)",386.15,1.0,CCOC(=O)c1ccc(Br)cc1,le15
10138,ethyl 2-bromobenzoate,383.25,1.0,CCOC(=O)c1ccccc1Br,le15
10139,"2-(3-bromophenyl)-1,3-dioxolane",386.15,1.0,Brc1cccc(C2OCCO2)c1,le15
10140,ethyl 3-bromobenzoate,385.15,1.0,CCOC(=O)c1cccc(Br)c1,le15
10141,"Phenol, 2,4,6-trinitro-",407.05,1.0,O=[N+]([O-])c1cc([N+](=O)[O-])c(O)c([N+](=O)[O-])c1,le15
10142,"Salicylic acid, 4-amino-, phenyl ester (8CI)",472.75,1.0,Nc1ccc(C(=O)Oc2ccccc2)c(O)c1,le15
10143,"Furo(2,3-b)quinoline, 4,7-dimethoxy-",457.35,1.0,COc1ccc2c(OC)c3ccoc3nc2c1,le15
10144,"Furo(2,3-b)quinoline, 4,8-dimethoxy-",457.35,1.0,COc1c2ccoc2nc2c(OC)cccc12,le15
10145,"Benzamide, 2-hydroxy-N-(4-hydroxyphenyl)- (9CI)",439.05,1.0,O=C(Nc1ccc(O)cc1)c1ccccc1O,le15
10146,"Benzidine, 2-nitro-",486.85,1.0,Nc1ccc(-c2ccc(N)cc2[N+](=O)[O-])cc1,le15
10147,"Acetamide, N-(4'-fluoro(1,1'-biphenyl)-4-yl)- (9CI)",478.65,1.0,CC(=O)Nc1ccc(-c2ccc(F)cc2)cc1,le15
10148,"Acetanilide, 2-fluoro-4'-phenyl-",486.25,1.0,O=C(CF)Nc1ccc(-c2ccccc2)cc1,le15
10149,"Naphtho(1,2-h)quinoline",476.35,1.0,c1ccc2c(c1)ccc1c2ccc2cccnc21,le15
10150,"Naphtho(2,3-h)quinoline",476.35,1.0,c1ccc2cc3c(ccc4cccnc43)cc2c1,le15
10151,"Naphth(2,1-f)isoquinoline",486.35,1.0,c1ccc2c(c1)ccc1c3ccncc3ccc21,le15
10152,"Naphtho(2,1-f)quinoline",476.35,1.0,c1ccc2c(c1)ccc1c3cccnc3ccc21,le15
10153,"Benzenamine, 4-methoxy-N-(4-methoxyphenyl)-",423.65,1.0,COc1ccc(Nc2ccc(OC)cc2)cc1,le15
10154,"2-Naphthalenemethanol, alpha-(((1-methylethyl)amino)methyl)-",357.45,1.0,CC(C)NCC(O)c1ccc2ccccc2c1,le15
10155,"Melamine, N2,N4,N6-trichloro- (8CI)",478.55,1.0,ClNc1nc(NCl)nc(NCl)n1,le15
10156,"Pyrazinecarboxamide, 3,5-diamino-N-(aminoiminomethyl)-6-chloro-",606.8499999999998,1.0,NN=CNC(=O)c1nc(Cl)c(N)nc1N,le15
10157,"Benzoxazole, 2-(p-chlorophenyl)-",421.95,1.0,Clc1ccc(-c2nc3ccccc3o2)cc1,le15
10158,"4-Stilbenamine, 4'-chloro-",467.15,1.0,Nc1ccc(C=Cc2ccc(Cl)cc2)cc1,le15
10159,"1,3,5-Triazine-2,4-diamine, 6-chloro-N,N'-bis(1-methylethyl)-",452.55,1.0,CC(C)Nc1nc(Cl)nc(NC(C)C)n1,le15
10160,"1,3,5-Triazine-2,4-diamine, 6-chloro-N,N,N'-triethyl-",453.25,1.0,CCNc1nc(Cl)nc(N(CC)CC)n1,le15
10161,"Ether, 2-fluoroethyl (1,2,2,2-tetrachloro)ethyl",363.65,1.0,FCCOC(Cl)C(Cl)(Cl)Cl,le15
10162,2-bromo-2-methylpropanoyl bromide,376.15,1.0,CC(C)(Br)C(=O)Br,le15
10163,1-chloro-3-(trichloromethyl)benzene,375.05,1.0,Clc1cccc(C(Cl)(Cl)Cl)c1,le15
10164,1-chloro-2-(trichloromethyl)benzene,371.45,1.0,Clc1ccccc1C(Cl)(Cl)Cl,le15
10165,"1,2,4-trichloro-5-(chloromethyl)benzene",400.95,1.0,ClCc1cc(Cl)c(Cl)cc1Cl,le15
10166,"1,2-dichloro-4-(dichloromethyl)benzene",397.15,1.0,Clc1ccc(C(Cl)Cl)cc1Cl,le15
10167,"2,3-dibromopentane",327.5499999999999,1.0,CCC(Br)C(C)Br,le15
10168,"Pentane, 1,5-dibromo-",367.85,1.0,BrCCCCCBr,le15
10169,"Cyclopropanecarboxanilide, 3',4'-dichloro-",470.45,1.0,O=C(Nc1ccc(Cl)c(Cl)c1)C1CC1,le15
10170,"1H-Imidazol-2-amine, N-(2,6-dichlorophenyl)-4,5-dihydro-",420.05,1.0,Clc1cccc(Cl)c1NC1=NCCN1,le15
10171,"Benzophenone, 2,3,4-trihydroxy- (8CI)",507.05,1.0,O=C(c1ccccc1)c1ccc(O)c(O)c1O,le15
10172,"5H-Furo(3,2-g)(1)benzopyran-5-one, 4-methoxy-7-methyl-",455.65,1.0,COc1c2ccoc2cc2oc(C)cc(=O)c12,le15
10173,"4-Biphenylacetic acid, 2'-fluoro-",457.85,1.0,O=C(O)Cc1ccc(-c2ccccc2F)cc1,le15
10174,7H-Benz(de)anthracen-7-one,469.25,1.0,O=C1c2ccccc2-c2cccc3cccc1c23,le15
10175,"Phosphorodithioic acid, S-hydroxymethyl O,O-dimethyl ester, acetate",383.05,1.0,CC(=O)O.COP(=S)(OC)SCO,le15
10176,1-Pyrene carboxaldehyde,567.75,1.0,O=Cc1ccc2ccc3cccc4ccc1c2c34,le15
10177,11H-Benzo(a)fluoren-11-one,467.05,1.0,O=C1c2ccccc2-c2ccc3ccccc3c21,le15
10178,"Dibenzo(c,f)(2,7)naphthyridine",486.05,1.0,c1ccc2c(c1)ncc1cnc3ccccc3c12,le15
10179,"Phosphonothioic acid, ethyl-, O-ethyl S-phenyl ester",416.65,1.0,CCOP(=O)(CC)Sc1ccccc1,le15
10180,"2-Propanone, 1,1,1,3,3-pentachloro-",347.54999999999984,1.0,O=C(C(Cl)Cl)C(Cl)(Cl)Cl,le15
10181,"1H-Pyrido(3,4-b)indole-3-carboxylic acid, 2,3,4,9-tetrahydro-1-methyl-",522.05,1.0,CC1NC(C(=O)O)Cc2c1[nH]c1ccccc21,le15
10182,"Heptanedioic acid, 4-oxo-, diethyl ester",410.55,1.0,CCOC(=O)CCC(=O)CCC(=O)OCC,le15
10183,"diethyl piperazine-1,4-dicarboxylate",417.45,1.0,CCOC(=O)N1CCN(C(=O)OCC)CC1,le15
10184,"1,1':2',1''-Terphenyl",386.15,1.0,c1ccc(-c2ccccc2-c2ccccc2)cc1,le15
10185,"1,1':3',1''-Terphenyl",464.15,1.0,c1ccc(-c2cccc(-c3ccccc3)c2)cc1,le15
10186,"1,1':4',1''-Terphenyl",480.15,1.0,c1ccc(-c2ccc(-c3ccccc3)cc2)cc1,le15
10187,"Butanedioic acid, dibutyl ester",417.15,1.0,CCCCOC(=O)CCC(=O)OCCCC,le15
10188,"3H-Pyrazol-3-one, 1,2-dihydro-1,5-dimethyl-4-(1-methylethyl)-2-phenyl-",396.95,1.0,Cc1c(C(C)C)c(=O)n(-c2ccccc2)n1C,le15
10189,dibutan-2-yl butanedioate,382.95,1.0,CCC(C)OC(=O)CCC(=O)OC(C)CC,le15
10190,Dodecanedioic acid,493.15,1.0,O=C(O)CCCCCCCCCCC(=O)O,le15
10191,bis(3-methylbutyl) oxalate,387.45,1.0,CC(C)CCOC(=O)C(=O)OCCC(C)C,le15
10192,diethyl 2-(3-methylbutyl)propanedioate,382.95,1.0,CCOC(=O)C(CCC(C)C)C(=O)OCC,le15
10193,"Sebacic acid, dimethyl ester (8CI)",418.15,1.0,COC(=O)CCCCCCCCC(=O)OC,le15
10194,"Decanedioic acid, dihydrazide",538.55,1.0,NNC(=O)CCCCCCCCC(=O)NN,le15
10195,"Phosphorotrithioic acid, O,S,S-triethyl ester",400.85,1.0,CCOP(=S)(SCC)SCC,le15
10196,1-heptylsulfanylheptane,422.05,1.0,CCCCCCCSCCCCCCC,le15
10197,"2,3,4,5,6-pentafluorobenzoyl chloride",322.85,1.0,O=C(Cl)c1c(F)c(F)c(F)c(F)c1F,le15
10198,"Benzoyl chloride, 3,5-dinitro-",431.95,1.0,O=C(Cl)c1cc([N+](=O)[O-])cc([N+](=O)[O-])c1,le15
10199,"2H-1,2,4-Benzothiadiazine, 7-chloro-3-methyl-, 1,1-dioxide",477.85,1.0,CC1=Nc2ccc(Cl)cc2S(=O)(=O)N1,le15
10200,"Pyridine, 2-chloro-6-(trichloromethyl)-",408.05,1.0,Clc1cccc(C(Cl)(Cl)Cl)n1,le15
10201,"Benzenamine, 2,3,5,6-tetrachloro- (9CI)",407.85,1.0,Nc1c(Cl)c(Cl)cc(Cl)c1Cl,le15
10202,2-(2-carbonochloridoyloxyethoxy)ethyl carbonochloridate,391.35,1.0,O=C(Cl)OCCOCCOC(=O)Cl,le15
10203,"Benzaldehyde, 3-bromo-4-hydroxy-5-methoxy-",402.05,1.0,COc1cc(C=O)cc(Br)c1O,le15
10204,"Ethane, 1,1'-oxybis(2-(2-chloroethoxy)- (9CI)",381.85,1.0,ClCCOCCOCCOCCCl,le15
10205,"Bicyclo(2.2.1)heptan-2-one, 3-bromo-1,7,7-trimethyl-",308.95,1.0,CC12CCC(C(Br)C1=O)C2(C)C,le15
10206,"Benzimidazole, 5-nitro-2-(trifluoromethyl)-",446.65,1.0,O=[N+]([O-])c1ccc2nc(C(F)(F)F)[nH]c2c1,le15
10207,"3-Isoxazolecarboxylic acid, 5-methyl-, 2-(phenylmethyl)hydrazide",465.55,1.0,Cc1cc(C(=O)NNCc2ccccc2)no1,le15
10208,"Benzeneethanamine, N-ethyl-alpha-methyl-3-(trifluoromethyl)- (9CI)",373.95,1.0,CCNC(C)Cc1cccc(C(F)(F)F)c1,le15
10209,"Pyridine, 2,6-diphenyl-",439.55,1.0,c1ccc(-c2cccc(-c3ccccc3)n2)cc1,le15
10210,"2H-1-Benzopyran-2-one, 7-(diethylamino)-4-methyl-",425.15,1.0,CCN(CC)c1ccc2c(C)cc(=O)oc2c1,le15
10211,"Benzenesulfonamide, 4-amino-N-(aminothioxomethyl)- (9CI)",503.55,1.0,NC(=S)NS(=O)(=O)c1ccc(N)cc1,le15
10212,"3H-Pyrazol-3-one, 4-(dimethylamino)-1,2-dihydro-1,5-dimethyl-2-phenyl-",399.05,1.0,Cc1c(N(C)C)c(=O)n(-c2ccccc2)n1C,le15
10213,"Butanenitrile, 4-(triethoxysilyl)-",388.85,1.0,CCO[Si](CCCC#N)(OCC)OCC,le15
10214,2-Amino-4'-chlorobenzophenone,480.85,1.0,Nc1ccccc1C(=O)c1ccc(Cl)cc1,le15
10215,"Phenol, 2,3,4,6-tetrachloro-",388.85,1.0,Oc1c(Cl)cc(Cl)c(Cl)c1Cl,le15
10216,"Phenol, 2,3,5,6-tetrachloro-",384.85,1.0,Oc1c(Cl)c(Cl)cc(Cl)c1Cl,le15
10217,"Phenol, 2,3,4,5-tetrachloro-",401.95,1.0,Oc1cc(Cl)c(Cl)c(Cl)c1Cl,le15
10218,"Acetamide, N-(4-bromophenyl)-2-fluoro- (9CI)",447.45,1.0,O=C(CF)Nc1ccc(Br)cc1,le15
10219,"2-iodo-1,3-dimethylbenzene",375.15,1.0,Cc1cccc(C)c1I,le15
10220,"2,2,3,3,4,4,5,5-octafluoropentan-1-ol",348.75,1.0,OCC(F)(F)C(F)(F)C(F)(F)C(F)F,le15
10221,"Benzenamine, N,N-bis(2-chloroethyl)-4-methyl- (9CI)",430.65,1.0,Cc1ccc(N(CCCl)CCCl)cc1,le15
10222,"Succinimide, 2-methylene-N-(m-nitrophenyl)-",479.35,1.0,C=C1CC(=O)N(c2cccc([N+](=O)[O-])c2)C1=O,le15
10223,"Urea, 1,1-dimethyl-3-(alpha,alpha,alpha-trifluoro-m-tolyl)-",423.15,1.0,CN(C)C(=O)Nc1cccc(C(F)(F)F)c1,le15
10224,"1,6-Pyrenequinone",450.95,1.0,O=c1ccc2ccc3c(=O)ccc4ccc1c2c43,le15
10225,"1,8-Pyrenequinone",450.95,1.0,O=c1ccc2ccc3ccc(=O)c4ccc1c2c34,le15
10226,"2,4,6(1H,3H,5H)-Pyrimidinetrione, 5-ethyl-5-phenyl-",284.15,1.0,CCC1(c2ccccc2)C(=O)NC(=O)NC1=O,le15
10227,"2,6-Piperidinedione, 3-(4-aminophenyl)-3-ethyl-",503.55,1.0,CCC1(c2ccc(N)cc2)CCC(=O)NC1=O,le15
10228,"Acetamide, N-(2-(5-methoxy-1H-indol-3-yl)ethyl)- (9CI)",537.15,1.0,COc1ccc2[nH]cc(CCNC(C)=O)c2c1,le15
10229,"Phosphonodithioic acid, ethyl-, O-methyl S-phenyl ester",413.05,1.0,CCP(=S)(OC)Sc1ccccc1,le15
10230,"Urea, N-(2-methylcyclohexyl)-N'-phenyl- (9CI)",394.65,1.0,CC1CCCCC1NC(=O)Nc1ccccc1,le15
10231,"Phosphorodithioic acid, O,O-dimethyl S-2-(methylthio)ethyl ester",397.05,1.0,COP(=S)(OC)SCCSC,le15
10232,"1,3,5-Triazine-2,4,6(1H,3H,5H)-trione, 1,3,5-trichloro-",498.15,1.0,O=c1n(Cl)c(=O)n(Cl)c(=O)n1Cl,le15
10233,ethenyl-tri(propan-2-yloxy)silane,359.75,1.0,C=C[Si](OC(C)C)(OC(C)C)OC(C)C,le15
10234,Undecylbenzene,417.0,1.0,CCCCCCCCCCCc1ccccc1,le15
10235,"1H,3H-Naphtho(1,8-cd)pyran-1,3-dione, 6-chloro-",481.45,1.0,O=C1OC(=O)c2ccc(Cl)c3cccc1c23,le15
10236,2biphenylyl2chloroethylether,433.15,1.0,ClC(COCC(Cl)c1ccccc1-c1ccccc1)c1ccccc1-c1ccccc1,le15
10237,1-chlorotetradecane,403.15,1.0,CCCCCCCCCCCCCCCl,le15
10238,"(E)-2,3-dichloro-1,1,1,4,4,4-hexafluorobut-2-ene",276.35,1.0,FC(F)(F)/C(Cl)=C(\Cl)C(F)(F)F,le15
10239,"Phosphonic acid, ethenyl-, bis(2-chloroethyl) ester",438.65,1.0,C=CP(=O)(OCCCl)OCCCl,le15
10240,"2,3,5,6-Tetrafluoro-4-aminobenzotrifluoride",341.0499999999999,1.0,Nc1c(F)c(F)c(C(F)(F)F)c(F)c1F,le15
10241,"5-bromo-1,2-dihydroacenaphthylene",435.45,1.0,Brc1ccc2c3c(cccc13)CC2,le15
10242,1-bromo-2-phenylbenzene,406.85,1.0,Brc1ccccc1-c1ccccc1,le15
10243,"1,1'-Biphenyl, 3-bromo-",408.75,1.0,Brc1cccc(-c2ccccc2)c1,le15
10244,"Urea, N'-(3,4-dichlorophenyl)-N,N-dimethyl-",459.85,1.0,CN(C)C(=O)Nc1ccc(Cl)c(Cl)c1,le15
10245,"1,2,4-Triazin-3-amine, 6-(2-(5-nitro-2-furanyl)ethenyl)- (9CI)",525.95,1.0,Nc1ncc(C=Cc2ccc([N+](=O)[O-])o2)nn1,le15
10246,"2,2':6',2''-Terpyridine",455.65,1.0,c1ccc(-c2cccc(-c3ccccn3)n2)nc1,le15
10247,"2-Piperidineacetic acid, alpha-phenyl-, methyl ester",425.15,1.0,COC(=O)C(c1ccccc1)C1CCCCN1,le15
10248,"Sulfanilyl chloride, N-acetyl- (6CI,7CI,8CI)",485.05,1.0,CC(=O)Nc1ccc(S(=O)(=O)Cl)cc1,le15
10249,1-iodo-2-methoxybenzene,371.65,1.0,COc1ccccc1I,le15
10250,"Benzenemethanol, 2-iodo-",401.35,1.0,OCc1ccccc1I,le15
10251,1-iodo-4-methoxybenzene,368.25,1.0,COc1ccc(I)cc1,le15
10252,"2,3,5,6-Tetrafluoro-4-(trifluoromethyl)phenol",326.15,1.0,Oc1c(F)c(F)c(C(F)(F)F)c(F)c1F,le15
10253,"Carbamic acid, N-methyl-, 3,4-dichlorobenzyl ester",439.35,1.0,CNC(=O)OCc1ccc(Cl)c(Cl)c1,le15
10254,"1,2,3,4-Butanetetracarboxylic acid",415.85,1.0,O=C(O)CC(C(=O)O)C(CC(=O)O)C(=O)O,le15
10255,"2-Benzothiazolamine, 6-(trifluoromethoxy)-",406.15,1.0,Nc1nc2ccc(OC(F)(F)F)cc2s1,le15
10256,"trimethyl 2-hydroxypropane-1,2,3-tricarboxylate",352.35,1.0,COC(=O)CC(O)(CC(=O)OC)C(=O)OC,le15
10257,"Ethanol, 2,2'-(1,2-ethanediylbis(oxy))bis-, diacetate",447.15,1.0,CC(=O)O.CC(=O)O.OCCOCCOCCO,le15
10258,"Tartaric acid, diisopropyl ester",382.55,1.0,CC(C)OC(=O)C(O)C(O)C(=O)OC(C)C,le15
10259,"Benzeneacetic acid, alpha-cyclohexyl-alpha-hydroxy- (9CI)",488.25,1.0,O=C(O)C(O)(c1ccccc1)C1CCCCC1,le15
10260,"Benzo(b)naphtho(1,2-d)thiophene",436.15,1.0,c1ccc2c(c1)ccc1sc3ccccc3c12,le15
10261,"Benzo(b)naphtho(2,1-d)thiophene (8CI)(9CI)",436.15,1.0,c1ccc2c(c1)ccc1c3ccccc3sc21,le15
10262,"1H-Cyclopentapyrimidine-2,4(3H,5H)-dione, 6,7-dihydro-3-cyclohexyl-",475.55,1.0,O=c1[nH]c2c(c(=O)n1C1CCCCC1)CCC2,le15
10263,"Phenanthrene, 7-isopropyl-1-methyl- (8CI)",450.962,1.0,Cc1cccc2c1ccc1cc(C(C)C)ccc12,le15
10264,"2-Propenoic acid, 3-(trimethoxysilyl)propyl ester",355.45,1.0,C=CC(=O)OCCC[Si](OC)(OC)OC,le15
10265,"Acetamide, 2-(diethylamino)-N-(2,6-dimethylphenyl)-",439.15,1.0,CCN(CC)CC(=O)Nc1c(C)cccc1C,le15
10266,"Phenol, 2,4-bis(1,1-dimethylpropyl)-",416.15,1.0,CCC(C)(C)c1ccc(O)c(C(C)(C)CC)c1,le15