,compound,flashpoint,pure substance,smiles,source
6415,"Methanone, (4-bromophenyl)phenyl- (9CI)",354.45,1,O=C(c1ccccc1)c1ccc(Br)cc1,le15
6416,"1,3,5-Triazine-2,4,6(1H,3H,5H)-trione, 1,3,5-tris(2-hydroxyethyl)-",545.45,1,O=c1n(CCO)c(=O)n(CCO)c(=O)n1CCO,le15
6417,"Phosphorothioic acid, O-(4-aminophenyl) O,O-diethyl ester",436.35,1,CCOP(=S)(OCC)Oc1ccc(N)cc1,le15
6418,"2-Naphthalenamine, 1-((2-methylphenyl)azo)-",516.45,1,Cc1ccccc1N=Nc1c(N)ccc2ccccc12,le15
6419,3-trichlorosilylpropyl 2-methylprop-2-enoate,391.45,1,C=C(C)C(=O)OCCC[Si](Cl)(Cl)Cl,le15
6420,"1,3-Propanediol, 2,2-bis(bromomethyl)-",451.25,1,OCC(CO)(CBr)CBr,le15
6421,"Benzenamine, 2-bromo-4,6-dinitro-",469.35,1,Nc1c(Br)cc([N+](=O)[O-])cc1[N+](=O)[O-],le15
6422,methyl 2-iodobenzoate,383.45,1,COC(=O)c1ccccc1I,le15
6423,methyl 3-iodobenzoate,403.85,1,COC(=O)c1cccc(I)c1,le15
6424,"Phosphine, triphenyl-",454.85,1,c1ccc(P(c2ccccc2)c2ccccc2)cc1,le15
6425,1-((4-Methylphenyl)azo)-2-naphthalenol,483.25,1,Cc1ccc(N=Nc2c(O)ccc3ccccc23)cc1,le15
6426,"dibutyl (2R,3R)-2,3-dihydroxybutanedioate",440.15,1,CCCCOC(=O)[C@H](O)[C@@H](O)C(=O)OCCCC,le15
6427,Benzyl tosylate,476.55,1,Cc1ccc(S(=O)(=O)OCc2ccccc2)cc1,le15
6428,"Phosphorodithioic acid, S-(2-(ethylsulfinyl)ethyl) O,O-dimethyl ester",459.35,1,CCS(=O)CCSP(=S)(OC)OC,le15
6429,"Phenol, 2,4,6-tri-tert-butyl- (6CI,7CI,8CI)",402.45,1,CC(C)(C)c1cc(C(C)(C)C)c(O)c(C(C)(C)C)c1,le15
6430,"Arsonic acid, (4-hydroxy-3-nitrophenyl)-",513.481,1,O=[N+]([O-])c1cc([As](=O)(O)O)ccc1O,le15
6431,"Glycine, N,N-bis(phosphonomethyl)-",631.15,1,O=C(O)CN(CP(=O)(O)O)CP(=O)(O)O,le15
6432,"Phosphorothioic acid, O,O-dimethyl O-(4-nitrophenyl) ester",319.25,1,COP(=S)(OC)Oc1ccc([N+](=O)[O-])cc1,le15
6433,"Pyren-6-ol, 1-nitro-",491.45,1,O=[N+]([O-])c1ccc2ccc3c(O)ccc4ccc1c2c43,le15
6434,"Pyren-8-ol, 1-nitro-",491.45,1,O=[N+]([O-])c1ccc2ccc3ccc(O)c4ccc1c2c34,le15
6435,1-bromotridecane,383.15,1,CCCCCCCCCCCCCBr,le15
6436,"5H-Dibenzo(a,d)cycloheptene-5-propanamine, N-methyl-",471.45,1,CNCCCC1c2ccccc2C=Cc2ccccc21,le15
6437,"Pyrrolidine, 3-(diphenylmethylene)-1-ethyl-",446.15,1,CCN1CCC(=C(c2ccccc2)c2ccccc2)C1,le15
6438,"Phenol, 3,5-bis(1,1-dimethylethyl)-, methylcarbamate (9CI)",416.55,1,CNC(=O)Oc1cc(C(C)(C)C)cc(C(C)(C)C)c1,le15
6439,"N,N-Bis(2,2-diethoxyethyl)methylamine",353.35,1,CCOC(CN(C)CC(OCC)OCC)OCC,le15
6440,"9-Octadecenenitrile, (9Z)-",464.25,1,CCCCCCCC/C=C\CCCCCCCC#N,le15
6441,"1,2,3,4-tetrachloro-5,5-dimethoxycyclopenta-1,3-diene",339.85,1,COC1(OC)C(Cl)=C(Cl)C(Cl)=C1Cl,le15
6442,"Benzene, (1,2-dibromoethyl)-",389.65,1,BrCC(Br)c1ccccc1,le15
6443,"o-Xylene, alpha,alpha'-dibromo- (8CI)",406.75,1,BrCc1ccccc1CBr,le15
6444,"m-Xylene, alpha,alpha'-dibromo- (8CI)",411.25,1,BrCc1cccc(CBr)c1,le15
6445,"Phosphorothioic acid, O,O-dimethyl O-(p-(methylthio)phenyl) ester",420.95,1,COP(=S)(OC)Oc1ccc(SC)cc1,le15
6446,"2-Propenoic acid, 3-phenyl-, 3-phenyl-2-propenyl ester",554.35,1,O=C(C=Cc1ccccc1)OCC=Cc1ccccc1,le15
6447,"Toluene, alpha,alpha,alpha,3,4-pentachloro- (8CI)",396.65,1,Clc1ccc(C(Cl)(Cl)Cl)cc1Cl,le15
6448,"2-Benzothiazolesulfenamide, N-cyclohexyl-",475.15,1,c1ccc2sc(SNC3CCCCC3)nc2c1,le15
6449,"Ethanamine, 2,2'-dithiobis(N,N-diethyl-",424.15,1,CCN(CC)CCSSCCN(CC)CC,le15
6450,"2-Propanone, 1,1,1,3,3,3-hexachloro-",349.35,1,O=C(C(Cl)(Cl)Cl)C(Cl)(Cl)Cl,le15
6451,"Phosphonothioic acid, ethyl-, O-(4-chlorophenyl) O-ethyl ester",416.85,1,CCOP(=S)(CC)Oc1ccc(Cl)cc1,le15
6452,"Benzimidazole, 5-bromo-2-(trifluoromethyl)-",422.55,1,FC(F)(F)c1nc2ccc(Br)cc2[nH]1,le15
6453,"Phosphorothioic acid, S-1,2-dichlorovinyl O,O-diethyl ester",399.05,1,CCOP(=O)(OCC)SC(Cl)=CCl,le15
6454,"Phosphorothioic acid, S-2,2-dichlorovinyl O,O-diethyl ester",387.05,1,CCOP(=O)(OCC)SC=C(Cl)Cl,le15
6455,"4(3H)-Quinazolinone, 6-amino-2-methyl-3-(o-tolyl)-",519.45,1,Cc1ccccc1-n1c(C)nc2ccc(N)cc2c1=O,le15
6456,"1,4-Benzodioxan, 2-(butylaminomethyl)-8-ethoxy-",426.05,1,CCCCNCC1COc2cccc(OCC)c2O1,le15
6457,"Benzimidazole, 4-chloro-6-nitro-2-(trifluoromethyl)-",457.85,1,O=[N+]([O-])c1cc(Cl)c2[nH]c(C(F)(F)F)nc2c1,le15
6458,"Benzimidazole, 5-chloro-6-nitro-2-(trifluoromethyl)-",465.85,1,O=[N+]([O-])c1cc2nc(C(F)(F)F)[nH]c2cc1Cl,le15
6459,"1,3-Benzenedicarbonitrile, 2,4,5,6-tetrachloro-",426.95,1,N#Cc1c(Cl)c(Cl)c(Cl)c(C#N)c1Cl,le15
6460,"Nonane, 1,1,1,9-tetrachloro-",389.35,1,ClCCCCCCCCC(Cl)(Cl)Cl,le15
6461,"3(2H)-Pyridazinone, 5-amino-4-bromo-2-phenyl-",423.75,1,Nc1cnn(-c2ccccc2)c(=O)c1Br,le15
6462,"2-Ethyl-2,5,6,7,8-pentahydroxy-1,4-naphthoquinone",360.55,1,CCC1(O)CC(=O)c2c(O)c(O)c(O)c(O)c2C1=O,le15
6463,"Phenol, 2-cyclohexyl-4,6-dinitro-",402.75,1,O=[N+]([O-])c1cc(C2CCCCC2)c(O)c([N+](=O)[O-])c1,le15
6464,"7-beta-D-ribofuranosyl-7H-pyrrolo-(2,3-d)pyrimidin-4-amine (9CI)",619.35,1,Nc1ncnc2c1ccn2[C@@H]1O[C@H](CO)[C@@H](O)[C@H]1O,le15
6465,"Methanone, (2-ethyl-3-benzofuranyl)(4-hydroxyphenyl)-",513.35,1,CCc1oc2ccccc2c1C(=O)c1ccc(O)cc1,le15
6466,"Phenol, pentachloro-",406.85,1,Oc1c(Cl)c(Cl)c(Cl)c(Cl)c1Cl,le15
6467,"Benzene, 1-(1,1-dimethylethyl)-2,6-dinitro-3,4,5-trimethyl-",447.75,1,Cc1c(C)c([N+](=O)[O-])c(C(C)(C)C)c([N+](=O)[O-])c1C,le15
6468,"9H-Indeno(2,1-c)phenanthrene",516.05,1,c1ccc2c(c1)Cc1ccc3ccc4ccccc4c3c1-2,le15
6469,6-Methylbenzo(def)chrysene,509.85,1,Cc1c2ccccc2c2ccc3cccc4ccc1c2c43,le15
6470,"Benzo(a)pyrene, 12-methyl-",509.85,1,Cc1cc2c3ccccc3cc3ccc4cccc1c4c32,le15
6471,"13H-Indeno(1,2-c)phenanthrene",516.05,1,c1ccc2c(c1)Cc1c-2ccc2ccc3ccccc3c12,le15
6472,"Phenol, 4,4'-(1,2-diethylidene-1,2-ethanediyl)bis-",454.55,1,CC=C(C(=CC)c1ccc(O)cc1)c1ccc(O)cc1,le15
6473,"2-Propenoic acid, 3-phenyl-, 3-phenylpropyl ester",533.75,1,O=C(C=Cc1ccccc1)OCCCc1ccccc1,le15
6474,Phosphoric acid tributyl ester,466.45,1,CCCCOP(=O)(OCCCC)OCCCC,le15
6475,"(1,1-Biphenyl)-4-acetic acid, alpha-2-butenyl-",597.35,1,CC=CCC(C(=O)O)c1ccc(-c2ccccc2)cc1,le15
6476,"Phosphoric acid, tris(2-methylpropyl) ester",398.95,1,CC(C)COP(=O)(OCC(C)C)OCC(C)C,le15
6477,"Acetamide, N-(4-(2-hydroxy-3-((1-methylethyl)amino)propoxy)phenyl)-",525.45,1,CC(=O)Nc1ccc(OCC(O)CNC(C)C)cc1,le15
6478,"5H-Dibenz(b,f)azepine, 10,11-dihydro-5-(3-(methylamino)propyl)-",433.65,1,CNCCCN1c2ccccc2CCc2ccccc21,le15
6479,"1,4-Benzenediamine, N-cyclohexyl-N'-phenyl-",549.05,1,c1ccc(Nc2ccc(NC3CCCCC3)cc2)cc1,le15
6480,"Biphenyl, 4-octyl- (6CI,7CI,8CI)",474.35,1,CCCCCCCCc1ccc(-c2ccccc2)cc1,le15
6481,"2-Benzothiazolesulfenamide, N,N-bis(1-methylethyl)-",437.65,1,CC(C)N(Sc1nc2ccccc2s1)C(C)C,le15
6482,tetradecylcyclopentane,427.25,1,CCCCCCCCCCCCCCC1CCCC1,le15
6483,"2,3,4,5,6-pentafluorobenzenesulfonyl chloride",354.25,1,O=S(=O)(Cl)c1c(F)c(F)c(F)c(F)c1F,le15
6484,"1,1,2-tribromoethane",340.75,1,BrCC(Br)Br,le15
6485,3-Nitro-5-fluoro-1-iodobenzene,394.85,1,O=[N+]([O-])c1cc(F)cc(I)c1,le15
6486,"9,10-Anthracenedione, 2-methyl-1-nitro- (9CI)",521.85,1,Cc1ccc2c(c1[N+](=O)[O-])C(=O)c1ccccc1C2=O,le15
6487,"4H-Pyrrolo(2,3-d)pyrimidin-4-one, 1,7-dihydro-7-beta-D-ribofuranosyl-",604.85,1,O=c1nc[nH]c2c1ccn2[C@@H]1O[C@H](CO)[C@@H](O)[C@H]1O,le15
6488,"L-Glutamine, N-(4-nitrophenyl)-",584.15,1,NC(=O)CC[C@H](Nc1ccc([N+](=O)[O-])cc1)C(=O)O,le15
6489,9-beta-D-Arabinofuranosyl-9H-purin-6-amine (9CI),635.95,1,Nc1ncnc2c1ncn2[C@@H]1O[C@H](CO)[C@@H](O)[C@@H]1O,le15
6490,Adenosine,635.95,1,Nc1ncnc2c1ncn2[C@@H]1O[C@H](CO)[C@@H](O)[C@H]1O,le15
6491,"1,4-Oxathiin-3-carboxamide, 5,6-dihydro-2-methyl-N-phenyl-, 4,4-dioxid",546.05,1,CC1=C(C(=O)Nc2ccccc2)S(=O)(=O)CCO1,le15
6492,"Benzenesulfonamide, 4-amino-N-(3,4-dimethyl-5-isoxazolyl)-",518.55,1,Cc1noc(NS(=O)(=O)c2ccc(N)cc2)c1C,le15
6493,"7H-Dibenzo(c,g)carbazole",519.65,1,c1ccc2c(c1)ccc1[nH]c3ccc4ccccc4c3c12,le15
6494,"2-Piperidinemethanol, alpha,alpha-diphenyl-",400.55,1,OC(c1ccccc1)(c1ccccc1)C1CCCCN1,le15
6495,"Benzenamine, 4,4'-carbonimidoylbis(N,N-dimethyl-",472.55,1,CN(C)c1ccc(C(=N)c2ccc(N(C)C)cc2)cc1,le15
6496,"Pentanoic acid, 4-(1-piperidinyl)cyclohexyl ester (9CI)",381.75,1,CCCCC(=O)OC1CCC(N2CCCCC2)CC1,le15
6497,"Isovaleric acid, 4-piperidinocyclohexyl ester",379.35,1,CC(C)CC(=O)OC1CCC(N2CCCCC2)CC1,le15
6498,"Benzyl alcohol, alpha-(trichloromethyl)-, acetate (9CI)",418.25,1,CC(=O)OC(c1ccccc1)C(Cl)(Cl)Cl,le15
6499,"Quinoxaline, 5,6,7,8-tetrachloro-",488.15,1,Clc1c(Cl)c(Cl)c2nccnc2c1Cl,le15
6500,"1,4,5,8-Naphthalenetetracarboxylic 1,8:4,5-dianhydride (8CI)",553.55,1,O=c1oc(=O)c2ccc3c(=O)oc(=O)c4ccc1c2c43,le15
6501,"6H-Benzofuro(3,2-c)(1)benzopyran-6-one, 3,9-dihydroxy-",472.45,1,O=c1oc2cc(O)ccc2c2oc3cc(O)ccc3c12,le15
6502,"1,1'-(m-Phenylene)bis-1H-pyrrole-2,5-dione (9CI)",523.85,1,O=C1C=CC(=O)N1c1cccc(N2C(=O)C=CC2=O)c1,le15
6503,Inosine,670.143,1,OC[C@H]1O[C@@H](n2cnc3c(O)ncnc32)[C@H](O)[C@@H]1O,le15
6504,"9(10H)-Anthracenone, 10-acetyl-1,8-dihydroxy-",528.05,1,CC(=O)C1c2cccc(O)c2C(=O)c2c(O)cccc21,le15
6505,"Benzene, 1-(1,1-dimethylethyl)-2-methoxy-4-methyl-3,5-dinitro-",422.75,1,COc1c(C(C)(C)C)cc([N+](=O)[O-])c(C)c1[N+](=O)[O-],le15
6506,"Anthraquinone, 1,4,5,8-tetraamino- (8CI)",657.45,1,Nc1ccc(N)c2c1C(=O)c1c(N)ccc(N)c1C2=O,le15
6507,"Benzenamine, N,N-dimethyl-4-(2-(4-nitrophenyl)ethenyl)-",475.95,1,CN(C)c1ccc(C=Cc2ccc([N+](=O)[O-])cc2)cc1,le15
6508,"Benz(j)aceanthrylene, 1,2-dihydro-3-methyl-",268.15,1,Cc1ccc2cc3c(ccc4ccccc43)c3c2c1CC3,le15
6509,"Urea, N,N'-diethyl-N,N'-diphenyl-",423.95,1,CCN(C(=O)N(CC)c1ccccc1)c1ccccc1,le15
6510,"Methanone, bis(4-(dimethylamino)phenyl)-",493.15,1,CN(C)c1ccc(C(=O)c2ccc(N(C)C)cc2)cc1,le15
6511,"1,4-Benzenediamine, N-(1,3-dimethylbutyl)-N'-phenyl-",477.15,1,CC(C)CC(C)Nc1ccc(Nc2ccccc2)cc1,le15
6512,(Z)-octadec-9-en-1-ol,393.85,1,CCCCCCCC/C=C\CCCCCCCCO,le15
6513,"Phosphorodithioic acid, S-(4-chlorophenyl) O,O-dimethyl ester",424.35,1,COP(=S)(OC)Sc1ccc(Cl)cc1,le15
6514,"Phenol, 2,2'-methylenebis(4-chloro-",480.15,1,Oc1ccc(Cl)cc1Cc1cc(Cl)ccc1O,le15
6515,"Sulfamide, N-(2,4-dichlorobenzyl)-N-methyl-",477.05,1,CN(Cc1ccc(Cl)cc1Cl)S(N)(=O)=O,le15
6516,"Benzene, 1-chloro-4-(((4-chlorophenyl)methyl)thio)-",441.55,1,Clc1ccc(CSc2ccc(Cl)cc2)cc1,le15
6517,"Acetamide, N-(4-(2-(2-hydroxy-5-methylphenyl)diazenyl)phenyl)-",549.85,1,CC(=O)Nc1ccc(N=Nc2cc(C)ccc2O)cc1,le15
6518,N-naphthalen-2-ylnaphthalen-2-amine,541.65,1,c1ccc2cc(Nc3ccc4ccccc4c3)ccc2c1,le15
6519,"(1,1'-Biphenyl)-4-ol, 3-(4-morpholinylmethyl)-",474.05,1,Oc1ccc(-c2ccccc2)cc1CN1CCOCC1,le15
6520,"Ethanol, 2-chloro-, phosphite (3:1)",370.35,1,OCCCl.OCCCl.OCCCl.OP(O)O,le15
6521,"Propionic acid, 2-(2,4,5-trichlorophenoxy)-",455.75,1,CC(Oc1cc(Cl)c(Cl)cc1Cl)C(=O)O,le15
6522,1-Octadecanamine,421.15,1,CCCCCCCCCCCCCCCCCCN,le15
6523,"2-Bromo-3,3-dimethyl-N-phenylbutanamide",453.05,1,CC(C)(C)C(Br)C(=O)Nc1ccccc1,le15
6524,"9,10-Anthracenedione, 1,3-dihydroxy-2-(hydroxymethyl)- (9CI)",594.75,1,O=C1c2ccccc2C(=O)c2c1cc(O)c(CO)c2O,le15
6525,"9,10-Anthracenedione, 1,8-dihydroxy-3-(hydroxymethyl)- (9CI)",585.05,1,O=C1c2cccc(O)c2C(=O)c2c(O)cc(CO)cc21,le15
6526,"Anthraquinone, 1,3,8-trihydroxy-6-methyl- (8CI)",595.95,1,Cc1cc(O)c2c(c1)C(=O)c1cc(O)cc(O)c1C2=O,le15
6527,"4H-1-Benzopyran-4-one, 3,5,7-trihydroxy-2-phenyl- (9CI)",475.15,1,O=c1c(O)c(-c2ccccc2)oc2cc(O)cc(O)c12,le15
6528,"4H-1-Benzopyran-4-one, 5,7-dihydroxy-2-(4-hydroxyphenyl)- (9CI)",490.15,1,O=c1cc(-c2ccc(O)cc2)oc2cc(O)cc(O)c12,le15
6529,"Maleic anhydride, dihydroxy-, dibutyrate",435.65,1,CCCC(=O)O.CCCC(=O)O.O=C1OC(=O)C(O)=C1O,le15
6530,"9,10-Anthracenedione, 1,5-diamino-4,8-dihydroxy-",619.75,1,Nc1ccc(O)c2c1C(=O)c1c(O)ccc(N)c1C2=O,le15
6531,"Benzene, 1,1'-(1,2-ethenediyl)bis(4-nitro-, (E)-",455.85,1,O=[N+]([O-])c1ccc(/C=C/c2ccc([N+](=O)[O-])cc2)cc1,le15
6532,"7H-Furo(3,2-g)(1)benzopyran-7-one, 9-((3-methyl-2-butenyl)oxy)-",498.05,1,CC(C)=CCOc1c2occc2cc2ccc(=O)oc12,le15
6533,"Anthrone, 1,8-dihydroxy-3-methoxy-6-methyl-",483.25,1,COc1cc(O)c2c(c1)Cc1cc(C)cc(O)c1C2=O,le15
6534,"Benzenesulfonamide, 4-amino-N-(5-methyl-1,3,4-thiadiazol-2-yl)-",532.25,1,Cc1nnc(NS(=O)(=O)c2ccc(N)cc2)s1,le15
6535,"Estra-1,3,5(10)-trien-17-one, 3-hydroxy-",462.85,1,C[C@]12CC[C@@H]3c4ccc(O)cc4CC[C@H]3[C@@H]1CCC2=O,le15
6536,"Peroxide, bis(alpha,alpha-dimethylbenzyl)",372.75,1,CC(C)(OOC(C)(C)c1ccccc1)c1ccccc1,le15
6537,"Ethanamine, N,N-dimethyl-2-(1-phenyl-1-(2-pyridinyl)ethoxy)-",447.65,1,CN(C)CCOC(C)(c1ccccc1)c1ccccn1,le15
6538,"1,3-Cyclopentanedicarboxylic acid, dibutyl ester",434.35,1,CCCCOC(=O)C1CCC(C(=O)OCCCC)C1,le15
6539,octanoyl octanoate,415.55,1,CCCCCCCC(=O)OC(=O)CCCCCCC,le15
6540,"1,2,3,4,6,9-Tetrathiadiazecine-5,10-dithione",483.95,1,S=C1N=CC=NC(=S)SSSS1,le15
6541,heptadecanoic acid,431.55,1,CCCCCCCCCCCCCCCCC(=O)O,le15
6542,propan-2-yl tetradecanoate,417.25,1,CCCCCCCCCCCCCC(=O)OC(C)C,le15
6543,methyl hexadecanoate,425.95,1,CCCCCCCCCCCCCCCC(=O)OC,le15
6544,Stearyl alcohol,411.85,1,CCCCCCCCCCCCCCCCCCO,le15
6545,"Toluene, 4-chloro-3,5-dinitro-alpha,alpha,alpha-trifluoro-",399.15,1,O=[N+]([O-])c1cc(C(F)(F)F)cc([N+](=O)[O-])c1Cl,le15
6546,1-nonoxynonane,402.45,1,CCCCCCCCCOCCCCCCCCC,le15
6547,tribromo(fluoro)methane,289.65,1,FC(Br)(Br)Br,le15
6548,"2H-1,4-Benzodiazepin-2-one, 7-chloro-1,3-dihydro-5-phenyl-",500.95,1,O=C1CN=C(c2ccccc2)c2cc(Cl)ccc2N1,le15
6549,"1H-1,4-Benzodiazepine, 7-chloro-2,3-dihydro-1-methyl-5-phenyl-",471.55,1,CN1CCN=C(c2ccccc2)c2cc(Cl)ccc21,le15
6550,"2,3-dichloro-1,1,1,2,3,4,4,4-octafluorobutane",273.75,1,FC(F)(F)C(F)(Cl)C(F)(Cl)C(F)(F)F,le15
6551,"Phosphoric acid, 2,4-dichlorophenyl dimethyl ester",439.65,1,COP(=O)(OC)Oc1ccc(Cl)cc1Cl,le15
6552,"Anthracene, 9-bromomethyl-",482.15,1,BrCc1c2ccccc2cc2ccccc12,le15
6553,"Propanamide, 3-((4-bromophenyl)amino)-N,N-dimethyl- (9CI)",467.75,1,CN(C)C(=O)CCNc1ccc(Br)cc1,le15
6554,"Benzene, 1,2,4-trichloro-3,5-dinitro-",435.95,1,O=[N+]([O-])c1cc(Cl)c(Cl)c([N+](=O)[O-])c1Cl,le15
6555,"1,8-dibromooctane",386.15,1,BrCCCCCCCCBr,le15
6556,"1,2,3,4,5,6,7,8-octafluoronaphthalene",347.45,1,Fc1c(F)c(F)c2c(F)c(F)c(F)c(F)c2c1F,le15
6557,"9,10-Anthracenedione, 1,2,5,8-tetrahydroxy-",553.75,1,O=C1c2ccc(O)c(O)c2C(=O)c2c(O)ccc(O)c21,le15
6558,"Benzamide, 4-methoxy-3-nitro-N-phenyl-",458.15,1,COc1ccc(C(=O)Nc2ccccc2)cc1[N+](=O)[O-],le15
6559,"9H-Fluorene-9,9-dipropanenitrile (9CI)",522.45,1,N#CCCC1(CCC#N)c2ccccc2-c2ccccc21,le15
6560,"1-Piperidineethanol, alpha-(5-phenyl-3-isoxazolyl)-",509.65,1,OC(CN1CCCCC1)c1cc(-c2ccccc2)on1,le15
6561,"Estra-1,3,5(10)-triene-3,17-diol, (17beta)-",482.75,1,C[C@]12CC[C@@H]3c4ccc(O)cc4CC[C@H]3[C@@H]1CC[C@@H]2O,le15
6562,"Tridecanedioic acid, dimethyl ester",413.95,1,COC(=O)CCCCCCCCCCCC(=O)OC,le15
6563,"Phosphorodithioic acid, O,O-diethyl S-(tetrahydro-3-thienyl) ester",437.35,1,CCOP(=S)(OCC)SC1CCSC1,le15
6564,"1,3-Cyclopentadiene, 1,2,3,4,5,5-hexachloro-",423.15,1,ClC1=C(Cl)C(Cl)(Cl)C(Cl)=C1Cl,le15
6565,"1,4-dichloro-2-iodobenzene",367.05,1,Clc1ccc(Cl)c(I)c1,le15
6566,"1,3-Dioxolo(4,5-g)furo(2,3-b)quinoline, 4,9-dimethoxy-",489.15,1,COc1c2ccoc2nc2c(OC)c3c(cc12)OCO3,le15
6567,"Chrysene, 2-nitro-",531.95,1,O=[N+]([O-])c1ccc2c(ccc3c4ccccc4ccc23)c1,le15
6568,"3,5-Pyridinedicarbonitrile, 2,6-dichloro-4-phenyl-",497.45,1,N#Cc1c(Cl)nc(Cl)c(C#N)c1-c1ccccc1,le15
6569,"9H-Xanthen-9-one, 1,5,8-trihydroxy-3-methoxy- (9CI)",501.15,1,COc1cc(O)c2c(=O)c3c(O)ccc(O)c3oc2c1,le15
6570,"2,2'-Dinitrobenzidine",529.05,1,Nc1ccc(-c2ccc(N)cc2[N+](=O)[O-])c([N+](=O)[O-])c1,le15
6571,"(1,1'-Biphenyl)-4,4'-diamine, 3,3'-dinitro- (9CI)",527.75,1,Nc1ccc(-c2ccc(N)c([N+](=O)[O-])c2)cc1[N+](=O)[O-],le15
6572,"Propiophenone, 2',4',6'-trihydroxy-3-(p-hydroxyphenyl)- (8CI)",564.25,1,O=C(CCc1ccc(O)cc1)c1c(O)cc(O)cc1O,le15
6573,"2,5,8,10-Tetraoxatridec-12-enoic acid, 9-oxo-, 2-propenyl ester",418.45,1,C=CCOC(=O)OCCOCCOC(=O)OCC=C,le15
6574,"Phosphorothioic acid, O,O-diethyl O-(2-(ethylsulfinyl)ethyl) ester",453.75,1,CCOP(=S)(OCC)OCCS(=O)CC,le15
6575,Dicyclohexylphenylphosphine,474.25,1,c1ccc(P(C2CCCCC2)C2CCCCC2)cc1,le15
6576,"Acetic acid, phenyl-, 3,7-dimethyl-6-octenyl ester",394.35,1,CC(C)=CCCC(C)CCOC(=O)Cc1ccccc1,le15
6577,"Dodecanoic acid, 2,3-dihydroxypropyl ester",408.75,1,CCCCCCCCCCCC(=O)OCC(O)CO,le15
6578,"Phosphorodithioic acid, O,O-diethyl S-(2-(ethylthio)ethyl) ester",426.95,1,CCOP(=S)(OCC)SCCSCC,le15
6579,"Silane, tris(1,1-dimethylethoxy)ethenyl- (9CI)",388.05,1,CC(C)(C)OC([SiH3])=C(OC(C)(C)C)OC(C)(C)C,le15
6580,tetradecylbenzene,433.55,1,CCCCCCCCCCCCCCc1ccccc1,le15
6581,"9H-Fluorene-9-carboxylic acid, 2-chloro-9-hydroxy-, methyl ester",484.85,1,COC(=O)C1(O)c2ccccc2-c2ccc(Cl)cc21,le15
6582,"Pyridine, 2-(p-chloro-alpha-(2-(dimethylamino)ethyl)benzyl)-",456.15,1,CN(C)CCC(c1ccc(Cl)cc1)c1ccccn1,le15
6583,"Acetanilide, 2-bromo-2'-hydroxy-5'-nitro- (8CI)",512.65,1,O=C(CBr)Nc1cc([N+](=O)[O-])ccc1O,le15
6584,"Acetophenone, 2-bromo-4'-phenyl- (8CI)",348.25,1,O=C(CBr)c1ccc(-c2ccccc2)cc1,le15
6585,"Phosphoric acid, diethyl 4-nitrophenyl ester",435.45,1,CCOP(=O)(OCC)Oc1ccc([N+](=O)[O-])cc1,le15
6586,"Phenol, 4-((2,4-dinitrophenyl)amino)-",495.35,1,O=[N+]([O-])c1ccc(Nc2ccc(O)cc2)c([N+](=O)[O-])c1,le15
6587,"8H-Benzo(g)-1,3-benzodioxolo(6,5,4-de)quinolin-8-one (9CI)",548.15,1,O=C1c2ccccc2-c2c3c(cc4ccnc1c24)OCO3,le15
6588,"Phosphonothioic acid, methyl-, O-(4-nitrophenyl) O-propyl ester",445.75,1,CCCOP(C)(=S)Oc1ccc([N+](=O)[O-])cc1,le15
6589,"2H-1-Benzothiopyran-7-sulfonamide, 3,4-dihydro-6-methyl-, 1,1-dioxide",559.05,1,Cc1cc2c(cc1S(N)(=O)=O)S(=O)(=O)CCC2,le15
6590,N-(1-piperidin-1-ylpropan-2-yl)-N-pyridin-2-ylpropanamide,474.95,1,CCC(=O)N(c1ccccn1)C(C)CN1CCCCC1,le15
6591,"1,3,5-Triazin-2-amine, 4,6-dichloro-N-(2-chlorophenyl)- (9CI)",505.35,1,Clc1nc(Cl)nc(Nc2ccccc2Cl)n1,le15
6592,"Succinic acid, 2,3-dibromo- (8CI)",385.65,1,O=C(O)C(Br)C(Br)C(=O)O,le15
6593,"Benzene, 1,2,3,4-tetrachloro-5,6-dimethoxy-",395.25,1,COc1c(Cl)c(Cl)c(Cl)c(Cl)c1OC,le15
6594,"Benzimidazole, 5,6-dinitro-2-(trifluoromethyl)-",512.95,1,O=[N+]([O-])c1cc2nc(C(F)(F)F)[nH]c2cc1[N+](=O)[O-],le15
6595,"1,2-dibromo-1-chloro-1,2,2-trifluoroethane",282.25,1,FC(F)(Br)C(F)(Cl)Br,le15
6596,"Benzene, 1,1'-thiobis(4-nitro-",521.75,1,O=[N+]([O-])c1ccc(Sc2ccc([N+](=O)[O-])cc2)cc1,le15
6597,"1H-Pyrrole-2,5-dione, 1,1'-(1,6-hexanediyl)bis- (9CI)",491.25,1,O=C1C=CC(=O)N1CCCCCCN1C(=O)C=CC1=O,le15
6598,"Dibenzo(def,mno)chrysene",520.35,1,c1cc2ccc3cc4cccc5ccc6cc(c1)c2c3c6c54,le15
6599,"Indeno(1,2,3-cd)pyrene",520.35,1,c1ccc2c(c1)-c1ccc3ccc4cccc5cc-2c1c3c45,le15
6600,Benzo(def)cyclopenta(hi)chrysene,538.45,1,c1cc2ccc3c4cccc5ccc(c6ccc(c1)c2c36)c54,le15
6601,"Phosphorothioic acid, O,O-diethyl S-((ethylsulfonyl)methyl) ester",462.85,1,CCOP(=O)(OCC)SCS(=O)(=O)CC,le15
6602,"Benzeneacetic acid, alpha-hydroxy-, 3,3,5-trimethylcyclohexyl ester",423.25,1,CC1CC(OC(=O)C(O)c2ccccc2)CC(C)(C)C1,le15
6603,"4-Decen-3-one, 1-(4-hydroxy-3-methoxyphenyl)-",423.45,1,CCCCCC=CC(=O)CCc1ccc(O)c(OC)c1,le15
6604,"Silane, hydroxytriphenyl-",461.95,1,O[Si](c1ccccc1)(c1ccccc1)c1ccccc1,le15
6605,"Silane, triethoxyoctyl-",374.45,1,CCOC(CCCCCCC[SiH3])(OCC)OCC,le15
6606,"Benzonitrile, 3,5-dibromo-4-hydroxy-",387.55,1,N#Cc1cc(Br)c(O)c(Br)c1,le15
6607,"Acetic acid, (2,4-dichlorophenoxy)-, 2-methylpropyl ester (9CI)",402.05,1,CC(C)COC(=O)COc1ccc(Cl)cc1Cl,le15
6608,"Acetic acid, (2,4-dichlorophenoxy)-, butyl ester",405.15,1,CCCCOC(=O)COc1ccc(Cl)cc1Cl,le15
6609,"Phosphorothioic acid, O,O-dimethyl O-(3-methyl-4-nitrophenyl) ester",438.35,1,COP(=S)(OC)Oc1ccc([N+](=O)[O-])c(C)c1,le15
6610,"Acetamide, N-9H-fluoren-2-yl-2,2,2-trifluoro- (9CI)",475.15,1,O=C(Nc1ccc2c(c1)Cc1ccccc1-2)C(F)(F)F,le15
6611,"Phosphorothioic acid, O-ethyl O-methyl O-(4-nitrophenyl) ester (9CI)",438.05,1,CCOP(=S)(OC)Oc1ccc([N+](=O)[O-])cc1,le15
6612,"1H-Purine, 6-((1-methyl-4-nitro-1H-imidazol-5-yl)thio)-",641.65,1,Cn1cnc([N+](=O)[O-])c1Sc1[nH]cnc2ncnc1-2,le15
6613,1-bromotetradecane,400.45,1,CCCCCCCCCCCCCCBr,le15
6614,"Phenol, 4,4'-(2-pyridinylmethylene)bis- (9CI)",506.45,1,Oc1ccc(C(c2ccc(O)cc2)c2ccccn2)cc1,le15
6615,bis[[chloro(dimethyl)silyl]oxy]-dimethylsilane,326.45,1,C[Si](C)(Cl)O[Si](C)(C)O[Si](C)(C)Cl,le15
6616,"Phenol, 2,6-bis(1,1-dimethylethyl)-4-methyl-, methylcarbamate (9CI)",429.15,1,CNC(=O)Oc1c(C(C)(C)C)cc(C)cc1C(C)(C)C,le15
6617,10-chloro-5H-phenarsazinine,469.85,1,Cl[As]1c2ccccc2Nc2ccccc21,le15
6618,"Ethanone, 2-bromo-1-(4-bromophenyl)-",387.25,1,O=C(CBr)c1ccc(Br)cc1,le15
6619,"Phthalic acid, bis(2,3-epoxypropyl) ester",446.05,1,O=C(OCC1CO1)c1ccccc1C(=O)OCC1CO1,le15