,compound,flashpoint,pure substance,smiles,source
802,propan-2-yl carbamate,363.25,1,CC(C)OC(N)=O,le15
803,"Nitrous acid, 2-methylpropyl ester",252.15,1,CC(C)CON=O,le15
804,tertButylNitrite,250.0,1,CC(C)(C)ON=O,le15
805,"2-Propanol, 1-(dimethylamino)-",308.15,1,CC(O)CN(C)C,le15
806,2-(propan-2-ylamino)ethanol,343.45,1,CC(C)NCCO,le15
807,5-Aminopentan-1-ol,338.75,1,NCCCCCO,le15
808,"1-Pentanol, 2-amino-",368.15,1,CCCC(N)CO,le15
809,"1-Propanamine, 3-ethoxy-",305.95,1,CCOCCCN,le15
810,2-(dimethylamino)propan-1-ol,305.25,1,CC(CO)N(C)C,le15
811,"Ethanol, 2-(propylamino)-",351.45,1,CCCNCCO,le15
812,"1-Propanol, 3-(dimethylamino)-",309.25,1,CN(C)CCCO,le15
813,"1,2-Ethanediamine, N-(2-aminoethyl)-",367.594,1,NCCNCCN,le15
814,"Ethanamine, 2-hydrazino-N,N-dimethyl-",339.05,1,CN(C)CCNN,le15
815,thiomorpholine,333.15,1,C1CSCCN1,le15
816,"Butanenitrile, 4-chloro-",358.15,1,N#CCCCCl,le15
817,Propanedioic acid,475.05,1,O=C(O)CC(=O)O,le15
818,"Guanidine, 1-nitro-",422.45,1,N=C(N)N[N+](=O)[O-],le15
819,4-Pyridinecarbonitrile,355.85,1,N#Cc1ccncc1,le15
820,3-Pyridinecarbonitrile,357.594,1,N#Cc1cccnc1,le15
821,Picolinonitrile (8CI),362.55,1,N#Cc1ccccn1,le15
822,"Ethylene glycol, monoacetate",350.55,1,CC(=O)OCCO,le15
823,methyl 2-hydroxypropanoate,322.15,1,COC(=O)C(C)O,le15
824,"Acetic acid, 2-ethoxy-",366.25,1,CCOCC(=O)O,le15
825,methyl 3-hydroxypropanoate,345.75,1,COC(=O)CCO,le15
826,methyl 2-methoxyacetate,308.15,1,COCC(=O)OC,le15
827,ethyl 2-hydroxyacetate,334.85,1,CCOC(=O)CO,le15
828,"Benzene, ethenyl-",304.255,1,C=Cc1ccccc1,le15
829,"Ethanol, 2-(1-methylethoxy)-",316.15,1,CC(C)OCCO,le15
830,"1-Propanol, 3-ethoxy-",327.55,1,CCOCCCO,le15
831,3-Hydroxy-3-methylbutan-1-ol,364.45,1,CC(C)(O)CCO,le15
832,2-(Propyloxy)ethanol,324.35,1,CCCOCCO,le15
833,"1,2-dimethoxypropane",273.75,1,COCC(C)OC,le15
834,"1-Propanol, 2-ethoxy-",319.05,1,CCOC(C)CO,le15
835,"1-Butanol, 3-methoxy-",319.85,1,COC(C)CCO,le15
836,"Hydroperoxide, 1,1-dimethylpropyl",314.35,1,CCC(C)(C)OO,le15
837,"Pentane-1,2-diol",377.15,1,CCCC(O)CO,le15
838,"2-methylbutane-2,3-diol",343.35,1,CC(O)C(C)(C)O,le15
839,2isopropoxyethanol,316.0,1,CC(C)OCCO,le15
840,"Ethanol, 2-((2-aminoethyl)amino)-",363.65,1,NCCNCCO,le15
841,2-(2-aminoethoxy)ethanamine,347.95,1,NCCOCCN,le15
842,"Hexane, 1-fluoro-",300.35,1,CCCCCCF,le15
843,S-ethyl ethanethioate,291.45,1,CCSC(C)=O,le15
844,thiolane 1-oxide,389.65,1,O=S1CCCC1,le15
845,"Propionaldehyde, 3-(methylthio)-",334.25,1,CSCCC=O,le15
846,"1,4-Oxathiane",328.75,1,C1CSCCO1,le15
847,4thiapentanal,331.0,1,CSCCC=O,le15
848,"Urea, 1,3-dimethyl-2-thio-",473.15,1,CNC(=S)NC,le15
849,2-methylbutane-1-thiol,292.55,1,CCC(C)CS,le15
850,1-ethylsulfanylpropane,292.05,1,CCCSCC,le15
851,3-methylbutane-1-thiol,291.45,1,CC(C)CCS,le15
852,1-methylsulfanylbutane,293.75,1,CCCCSC,le15
853,"2-Butanethiol, 2-methyl-",272.15,1,CCC(C)(C)S,le15
854,2methyl1butanethiol,292.0,1,CCC(C)CS,le15
855,2pentanethiol,282.0,1,CCCC(C)S,le15
856,3methyl2butanethiol,292.0,1,CC(C)C(C)S,le15
857,tertButylMethylSulfide,270.0,1,CSC(C)(C)C,le15
858,2-methylprop-2-enoyl chloride,300.85,1,C=C(C)C(=O)Cl,le15
859,(E)-but-2-enoyl chloride,308.15,1,C/C=C/C(=O)Cl,le15
860,"2-Butenal, 2-chloro- (9CI)",316.95,1,CC=C(Cl)C=O,le15
861,3-Chlorocrotonaldehyde,312.85,1,C/C(Cl)=C/C=O,le15
862,1-chloro-3-methylbut-2-ene,277.15,1,CC(C)=CCCl,le15
863,chlorocyclopentane,288.15,1,ClC1CCCC1,le15
864,"1-Butene, 3-chloro-2-methyl-",275.15,1,C=C(C)C(C)Cl,le15
865,"2-Butene, 1-chloro-2-methyl-",281.95,1,CC=C(C)CCl,le15
866,Chlorocyclopentane,288.0,1,ClC1CCCC1,le15
867,Serine,465.73199999999997,1,N[C@@H](CO)C(=O)O,le15
868,propan-2-yl nitrate,285.95,1,CC(C)O[N+](=O)[O-],le15
869,"Pyridine, 4-ethenyl-",324.817,1,C=Cc1ccncc1,le15
870,"Pyridine, 2-ethenyl-",319.85,1,C=Cc1ccccn1,le15
871,"Pyridine, 3-ethenyl-",324.05,1,C=Cc1cccnc1,le15
872,"Ethanol, 2-(2-aminoethoxy)-",349.75,1,NCCOCCO,le15
873,"Ethanol, 2,2'-iminobis-",410.92800000000005,1,OCCNCCO,le15
874,"1,3-Propanediol, 2-amino-2-methyl-",382.85,1,CC(N)(CO)CO,le15
875,Diethanolamine,410.0,1,OCCNCCO,le15
876,"Semicarbazide, 4-methyl-3-thio- (8CI)",328.75,1,CNC(=S)NN,le15
877,"Acetic acid, 2-fluoro-, ethyl ester",303.15,1,CCOC(=O)CF,le15
878,(E)-hex-3-enedinitrile,419.35,1,N#CC/C=C/CC#N,le15
879,"Ethanol, 2-(methoxymethoxy)-",310.95,1,COCOCCO,le15
880,"Ethanol, 2,2'-oxybis-",416.483,1,OCCOCCO,le15
881,trimethoxymethane,288.75,1,COC(OC)OC,le15
882,Trimethoxymethane,288.0,1,COC(OC)OC,le15
883,"Propanoic acid, 3-mercapto-",373.88699999999994,1,O=C(O)CCS,le15
884,"Acetic acid, mercapto-, methyl ester",329.15,1,COC(=O)CS,le15
885,"Ethene, (methylsulfonyl)- (9CI)",386.15,1,C=CS(C)(=O)=O,le15
886,"Benzene, 1,3-dimethyl-",298.15,1,Cc1cccc(C)c1,le15
887,"octa-1,7-diyne",296.45,1,C#CCCCCC#C,le15
888,"(1Z,3Z,5Z)-cycloocta-1,3,5-triene",300.95,1,C1=C\C=C/CC\C=C/1,le15
889,Carbonothioic dihydrazide,366.15,1,NNC(=S)NN,le15
890,2-ethylsulfanylethanol,289.25,1,CCSCCO,le15
891,"1,3-dithiolane",336.75,1,C1CSCS1,le15
892,"Acrylic acid, 3-chloro-, (Z)- (8CI)",343.25,1,O=C(O)/C=C\Cl,le15
893,2-methylpropanoyl chloride,274.25,1,CC(C)C(=O)Cl,le15
894,"Ether, 2-chloroethyl vinyl",289.15,1,C=COCCCl,le15
895,Butanoyl chloride,294.85,1,CCCC(=O)Cl,le15
896,2-(chloromethyl)-2-methyloxirane,307.65,1,CC1(CCl)CO1,le15
897,"2-Butanone, 3-chloro-",296.15,1,CC(=O)C(C)Cl,le15
898,2-chloro-2-methylpropanal,298.65,1,CC(C)(Cl)C=O,le15
899,1-chloropentane,284.25,1,CCCCCCl,le15
900,2-chloro-2-methylbutane,276.55,1,CCC(C)(C)Cl,le15
901,2-chloropentane,282.95,1,CCCC(C)Cl,le15
902,"1-chloro-2,2-dimethylpropane",264.25,1,CC(C)(C)CCl,le15
903,1-chloro-3-methylbutane,289.15,1,CC(C)CCCl,le15
904,1chloropentane,314.0,1,CCCCCCl,le15
905,2chloropentane,273.0,1,CCCC(C)Cl,le15
906,Bromoethene (9CI),255.95,1,C=CBr,le15
907,3-Pyridinecarboxaldehyde,357.15,1,O=Cc1cccnc1,le15
908,pyridine-2-carbaldehyde,327.55,1,O=Cc1ccccn1,le15
909,Benzenemethanamine,333.15,1,NCc1ccccc1,le15
910,"Benzenamine, N-methyl-",352.039,1,CNc1ccccc1,le15
911,"Pyridine, 2-ethyl-",302.55,1,CCc1ccccn1,le15
912,"Pyridine, 2,6-dimethyl-",306.45,1,Cc1cccc(C)n1,le15
913,4-ethylpyridine,320.15,1,CCc1ccncc1,le15
914,3-ethylpyridine,322.05,1,CCc1cccnc1,le15
915,"Pyridine, 3,4-dimethyl-",326.15,1,Cc1ccncc1C,le15
916,"3,5-dimethylpyridine",326.15,1,Cc1cncc(C)c1,le15
917,3-Cyclohexene-1-carbonitrile,338.95,1,N#CC1CC=CCC1,le15
918,"2,3-dimethylpyridine",318.55,1,Cc1cccnc1C,le15
919,"Pyridine, 2,5-dimethyl-",321.15,1,Cc1ccc(C)nc1,le15
920,4methylaniline,359.0,1,Cc1ccc(N)cc1,le15
921,"Carbamoyl chloride, dimethyl-",341.45,1,CN(C)C(=O)Cl,le15
922,chloromethyl thiocyanate,357.05,1,N#CSCCl,le15
923,"2,5-Cyclohexadiene-1,4-dione",332.45,1,O=C1C=CC(=O)C=C1,le15
924,"Maleonitrile, diamino- (8CI)",495.85,1,N#C/C(N)=C(/N)C#N,le15
925,"Methanesulfinic acid, 1-amino-1-imino-",441.85,1,N=C(N)S(=O)O,le15
926,"Phenol, 2-methyl-",350.25,1,Cc1ccccc1O,le15
927,Benzenemethanol,370.65,1,OCc1ccccc1,le15
928,"Benzene, methoxy-",317.60400000000004,1,COc1ccccc1,le15
929,"Phenol, 4-methyl-",354.15,1,Cc1ccc(O)cc1,le15
930,"Phenol, 3-methyl-",359.26099999999997,1,Cc1cccc(O)c1,le15
931,"Hydrazine, phenyl-",388.55,1,NNc1ccccc1,le15
932,"1,4-Benzenediamine",409.05,1,Nc1ccc(N)cc1,le15
933,"1,3-Benzenediamine",420.75,1,Nc1cccc(N)c1,le15
934,"Pyrazine, 2,6-dimethyl-",325.95,1,Cc1cncc(C)n1,le15
935,Hexanedinitrile,422.15,1,N#CCCCCC#N,le15
936,"Pyrazine, 2,5-dimethyl-",337.05,1,Cc1cnc(C)cn1,le15
937,"2-Pyridinamine, 4-methyl-",387.15,1,Cc1ccnc(N)c1,le15
938,"4,6-dimethylpyrimidine",329.15,1,Cc1cc(C)ncn1,le15
939,"Pyridine, 2-amino-3-methyl-",383.05,1,Cc1cccnc1N,le15
940,"Pyridine, 2-amino-6-methyl-",376.15,1,Cc1cccc(N)n1,le15
941,"4-Pyridinamine, 3-methyl- (9CI)",411.55,1,Cc1cnccc1N,le15
942,pyridin-2-ylmethanamine,363.15,1,NCc1ccccn1,le15
943,pyridin-3-ylmethanamine,373.15,1,NCc1cccnc1,le15
944,pyridin-4-ylmethanamine,381.45,1,NCc1ccncc1,le15
945,N-methylpyridin-2-amine,360.95,1,CNc1ccccn1,le15
946,"Pyrazine, 2,3-dimethyl-",327.55,1,Cc1nccnc1C,le15
947,"Pyrazine, 2-ethyl-",315.95,1,CCc1cnccn1,le15
948,"2,4-dimethylpyrimidine",309.85,1,Cc1ccnc(C)n1,le15
949,2-ethylbutanedinitrile,399.55,1,CCC(C#N)CC#N,le15
950,"1,2-Benzenediamine",383.15,1,Nc1ccccc1N,le15
951,"2-Pyridinamine, 5-methyl-",384.05,1,Cc1ccc(N)nc1,le15
952,Adiponitrile,432.0,1,N#CCCCCC#N,le15
953,"Cyclohexene, 4-vinyl- (8CI)",289.15,1,C=CC1CC=CCC1,le15
954,"(3E)-2,5-dimethylhexa-1,3,5-triene",291.25,1,C=C(C)/C=C/C(=C)C,le15
955,"(1Z,5Z)-cycloocta-1,5-diene",311.15,1,C1=C\CC/C=C\CC/1,le15
956,1-ethenylcyclohexene,295.85,1,C=CC1=CCCCC1,le15
957,"propane-1,3-dithiol",332.05,1,SCCCS,le15
958,"propane-1,2-dithiol",308.15,1,CC(S)CS,le15
959,bis(methylsulfanyl)methane,316.15,1,CSCSC,le15
960,"Acetic acid, 2-chloro-, methyl ester",324.85,1,COC(=O)CCl,le15
961,"Propanoic acid, 3-chloro-",398.15,1,O=C(O)CCCl,le15
962,"Carbonochloridic acid, ethyl ester",291.95,1,CCOC(=O)Cl,le15
963,"Propanoic acid, 2-chloro-",380.15,1,CC(Cl)C(=O)O,le15
964,chloromethyl acetate,282.05,1,CC(=O)OCCl,le15
965,2-methoxyacetyl chloride,301.15,1,COCC(=O)Cl,le15
966,1-chloro-2-methylpropan-2-ol,334.15,1,CC(C)(O)CCl,le15
967,1-chloro-2-ethoxyethane,288.75,1,CCOCCCl,le15
968,"1-Butanol, 4-chloro-",350.35,1,OCCCCCl,le15
969,1-chloro-3-methoxypropane,301.05,1,COCCCCl,le15
970,"Propane, 1-chloro-2,3-epithio-",330.65,1,ClCC1CS1,le15
971,Bromoethane,253.0,1,CCBr,le15
972,"Phenol, 2-amino-",441.15,1,Nc1ccccc1O,le15
973,pyridin-3-ylmethanol,370.65,1,OCc1cccnc1,le15
974,"Phenol, 4-amino-",462.15,1,Nc1ccc(O)cc1,le15
975,"Phenol, 3-amino-",428.15,1,Nc1cccc(O)c1,le15
976,3-methyl-1H-pyridin-2-one,445.85,1,Cc1ccc[nH]c1=O,le15
977,1-(1H-Pyrrol-2-yl)ethan-1-one,365.55,1,CC(=O)c1ccc[nH]1,le15
978,"Hydroxylamine, N-phenyl-",393.35,1,ONc1ccccc1,le15
979,2-methoxypyridine,305.15,1,COc1ccccn1,le15
980,"Pyridine-2,6-diyldiamine",434.45,1,Nc1cccc(N)n1,le15
981,thiophene-2-carbonitrile,326.45,1,N#Cc1cccs1,le15
982,Cyclohexanecarbonitrile,341.95,1,N#CC1CCCCC1,le15
983,"1,2,5-trimethylpyrrole",325.35,1,Cc1ccc(C)n1C,le15
984,Cyclohexanecarbonitrile,338.0,1,N#CC1CCCCC1,le15
985,1-chloro-1-nitroethane,302.85,1,CC(Cl)[N+](=O)[O-],le15
986,1-chloro-2-nitroethane,329.65,1,O=[N+]([O-])CCCl,le15
987,"Acetonitrile, dichloro-",309.15,1,N#CC(Cl)Cl,le15
988,"Phosphonic acid, dimethyl ester",302.594,1,CO[PH](=O)OC,le15
989,phenylphosphane,244.25,1,Pc1ccccc1,le15
990,"2-Furancarboxaldehyde, 5-methyl-",345.15,1,Cc1ccc(C=O)o1,le15
991,"Ethanone, 1-(2-furanyl)-",344.25,1,CC(=O)c1ccco1,le15
992,Hydroquinone,438.0,1,Oc1ccc(O)cc1,le15
993,"Pyridine, 4-amino-, 1-oxide",358.85,1,Nc1cc[n+]([O-])cc1,le15
994,"Ethanone, 1-(1H-imidazol-1-yl)-",361.15,1,CC(=O)n1ccnc1,le15
995,"Benzene, 1-fluoro-2-methyl-",284.55,1,Cc1ccccc1F,le15
996,"Benzene, 1-fluoro-4-methyl-",285.05,1,Cc1ccc(F)cc1,le15
997,"Toluene, m-fluoro- (8CI)",282.55,1,Cc1cccc(F)c1,le15
998,fluoromethylbenzene,290.55,1,FCc1ccccc1,le15
999,"Methanesulfonic acid, methyl ester",377.15,1,COS(C)(=O)=O,le15
1000,dimethyl sulfite,303.15,1,COS(=O)OC,le15
1001,3-Cyclohexene-1-carboxaldehyde,330.35,1,O=CC1CC=CCC1,le15
1002,dicyclopropylmethanone,312.55,1,O=C(C1CC1)C1CC1,le15
1003,3-methylcyclohex-2-en-1-one,341.45,1,CC1=CC(=O)CCC1,le15
1004,Cyclohexenecarboxaldehyde,344.25,1,O=CC1=CCCCC1,le15
1005,2-ethyl-5-methylfuran,288.25,1,CCc1ccc(C)o1,le15
1006,2-propylfuran,287.95,1,CCCc1ccco1,le15
1007,3-methylcyclohex-3-en-1-one,328.65,1,CC1=CCCC(=O)C1,le15
1008,1-ethynylcyclopentan-1-ol,322.05,1,C#CC1(O)CCCC1,le15
1009,2-ethyl-5-methyl-1H-imidazole,410.95,1,CCc1ncc(C)[nH]1,le15
1010,"1,3,5-trimethylpyrazole",313.15,1,Cc1cc(C)n(C)n1,le15
1011,Benzenethiol,323.75,1,Sc1ccccc1,le15
1012,oct-1-yne,290.15,1,C#CCCCCCC,le15
1013,ethenylcyclohexane,294.25,1,C=CC1CCCCC1,le15
1014,"2,4-Hexadiene, 2,5-dimethyl-",298.15,1,CC(C)=CC=C(C)C,le15
1015,cyclooctene,298.15,1,C1=CCCCCCC1,le15
1016,ethylidenecyclohexane,297.05,1,CC=C1CCCCC1,le15
1017,1-ethylcyclohexene,292.35,1,CCC1=CCCCC1,le15
1018,1-methylcycloheptene,293.75,1,CC1=CCCCCC1,le15
1019,"1,2-dimethylcyclohexene",289.95,1,CC1=C(C)CCCC1,le15
1020,3-ethylcyclohexene,286.05,1,CCC1C=CCCC1,le15
1021,oct-2-yne,297.25,1,CC#CCCCCC,le15
1022,prop-2-enylcyclopentane,285.35,1,C=CCC1CCCC1,le15
1023,"1,7-Octadiene",282.55,1,C=CCCCCC=C,le15
1024,"(2E,6E)-octa-2,6-diene",286.85,1,C/C=C/CC/C=C/C,le15
1025,"4,4-dimethylcyclohexene",275.85,1,CC1(C)CC=CCC1,le15
1026,oct-3-yne,295.15,1,CCC#CCCCC,le15
1027,2propenylcyclopentane,285.0,1,CC=CC1CCCC1,le15
1028,4octyne,291.0,1,CCCC#CCCC,le15
1029,Ethenylcyclohexane,295.0,1,C=CC1CCCCC1,le15
1030,1-chloro-4-fluorobutane,283.05,1,FCCCCCl,le15
1031,3chloro1propanethiol,316.0,1,SCCCCl,le15
1032,"1-Propene, 2,3-dichloro-",283.15,1,C=C(Cl)CCl,le15
1033,"1-Propene, 1,3-dichloro-",300.95,1,ClC=CCCl,le15
1034,"Propene, 1,2-dichloro-",288.85,1,CC(Cl)=CCl,le15
1035,"3,3-dichloroprop-1-ene",276.15,1,C=CC(Cl)Cl,le15
1036,"1-Propene, 1,1-dichloro- (9CI)",273.75,1,CC=C(Cl)Cl,le15
1037,"1-Propene, 1,3-dichloro-, (Z)- (9CI)",297.15,1,Cl/C=C\CCl,le15
1038,"(E)-1,3-dichloroprop-1-ene",300.95,1,Cl/C=C/CCl,le15
1039,"2-Propenoic acid, 2-cyano-, methyl ester",340.75,1,C=C(C#N)C(=O)OC,le15
1040,"Aniline, o-fluoro- (8CI)",333.15,1,Nc1ccccc1F,le15
1041,"Aniline, p-fluoro- (8CI)",351.05,1,Nc1ccc(F)cc1,le15
1042,"Aniline, m-fluoro- (8CI)",350.35,1,Nc1cccc(F)c1,le15
1043,1-Ethenyl-2-pyrrolidinone (9CI),367.05,1,C=CN1CCCC1=O,le15
1044,"Propanenitrile, 3-(2-propenyloxy)- (9CI)",356.05,1,C=CCOCCC#N,le15
1045,1-(furan-2-yl)-N-methylmethanamine,307.15,1,CNCc1ccco1,le15
1046,"2,4,5-Trimethyloxazole",306.45,1,Cc1nc(C)c(C)o1,le15
1047,1H-Imidazole-4-ethanamine,453.45,1,NCCc1c[nH]cn1,le15
1048,Heptane-1-nitrile,333.65,1,CCCCCCC#N,le15
1049,"2-Propyn-1-amine, N,N-diethyl-",429.15,1,C#CCN(CC)CC,le15
1050,"1-Propyn-1-amine, N,N-diethyl- (9CI)",311.85,1,CC#CN(CC)CC,le15
1051,Heptanenitrile,331.0,1,CCCCCCC#N,le15
1052,"2-Propanone, 1,1,1-trifluoro-",243.15,1,CC(=O)C(F)(F)F,le15
1053,2-Furancarboxylic acid,367.35,1,O=C(O)c1ccco1,le15
1054,"2,5-Furandione, 3-methyl-",374.15,1,CC1=CC(=O)OC1=O,le15
1055,"3,6-Pyridazinedione, 1,2-dihydro-",515.55,1,O=c1ccc(=O)[nH][nH]1,le15
1056,1H-imidazole-5-carboxylic acid,526.35,1,O=C(O)c1cnc[nH]1,le15
1057,"4(1H)-Pyrimidinone, 6-hydroxy-",443.75,1,O=c1cc(O)[nH]cn1,le15
1058,"Phenol, 2-fluoro-",319.85,1,Oc1ccccc1F,le15
1059,"Phenol, 4-fluoro-",347.95,1,Oc1ccc(F)cc1,le15
1060,3-fluorophenol,344.15,1,Oc1cccc(F)c1,le15
1061,"2-Cyclopenten-1-one, 2-hydroxy-3-methyl-",373.85,1,CC1=C(O)C(=O)CC1,le15
1062,"2H-Pyran-2-carboxaldehyde, 3,4-dihydro-",346.55,1,O=CC1CCC=CO1,le15
1063,"1,3-Cyclohexanedione",358.85,1,O=C1CCCC(=O)C1,le15
1064,"1,4-Cyclohexanedione",355.35,1,O=C1CCC(=O)CC1,le15
1065,"1,2-Cyclohexanedione",357.15,1,O=C1CCCCC1=O,le15
1066,"Acrylic acid, allyl ester (8CI)",342.35,1,C=CCOC(=O)C=C,le15
1067,"1,3-Butadien-1-ol, acetate",306.45,1,C=CC=COC(C)=O,le15
1068,"2-Propyn-1-ol, propanoate",315.25,1,C#CCOC(=O)CC,le15
1069,1-(furan-2-yl)ethanol,307.75,1,CC(O)c1ccco1,le15
1070,ethyl but-2-ynoate,326.35,1,CC#CC(=O)OCC,le15
1071,2-(methoxymethyl)furan,295.25,1,COCc1ccco1,le15
1072,"2-Butenoic acid, ethenyl ester",300.15,1,C=COC(=O)C=CC,le15
1073,"2,4-Hexadienoic acid, (2E,4E)-",400.15,1,C/C=C/C=C/C(=O)O,le15
1074,2-Thiophenecarboxaldehyde,350.95,1,O=Cc1cccs1,le15
1075,"Guanidine, N'-cyano-N,N-dimethyl-",337.55,1,CN(C)C(=N)NC#N,le15
1076,"Cyclohexanone, 2-methyl-",319.05,1,CC1CCCCC1=O,le15
1077,"Cyclohexanone, 3-methyl-",321.15,1,CC1CCCC(=O)C1,le15
1078,2-Heptyn-1-ol,351.15,1,CCCCC#CCO,le15
1079,2-Methylenehexanal,306.45,1,C=C(C=O)CCCC,le15
1080,"hepta-1,6-dien-4-ol",313.15,1,C=CCC(O)CC=C,le15
1081,"5-Hexen-2-one, 5-methyl-",311.85,1,C=C(C)CCC(C)=O,le15
1082,"2,5-dimethylcyclopentan-1-one",313.75,1,CC1CCC(C)C1=O,le15
1083,"3-Hexen-2-one, 5-methyl-",320.65,1,CC(=O)C=CC(C)C,le15
1084,1-cyclopentylethanone,320.15,1,CC(=O)C1CCCC1,le15
1085,"3-Pentanol, 3-ethynyl-",310.95,1,C#CC(O)(CC)CC,le15
1086,1-Heptyn-3-ol,323.95,1,C#CC(O)CCCC,le15
1087,5-Methyl-1-hexyn-3-ol,323.25,1,C#CC(O)CC(C)C,le15
1088,cycloheptanone,330.15,1,O=C1CCCCCC1,le15
1089,"Cyclohexanone, 4-methyl-",319.05,1,CC1CCC(=O)CC1,le15
1090,"1-Pentyn-3-ol, 3,4-dimethyl-",310.35,1,C#CC(C)(O)C(C)C,le15
1091,cyclohexanecarbaldehyde,314.15,1,O=CC1CCCCC1,le15
1092,(E)-hept-2-enal,326.85,1,CCCC/C=C/C=O,le15
1093,"Ether, 2-butenyl propenyl",287.55,1,CC=CCOC=CC,le15
1094,2methylcyclohexanone,321.0,1,CC1CCCCC1=O,le15
1095,Cycloheptanone,358.0,1,O=C1CCCCCC1,le15
1096,"1,4-Diazabicyclo(2.2.2)octane",335.35,1,C1CN2CCN1CC2,le15
1097,"Hydrazine, 1,1-di-2-propenyl- (9CI)",327.15,1,C=CCN(N)CC=C,le15
1098,"Hexanenitrile, 6-amino-",366.75,1,N#CCCCCCN,le15
1099,"Acetonitrile, (diethylamino)-",327.05,1,CCN(CC)CC#N,le15
1100,"2,3-dimethylthiophene",298.95,1,Cc1ccsc1C,le15
1101,"2,4-dimethylthiophene",296.15,1,Cc1csc(C)c1,le15
1102,2-ethylthiophene,294.25,1,CCc1cccs1,le15
1103,"2,5-dimethylthiophene",297.05,1,Cc1ccc(C)s1,le15
1104,3-ethylthiophene,295.95,1,CCc1ccsc1,le15
1105,"1-Pentene, 2,4,4-trimethyl-",267.05,1,C=C(C)CC(C)(C)C,le15
1106,(E)-oct-2-ene,289.75,1,C/C=C/CCCCC,le15
1107,"2,3,4-trimethylpent-2-ene",285.95,1,CC(C)=C(C)C(C)C,le15
1108,"1,1-dimethylcyclohexane",280.35,1,CC1(C)CCCCC1,le15
1109,(E)-oct-4-ene,294.25,1,CCC/C=C/CCC,le15
1110,"(1R,2R)-1-ethyl-2-methylcyclopentane",286.65,1,CC[C@@H]1CCC[C@H]1C,le15
1111,"Heptane, 3-methylene-",283.55,1,C=C(CC)CCCC,le15
1112,"(1R,3R)-1,3-dimethylcyclohexane",282.55,1,C[C@@H]1CCC[C@@H](C)C1,le15
1113,"1,2,4-trimethylcyclopentane",282.35,1,CC1CC(C)C(C)C1,le15
1114,3-ethylhex-1-ene,288.65,1,C=CC(CC)CCC,le15
1115,3-methyl-4-methylidenehexane,279.85,1,C=C(CC)C(C)CC,le15
1116,"3,3-dimethylhex-1-ene",283.85,1,C=CC(C)(C)CCC,le15
1117,propan-2-ylcyclopentane,287.25,1,CC(C)C1CCCC1,le15
1118,methylcycloheptane,293.05,1,CC1CCCCCC1,le15
1119,"1,1,2-trimethylcyclopentane",279.55,1,CC1CCCC1(C)C,le15
1120,(E)-4-methylhept-3-ene,282.35,1,CC/C=C(\C)CCC,le15
1121,"1,1,3-trimethylcyclopentane",279.55,1,CC1CCC(C)(C)C1,le15
1122,"1,2,4-trimethylcyclopentane",282.35,1,CC1CC(C)C(C)C1,le15
1123,"2,3-dimethylhex-2-ene",288.75,1,CCCC(C)=C(C)C,le15
1124,5-methylhept-1-ene,288.65,1,C=CCCC(C)CC,le15
1125,(4R)-4-methylhept-1-ene,288.65,1,C=CC[C@H](C)CCC,le15
1126,"3,4-dimethylhex-1-ene",283.85,1,C=CC(C)C(C)CC,le15
1127,"2,3-dimethylhex-1-ene",279.85,1,C=C(C)C(C)CCC,le15
1128,1-ethyl-1-methylcyclopentane,283.75,1,CCC1(C)CCCC1,le15
1129,"1,2,4-trimethylcyclopentane",282.35,1,CC1CC(C)C(C)C1,le15
1130,3-ethyl-2-methylpent-1-ene,279.85,1,C=C(C)C(CC)CC,le15
1131,"(Z)-5,5-dimethylhex-2-ene",281.55,1,C/C=C\CC(C)(C)C,le15
1132,"1,2-dimethylcyclohexane",288.75,1,CC1CCCCC1C,le15
1133,1-ethyl-2-methylcyclopentane,286.65,1,CCC1CCCC1C,le15
1134,"Cyclohexane, 1,2-dimethyl-, (1R,2S)-rel-",288.75,1,C[C@H]1CCCC[C@H]1C,le15
1135,"1,4-dimethylcyclohexane",288.75,1,CC1CCC(C)CC1,le15
1136,"1,2,3-trimethylcyclopentane",282.394,1,CC1CCC(C)C1C,le15
1137,6-methylhept-1-ene,288.65,1,C=CCCCC(C)C,le15
1138,trans-Oct-2-ene,294.25,1,C/C=C/CCCCC,le15
1139,(E)-oct-3-ene,288.25,1,CC/C=C/CCCC,le15
1140,"4,5-dimethylhex-1-ene",283.85,1,C=CCC(C)C(C)C,le15
1141,1ethyl1methylcyclopentane,279.0,1,CCC1(C)CCCC1,le15
1142,1octene,286.0,1,C=CCCCCCC,le15
1143,2methyl1heptene,283.0,1,C=C(C)CCCCC,le15
1144,2methyl2heptene,281.0,1,CCCCC=C(C)C,le15
1145,Cyclooctane,301.0,1,C1CCCCCCC1,le15
1146,2-chloro-2-fluoroacetic acid,331.75,1,O=C(O)C(F)Cl,le15
1147,(Z)-2-chlorobut-2-enedinitrile,341.55,1,N#C/C=C(\Cl)C#N,le15
1148,"Acetyl chloride, chloro-",307.15,1,O=C(Cl)CCl,le15
1149,"s-Triazine-2,4(1H,3H)-dione (8CI)",574.05,1,O=c1nc[nH]c(=O)[nH]1,le15
1150,4-Nitro-1H-imidazole (9CI),471.75,1,O=[N+]([O-])c1c[nH]cn1,le15
1151,"2,5-Pyrrolidinedione, 1-methyl-",379.05,1,CN1C(=O)CCC1=O,le15
1152,methyl 3-cyanopropanoate,360.65,1,COC(=O)CCC#N,le15
1153,Hexahydro-2H-azepin-2-one (9CI),409.85,1,O=C1CCCCCN1,le15
1154,"2-Propenamide, N-(1-methylethyl)-",392.85,1,C=CC(=O)NC(C)C,le15
1155,"2-Pyrrolidinone, 1-ethyl-",349.25,1,CCN1CCCC1=O,le15
1156,"Acetamide, N-ethyl-N-vinyl-",345.65,1,C=CN(CC)C(C)=O,le15
1157,"2H-Pyran-2-methanamine, 3,4-dihydro- (9CI)",343.65,1,NCC1CCC=CO1,le15
1158,"Cyclohexanone, oxime",363.15,1,ON=C1CCCCC1,le15