,compound,flashpoint,pure substance,smiles,source
9323,"Formamidine, N,N'-diphenyl- (6CI,7CI,8CI)",421.25,1.0,C(=Nc1ccccc1)Nc1ccccc1,le15
9324,(4-methylphenyl)-phenyldiazene,431.45,1.0,Cc1ccc(N=Nc2ccccc2)cc1,le15
9325,2-phenylpropan-2-ylbenzene,395.05,1.0,CC(C)(c1ccccc1)c1ccccc1,le15
9326,1-phenylpropylbenzene,396.55,1.0,CCC(c1ccccc1)c1ccccc1,le15
9327,"Methane, di-p-tolyl-",408.35,1.0,Cc1ccc(Cc2ccc(C)cc2)cc1,le15
9328,1-phenylpropan-2-ylbenzene,385.05,1.0,CC(Cc1ccccc1)c1ccccc1,le15
9329,"Biphenyl, 4-isopropyl-",406.45,1.0,CC(C)c1ccc(-c2ccccc2)cc1,le15
9330,3-phenylpropylbenzene,402.35,1.0,c1ccc(CCCc2ccccc2)cc1,le15
9331,"3-Cyclohexene-1-methanol, alpha,alpha,4-trimethyl-, acetate",356.15,1.0,CC(=O)OC(C)(C)C1CC=C(C)CC1,le15
9332,"2,6-Octadien-1-ol, 3,7-dimethyl-, acetate, (2E)-",372.05,1.0,CC(=O)OC/C=C(\C)CCC=C(C)C,le15
9333,"Bicyclo(2.2.1)heptan-2-ol, 1,7,7-trimethyl-, acetate, (1R,2R,4R)-rel-",360.95,1.0,CC(=O)O[C@@H]1C[C@H]2CC[C@]1(C)C2(C)C,le15
9334,"2,6-Octadien-1-ol, 3,7-dimethyl-, acetate, (2Z)-",372.05,1.0,CC(=O)OC/C=C(/C)CCC=C(C)C,le15
9335,"Cyclohexanepropanoic acid, 2-propenyl ester",381.85,1.0,C=CCOC(=O)CCC1CCCCC1,le15
9336,"3,7-dimethylocta-2,6-dienyl acetate",372.05,1.0,CC(=O)OCC=C(C)CCC=C(C)C,le15
9337,"3,7-dimethylocta-1,6-dien-3-yl acetate",473.45,1.0,C=CC(C)(CCC=C(C)C)OC(C)=O,le15
9338,"(4,7,7-trimethyl-3-bicyclo[2.2.1]heptanyl) acetate",362.05,1.0,CC(=O)OC1CC2CCC1(C)C2(C)C,le15
9339,"Phosphonodithious acid, methyl-, dipropyl ester",382.15,1.0,CCCSP(C)SCCC,le15
9340,"9-Undecen-2-one, 6,10-dimethyl-",377.35,1.0,CC(=O)CCCC(C)CCC=C(C)C,le15
9341,"1-Propanethiol, 3-(trimethoxysilyl)-",322.0499999999999,1.0,CO[Si](CCCS)(OC)OC,le15
9342,1-(2-piperidin-1-ylethyl)piperidine,380.85,1.0,C1CCN(CCN2CCCCC2)CC1,le15
9343,octylcyclohexane,378.55,1.0,CCCCCCCCC1CCCCC1,le15
9344,nonylcyclopentane,377.35,1.0,CCCCCCCCCC1CCCC1,le15
9345,1-Tetradecene,388.75,1.0,C=CCCCCCCCCCCCC,le15
9346,"Benzenamine, 2,4,6-trichloro-",383.25,1.0,Nc1c(Cl)cc(Cl)cc1Cl,le15
9347,"Aniline, 2,4,5-trichloro- (8CI)",398.05,1.0,Nc1cc(Cl)c(Cl)cc1Cl,le15
9348,"3,4,5-Trichloroaniline",417.35,1.0,Nc1cc(Cl)c(Cl)c(Cl)c1,le15
9349,"2,4-Imidazolidinedione, 1,3-dichloro-5,5-dimethyl-",356.85,1.0,CC1(C)C(=O)N(Cl)C(=O)N1Cl,le15
9350,2-Hydroxypropyl bromoacetate,388.65,1.0,CC(O)COC(=O)CBr,le15
9351,"Naphthalene, 1,4-dichloro-",410.75,1.0,Clc1ccc(Cl)c2ccccc12,le15
9352,"1,2-dichloronaphthalene",414.75,1.0,Clc1ccc2ccccc2c1Cl,le15
9353,"2,6-dichloronaphthalene",404.85,1.0,Clc1ccc2cc(Cl)ccc2c1,le15
9354,"1,7-dichloronaphthalene",405.25,1.0,Clc1ccc2cccc(Cl)c2c1,le15
9355,"1,3-dichloronaphthalene",412.65,1.0,Clc1cc(Cl)c2ccccc2c1,le15
9356,"1,9-dichlorononane",371.15,1.0,ClCCCCCCCCCCl,le15
9357,"Benzenamine, 4,6-dinitro-3-methyl- (9CI)",475.65,1.0,Cc1cc(N)c([N+](=O)[O-])cc1[N+](=O)[O-],le15
9358,"Alanine, 3-(3,4-dihydroxyphenyl)-, L-",498.15,1.0,N[C@@H](Cc1ccc(O)c(O)c1)C(=O)O,le15
9359,"Benzene, 1-(dimethoxymethyl)-2-nitro-",372.05,1.0,COC(OC)c1ccccc1[N+](=O)[O-],le15
9360,"Ethanol, 2-((4-amino-2-nitrophenyl)amino)-",505.05,1.0,Nc1ccc(NCCO)c([N+](=O)[O-])c1,le15
9361,"Benzenesulfonyl isocyanate, 4-methyl-",401.65,1.0,Cc1ccc(S(=O)(=O)N=C=O)cc1,le15
9362,"9H-Fluoren-2-amine, N-hydroxy- (9CI)",458.95,1.0,ONc1ccc2c(c1)Cc1ccccc1-2,le15
9363,"Phenol, 4-((phenylmethylene)amino)- (9CI)",512.15,1.0,Oc1ccc(N=Cc2ccccc2)cc1,le15
9364,"Methanone, (4-aminophenyl)phenyl-",416.15,1.0,Nc1ccc(C(=O)c2ccccc2)cc1,le15
9365,"1-Triazene, 1,3-diphenyl-",411.35,1.0,c1ccc(N=NNc2ccccc2)cc1,le15
9366,"s-Triazin-2-ol, 4-(ethylamino)-6-(isopropylamino)- (7CI,8CI)",392.85,1.0,CCNc1nc(O)nc(NC(C)C)n1,le15
9367,N-benzyl-1-phenylmethanamine,416.45,1.0,c1ccc(CNCc2ccccc2)cc1,le15
9368,4-methyl-N-(4-methylphenyl)aniline,440.75,1.0,Cc1ccc(Nc2ccc(C)cc2)cc1,le15
9369,4-(3-phenylpropyl)pyridine,386.15,1.0,c1ccc(CCCc2ccncc2)cc1,le15
9370,N-benzyl-2-methylaniline,429.45,1.0,Cc1ccccc1NCc1ccccc1,le15
9371,N-benzyl-4-methylaniline,425.95,1.0,Cc1ccc(NCc2ccccc2)cc1,le15
9372,"1,2-diphenylethanamine",409.95,1.0,NC(Cc1ccccc1)c1ccccc1,le15
9373,Azacyclotridecan-2-one,461.35,1.0,O=C1CCCCCCCCCCCN1,le15
9374,"2-Pyrrolidinone, 1-octyl-",402.15,1.0,CCCCCCCCN1CCCC1=O,le15
9375,"Phenol, 2,4,6-trichloro-",369.05,1.0,Oc1c(Cl)cc(Cl)cc1Cl,le15
9376,"Phenol, 2,3,6-trichloro-",366.45,1.0,Oc1c(Cl)ccc(Cl)c1Cl,le15
9377,"Phenol, 2,3,5-trichloro-",378.25,1.0,Oc1cc(Cl)cc(Cl)c1Cl,le15
9378,"Phenol, 2,4,5-trichloro-",381.05,1.0,Oc1cc(Cl)c(Cl)cc1Cl,le15
9379,"2-Benzoxazolinone, 5-chloro-3-ethyl-",412.45,1.0,CCn1c(=O)oc2ccc(Cl)cc21,le15
9380,"Propanamide, 3-chloro-N-(phenylmethyl)- (9CI)",460.95,1.0,O=C(CCCl)NCc1ccccc1,le15
9381,"Isocyanic acid, p-bromophenyl ester (6CI,7CI,8CI)",382.15,1.0,O=C=Nc1ccc(Br)cc1,le15
9382,"2,4-Dichlorochinoline",427.35,1.0,Clc1cc(Cl)c2ccccc2n1,le15
9383,"Butane, 1-iodo-3-methyl-",319.15,1.0,CC(C)CCI,le15
9384,2-iodopentane,317.75,1.0,CCCC(C)I,le15
9385,1iodopentane,316.0,1.0,CCCCCI,le15
9386,"1,2,3,4,5-pentafluoro-6-methoxybenzene",305.35,1.0,COc1c(F)c(F)c(F)c(F)c1F,le15
9387,"Benzenemethanol, 2,3,4,5,6-pentafluoro- (9CI)",360.15,1.0,OCc1c(F)c(F)c(F)c(F)c1F,le15
9388,"Phenol, 2-methyl-3,5-dinitro- (9CI)",431.35,1.0,Cc1c(O)cc([N+](=O)[O-])cc1[N+](=O)[O-],le15
9389,"Phenol, 4-methyl-2,6-dinitro-",390.85,1.0,Cc1cc([N+](=O)[O-])c(O)c([N+](=O)[O-])c1,le15
9390,"Benzyl alcohol, 2,4-dinitro-",444.35,1.0,O=[N+]([O-])c1ccc(CO)c([N+](=O)[O-])c1,le15
9391,"Anisole, 2,4-dinitro- (8CI)",453.65,1.0,COc1ccc([N+](=O)[O-])cc1[N+](=O)[O-],le15
9392,"Phenol, 2-methyl-4,6-dinitro-",422.35,1.0,Cc1cc([N+](=O)[O-])cc([N+](=O)[O-])c1O,le15
9393,"Hydrazine, (2,4-dinitrophenyl)-",455.95,1.0,NNc1ccc([N+](=O)[O-])cc1[N+](=O)[O-],le15
9394,"Hydrazinecarboxamide, 2-((5-nitro-2-furanyl)methylene)-",275.15,1.0,NC(=O)NN=Cc1ccc([N+](=O)[O-])o1,le15
9395,"Naphthalene-1,8-dicarboxylic anhydride",479.95,1.0,O=C1OC(=O)c2cccc3cccc1c23,le15
9396,"Benzaldehyde, 4-phenoxy- (9CI)",385.15,1.0,O=Cc1ccc(Oc2ccccc2)cc1,le15
9397,"Benzophenone, 4-hydroxy- (6CI,7CI,8CI)",429.85,1.0,O=C(c1ccccc1)c1ccc(O)cc1,le15
9398,9H-Xanthen-9-ol,429.75,1.0,OC1c2ccccc2Oc2ccccc21,le15
9399,2-phenylbenzoic acid,616.65,1.0,O=C(O)c1ccccc1-c1ccccc1,le15
9400,"Benzenamine, N-nitroso-N-phenyl-",436.55,1.0,O=NN(c1ccccc1)c1ccccc1,le15
9401,"1,2-Propanediol, 3-(2-methoxyphenoxy)-",442.75,1.0,COc1ccccc1OCC(O)CO,le15
9402,"Diazene, diphenyl-, 1-oxide",430.15,1.0,[O-][N+](=Nc1ccccc1)c1ccccc1,le15
9403,"Hexanedioic acid, diethenyl ester (9CI)",395.35,1.0,C=COC(=O)CCCCC(=O)OC=C,le15
9404,"2,4,6(1H,3H,5H)-Pyrimidinetrione, 5,5-diethyl-1-methyl-",409.55,1.0,CCC1(CC)C(=O)NC(=O)N(C)C1=O,le15
9405,"Methane, bromotrichloro-",291.75,1.0,ClC(Cl)(Cl)Br,le15
9406,"Benzene, 1,1'-(oxybis(methylene))bis-",408.15,1.0,c1ccc(COCc2ccccc2)cc1,le15
9407,1-methyl-2-(2-methylphenoxy)benzene,387.45,1.0,Cc1ccccc1Oc1ccccc1C,le15
9408,"1,1-Biphenyl, 3-ethoxy-",393.85,1.0,CCOc1cccc(-c2ccccc2)c1,le15
9409,"9-Acridinamine, 1,2,3,4-tetrahydro- (9CI)",503.65,1.0,Nc1c2c(nc3ccccc13)CCCC2,le15
9410,"Carbonic acid, ethyl octynyl ester",372.55,1.0,CCCCCCC#COC(=O)OCC,le15
9411,9H-thioxanthene,419.45,1.0,c1ccc2c(c1)Cc1ccccc1S2,le15
9412,"1,6-dimethyl-4-propan-2-ylnaphthalene",413.45,1.0,Cc1ccc2c(C)ccc(C(C)C)c2c1,le15
9413,"Azulene, 1,4-dimethyl-7-(1-methylethyl)-",386.15,1.0,Cc1ccc(C(C)C)cc2c(C)ccc1-2,le15
9414,"Cyclohexanol, 2-(1,1-dimethylethyl)-, acetate",363.95,1.0,CC(=O)OC1CCCCC1C(C)(C)C,le15
9415,"[(1S,2R,5S)-5-methyl-2-propan-2-ylcyclohexyl] acetate",360.15,1.0,CC(=O)O[C@H]1C[C@@H](C)CC[C@@H]1C(C)C,le15
9416,methyl undec-10-enoate,372.45,1.0,C=CCCCCCCCCC(=O)OC,le15
9417,"7-Octen-1-ol, 3,7-dimethyl-, acetate",359.95,1.0,C=C(C)CCCC(C)CCOC(C)=O,le15
9418,"6-Octen-1-ol, 3,7-dimethyl-, acetate",361.35,1.0,CC(=O)OCCC(C)CCC=C(C)C,le15
9419,"Cyclohexanol, 5-methyl-2-(1-methylethyl)-, acetate (8CI)",365.35,1.0,CC(=O)OC1CC(C)CCC1C(C)C,le15
9420,"Acetaldehyde, ((3,7-dimethyl-6-octenyl)oxy)-",365.85,1.0,CC(C)=CCCC(C)CCOCC=O,le15
9421,"Urea, 3-cyclooctyl-1,1-dimethyl-",444.35,1.0,CN(C)C(=O)NC1CCCCCCC1,le15
9422,"Guanidine, (2-(hexahydro-1(2H)-azocinyl)ethyl)-",435.95,1.0,N=C(N)NCCN1CCCCCCC1,le15
9423,Tridecan-7-one,352.85,1.0,CCCCCCC(=O)CCCCCC,le15
9424,2-Tridecanone,356.45,1.0,CCCCCCCCCCCC(C)=O,le15
9425,cyclohexylsulfanylcyclohexane,396.25,1.0,C1CCC(SC2CCCCC2)CC1,le15
9426,"4-Pyridinol, 2,3,5-trichloro-",372.95,1.0,Oc1c(Cl)cnc(Cl)c1Cl,le15
9427,"3,5,6-Trichloro-2(1H)-pyridinone",381.05,1.0,O=c1[nH]c(Cl)c(Cl)cc1Cl,le15
9428,"Urea, N'-(4-chlorophenyl)-N,N-dimethyl-",443.95,1.0,CN(C)C(=O)Nc1ccc(Cl)cc1,le15
9429,chloro(triethoxy)silane,313.25,1.0,CCO[Si](Cl)(OCC)OCC,le15
9430,"Acetonitrile, dibromo-",305.0499999999999,1.0,N#CC(Br)Br,le15
9431,"2-Propanone, 1,3-dichloro-1,1,3,3-tetrafluoro-",275.15,1.0,O=C(C(F)(F)Cl)C(F)(F)Cl,le15
9432,"Quinoxaline, 2,3-dichloro-",416.05,1.0,Clc1nc2ccccc2nc1Cl,le15
9433,"Acetophenone, 2-bromo- (8CI)",351.54999999999984,1.0,O=C(CBr)c1ccccc1,le15
9434,"2-bromo-1,3,5-trimethylbenzene",369.25,1.0,Cc1cc(C)c(Br)c(C)c1,le15
9435,1-bromo-4-propan-2-ylbenzene,360.45,1.0,CC(C)c1ccc(Br)cc1,le15
9436,1-bromopropan-2-ylbenzene,359.04999999999984,1.0,CC(CBr)c1ccccc1,le15
9437,"1-bromo-2,4,5-trimethylbenzene",386.15,1.0,Cc1cc(C)c(Br)cc1C,le15
9438,3-bromopropylbenzene,374.85,1.0,BrCCCc1ccccc1,le15
9439,"Phenol, 2-amino-4,6-dinitro-",460.65,1.0,Nc1cc([N+](=O)[O-])cc([N+](=O)[O-])c1O,le15
9440,"1,1'-Biphenyl, 2-nitro- (9CI)",452.15,1.0,O=[N+]([O-])c1ccccc1-c1ccccc1,le15
9441,"1,1'-Biphenyl, 4-nitro-",316.15,1.0,O=[N+]([O-])c1ccc(-c2ccccc2)cc1,le15
9442,"Acenaphthylene, 1,2-dihydro-5-nitro-",464.95,1.0,O=[N+]([O-])c1ccc2c3c(cccc13)CC2,le15
9443,"1,1'-Biphenyl, 3-nitro- (9CI)",434.55,1.0,O=[N+]([O-])c1cccc(-c2ccccc2)c1,le15
9444,"Furo(2,3-b)quinoline, 4-methoxy-",434.537,1.0,COc1c2ccccc2nc2occc12,le15
9445,"Acenaphthylene, 1,2-dihydro-3-nitro- (9CI)",473.45,1.0,O=[N+]([O-])c1ccc2cccc3c2c1CC3,le15
9446,"Benzenamine, 3-(phenylmethoxy)-",457.55,1.0,Nc1cccc(OCc2ccccc2)c1,le15
9447,10H-Phenothiazine,451.35,1.0,c1ccc2c(c1)Nc1ccccc1S2,le15
9448,"N,N-diethylnaphthalen-1-amine",394.25,1.0,CCN(CC)c1cccc2ccccc12,le15
9449,1-Tridecanamine,383.75,1.0,CCCCCCCCCCCCCN,le15
9450,"2(3H)-Benzoxazolone, 6-chloro-3-(hydroxymethyl)-",436.65,1.0,O=c1oc2cc(Cl)ccc2n1CO,le15
9451,4'-Chloro-3'-nitroacetophenone,401.15,1.0,CC(=O)c1ccc(Cl)c([N+](=O)[O-])c1,le15
9452,"1,1-dibromoprop-1-ene",283.0499999999999,1.0,CC=C(Br)Br,le15
9453,"Propene, 2,3-dibromo- (8CI)",354.15,1.0,C=C(Br)CBr,le15
9454,"1,3-Propanediol, 2-bromo-2-nitro-",443.45,1.0,O=[N+]([O-])C(Br)(CO)CO,le15
9455,"Formamide, N-(4-bromophenyl)- (9CI)",429.15,1.0,O=CNc1ccc(Br)cc1,le15
9456,"1-Butanol, 2,2,3,3,4,4,4-heptafluoro-",298.15,1.0,OCC(F)(F)C(F)(F)C(F)(F)F,le15
9457,"Ether, fluoromethyl 2,2,2-trifluoro-1-(trifluoromethyl)ethyl-",331.15,1.0,FCOC(C(F)(F)F)C(F)(F)F,le15
9458,"4-bromo-N,N-dimethylaniline",377.85,1.0,CN(C)c1ccc(Br)cc1,le15
9459,"Terephthalonitrile, tetrafluoro- (8CI)",374.05,1.0,N#Cc1c(F)c(F)c(C#N)c(F)c1F,le15
9460,"2,3,4,5,6-pentafluorobenzenethiol",324.85,1.0,Fc1c(F)c(F)c(S)c(F)c1F,le15
9461,"2,2,3,3-tetrafluoropropyl 2-methylprop-2-enoate",323.75,1.0,C=C(C)C(=O)OCC(F)(F)C(F)F,le15
9462,"Benzimidazole, 5-methyl-2-(trifluoromethyl)-",397.55,1.0,Cc1ccc2nc(C(F)(F)F)[nH]c2c1,le15
9463,"Phenol, 4-(phenylmethoxy)-",486.55,1.0,Oc1ccc(OCc2ccccc2)cc1,le15
9464,"Phenol, 4,4'-methylenedi- (8CI)",466.05,1.0,Oc1ccc(Cc2ccc(O)cc2)cc1,le15
9465,o-Methoxyphenyl phenylether,385.15,1.0,COc1ccccc1Oc1ccccc1,le15
9466,"Naphthalene, 1-(2,3-epoxypropoxy)-",425.15,1.0,c1ccc2c(OCC3CO3)cccc2c1,le15
9467,"Phenol, 2,4'-methylenedi- (8CI)",458.05,1.0,Oc1ccc(Cc2ccccc2O)cc1,le15
9468,ethyl naphthalene-2-carboxylate,421.85,1.0,CCOC(=O)c1ccc2ccccc2c1,le15
9469,"Oxirane, ((2-naphthalenyloxy)methyl)- (9CI)",425.15,1.0,c1ccc2cc(OCC3CO3)ccc2c1,le15
9470,ethyl naphthalene-1-carboxylate,421.85,1.0,CCOC(=O)c1cccc2ccccc12,le15
9471,"dimethyl cyclohexane-1,4-dicarboxylate",367.15,1.0,COC(=O)C1CCC(C(=O)OC)CC1,le15
9472,"Propanedioic acid, 2-propenyl-, diethyl ester",365.15,1.0,CC=CC(C(=O)OCC)C(=O)OCC,le15
9473,dipropyl (E)-but-2-enedioate,392.75,1.0,CCCOC(=O)/C=C/C(=O)OCCC,le15
9474,"diethyl cyclobutane-1,1-dicarboxylate",362.15,1.0,CCOC(=O)C1(C(=O)OCC)CCC1,le15
9475,"Propanedioic acid, (1-methylethylidene)-, diethyl ester",382.55,1.0,CCOC(=O)C(C(=O)OCC)=C(C)C,le15
9476,Dibenzooxathiane,415.85,1.0,c1ccc2c(c1)OSc1ccccc1-2,le15
9477,"Dibenzothiophene, 5-oxide (8CI)(9CI)",469.35,1.0,O=S1c2ccccc2-c2ccccc21,le15
9478,"Benzenesulfonic acid, 4-methyl-, ethyl ester",430.15,1.0,CCOS(=O)(=O)c1ccc(C)cc1,le15
9479,"Barbituric acid, 1,3-diethyl-2-thio- (8CI)",392.35,1.0,CCN1C(=O)CC(=O)N(CC)C1=S,le15
9480,"1H-Indole, 3-(1-methyl-3-pyrrolidinyl)- (9CI)",445.65,1.0,CN1CCC(c2c[nH]c3ccccc23)C1,le15
9481,4-(2-morpholin-4-ylethyl)morpholine,352.75,1.0,C1CN(CCN2CCOCC2)CCO1,le15
9482,"Decanoic acid, ethyl ester",375.15,1.0,CCCCCCCCCC(=O)OCC,le15
9483,octyl butanoate,376.45,1.0,CCCCCCCCOC(=O)CCC,le15
9484,"Acetic acid, decyl ester",374.45,1.0,CCCCCCCCCCOC(C)=O,le15
9485,"Undecanoic acid, methyl ester",382.55,1.0,CCCCCCCCCCC(=O)OC,le15
9486,heptyl pentanoate,372.15,1.0,CCCCCCCOC(=O)CCCC,le15
9487,hexyl hexanoate,372.55,1.0,CCCCCCOC(=O)CCCCC,le15
9488,pentyl heptanoate,372.15,1.0,CCCCCCC(=O)OCCCCC,le15
9489,"Isobutyric acid, octyl ester (6CI,7CI,8CI)",367.15,1.0,CCCCCCCCOC(=O)C(C)C,le15
9490,butyl octanoate,372.15,1.0,CCCCCCCC(=O)OCCCC,le15
9491,"N,N'-Bis(3-aminopropyl)piperazine",436.15,1.0,NCCCN1CCN(CCCN)CC1,le15
9492,(1-chloro-3-nitrooxypropan-2-yl) nitrate,378.75,1.0,O=[N+]([O-])OCC(CCl)O[N+](=O)[O-],le15
9493,"Propanoic acid, 2-(3-chlorophenoxy)-",419.55,1.0,CC(Oc1cccc(Cl)c1)C(=O)O,le15
9494,"Acetic acid, (4-chloro-2-methylphenoxy)-",424.75,1.0,Cc1cc(Cl)ccc1OCC(=O)O,le15
9495,"Ethanol, 2-(4-chloro-3,5-dimethylphenoxy)- (9CI)",421.95,1.0,Cc1cc(OCCO)cc(C)c1Cl,le15
9496,"Benzaldehyde, 3-bromo-4-hydroxy-",384.95,1.0,O=Cc1ccc(O)c(Br)c1,le15
9497,3-bromobenzoic acid,413.35,1.0,O=C(O)c1cccc(Br)c1,le15
9498,"Benzaldehyde, 5-bromo-2-hydroxy-",376.55,1.0,O=Cc1cc(Br)ccc1O,le15
9499,1-bromo-4-ethoxybenzene,375.95,1.0,CCOc1ccc(Br)cc1,le15
9500,"Phenol, 4-bromo-2,6-dimethyl-",379.95,1.0,Cc1cc(Br)cc(C)c1O,le15
9501,"Benzenamine, 5-fluoro-2,4-dinitro-",483.95,1.0,Nc1cc(F)c([N+](=O)[O-])cc1[N+](=O)[O-],le15
9502,"1H-Indazol-3-amine, 5-(trifluoromethyl)- (9CI)",443.75,1.0,Nc1n[nH]c2ccc(C(F)(F)F)cc12,le15
9503,"Benzimidazole, 5-amino-2-(trifluoromethyl)-",440.45,1.0,Nc1ccc2nc(C(F)(F)F)[nH]c2c1,le15
9504,"Carbamic acid, methyl-, 1-naphthyl ester",426.15,1.0,CNC(=O)Oc1cccc2ccccc12,le15
9505,"Acetamide, N-hydroxy-N-2-naphthalenyl- (9CI)",456.95,1.0,CC(=O)N(O)c1ccc2ccccc2c1,le15
9506,"4-Pyrimidinol, 2-amino-5-methyl-6-phenyl-",455.35,1.0,Cc1c(O)nc(N)nc1-c1ccccc1,le15
9507,"1H-Benzimidazole, 2-(4-thiazolyl)-",499.35,1.0,c1ccc2[nH]c(-c3cscn3)nc2c1,le15
9508,"Benzene, 1-(1-isocyanato-1-methylethyl)-3-(1-methylethenyl)-",406.45,1.0,C=C(C)c1cccc(C(C)(C)N=C=O)c1,le15
9509,"Isocyanic acid, p-isopropenyl-alpha,alpha-dimethylbenzyl ester",357.15,1.0,C=C(C)c1ccc(C(C)(C)N=C=O)cc1,le15
9510,"Undecanoic acid, 11-amino-",429.45,1.0,NCCCCCCCCCCC(=O)O,le15
9511,"Silane, (3-cyanopropyl)diethoxy(methyl)-",377.25,1.0,CCO[Si](C)(CCCC#N)OCC,le15
9512,"Benzoic acid, 4-chloro-3-nitro-",451.65,1.0,O=C(O)c1ccc(Cl)c([N+](=O)[O-])c1,le15
9513,"1,3,5-Triazine-2,4-diamine, 6-chloro-N,N'-diethyl-",448.15,1.0,CCNc1nc(Cl)nc(NCC)n1,le15
9514,"1,3,5-Triazine-2,4-diamine, 6-chloro-N-methyl-N'-(1-methylethyl)-",443.25,1.0,CNc1nc(Cl)nc(NC(C)C)n1,le15
9515,"2(3H)-Benzothiazolethione, 5-chloro- (9CI)",428.45,1.0,S=c1[nH]c2cc(Cl)ccc2s1,le15
9516,2-bromoacetyl bromide,345.15,1.0,O=C(Br)CBr,le15
9517,"2,2-dibromopropane",274.85,1.0,CC(C)(Br)Br,le15
9518,"Propane, 1,2-dibromo-",308.15,1.0,CC(Br)CBr,le15
9519,"Propane, 1,3-dibromo-",327.5499999999999,1.0,BrCCCBr,le15
9520,"Benzene, 1-bromo-2-nitro-",360.95,1.0,O=[N+]([O-])c1ccccc1Br,le15
9521,"Benzene, 1-bromo-3-nitro-",376.75,1.0,O=[N+]([O-])c1cccc(Br)c1,le15
9522,"Benzene, 1-bromo-4-nitro-",528.15,1.0,O=[N+]([O-])c1ccc(Br)cc1,le15
9523,"Pentanedinitrile, hexafluoro- (9CI)",293.75,1.0,N#CC(F)(F)C(F)(F)C(F)(F)C#N,le15
9524,"Phosphorous acid, tri-2-propenyl ester",359.85,1.0,C=CCOP(OCC=C)OCC=C,le15
9525,"Phenol, 4,4'-oxybis-",456.35,1.0,Oc1ccc(Oc2ccc(O)cc2)cc1,le15
9526,"Acetic acid, (2-naphthalenyloxy)-",428.95,1.0,O=C(O)COc1ccc2ccccc2c1,le15
9527,methyl 3-hydroxynaphthalene-2-carboxylate,415.65,1.0,COC(=O)c1cc2ccccc2cc1O,le15
9528,diethyl 3-oxopentanedioate,359.25,1.0,CCOC(=O)CC(=O)CC(=O)OCC,le15
9529,diethyl 2-acetylpropanedioate,372.15,1.0,CCOC(=O)C(C(C)=O)C(=O)OCC,le15
9530,Pyrene,441.95,1.0,c1cc2ccc3cccc4ccc(c1)c2c34,le15
9531,Acephenanthrylene,461.75,1.0,C1=Cc2cc3ccccc3c3cccc1c23,le15
9532,Aceanthrylene,461.75,1.0,C1=Cc2c3ccccc3cc3cccc1c23,le15
9533,Fluoranthene,282.0499999999999,1.0,c1ccc2c(c1)-c1cccc3cccc-2c13,le15
9534,Decanedioic acid,471.45,1.0,O=C(O)CCCCCCCCC(=O)O,le15
9535,diethyl 2-propan-2-ylpropanedioate,369.45,1.0,CCOC(=O)C(C(=O)OCC)C(C)C,le15
9536,"Butanedioic acid, dipropyl ester",384.55,1.0,CCCOC(=O)CCC(=O)OCCC,le15
9537,"Octanedioic acid, dimethyl ester",384.55,1.0,COC(=O)CCCCCCC(=O)OC,le15
9538,dibutyl oxalate,381.15,1.0,CCCCOC(=O)C(=O)OCCCC,le15
9539,"Oxirane, 2,2'-(1,4-butanediylbis(oxymethylene))bis-",395.25,1.0,C(CCOCC1CO1)COCC1CO1,le15
9540,2-butanoyloxyethyl butanoate,389.85,1.0,CCCC(=O)OCCOC(=O)CCC,le15
9541,"Hexanedioic acid, diethyl ester",384.55,1.0,CCOC(=O)CCCCC(=O)OCC,le15
9542,Diethyl propylmalonate,364.15,1.0,CCCC(C(=O)OCC)C(=O)OCC,le15
9543,"Oxirane, 2,2'-(1,2-ethanediylbis(oxymethylene))bis(2-methyl- (9CI)",378.85,1.0,CC1(COCCOCC2(C)CO2)CO1,le15
9544,Phenyl sulfoxide (8CI),443.25,1.0,O=S(c1ccccc1)c1ccccc1,le15
9545,"Urea, 1-(1-naphthyl)-2-thio-",455.25,1.0,NC(=S)Nc1cccc2ccccc12,le15
9546,bis(3-methylbutyl) carbonate,361.35,1.0,CC(C)CCOC(=O)OCCC(C)C,le15
9547,"Phosphine, tributyl-",385.35,1.0,CCCCP(CCCC)CCCC,le15
9548,"1H-Indene, 2,3-dihydro-1,1-dimethyl-6-(1,1-dimethylethyl)-",367.25,1.0,CC(C)(C)c1ccc2c(c1)C(C)(C)CC2,le15
9549,1-hexylsulfanylhexane,386.15,1.0,CCCCCCSCCCCCC,le15
9550,"Benzene, chloropentafluoro-",302.65,1.0,Fc1c(F)c(F)c(Cl)c(F)c1F,le15
9551,"Butanenitrile, 4-(trichlorosilyl)-",365.25,1.0,N#CCCC[Si](Cl)(Cl)Cl,le15
9552,"Benzene, 1-chloro-2,4-dinitro-",459.15,1.0,O=[N+]([O-])c1ccc(Cl)c([N+](=O)[O-])c1,le15
9553,"2-chloro-1,3-dinitrobenzene",415.55,1.0,O=[N+]([O-])c1cccc([N+](=O)[O-])c1Cl,le15
9554,1-benzyl-4-chlorobenzene,395.15,1.0,Clc1ccc(Cc2ccccc2)cc1,le15
9555,Phthaloyl chloride (8CI),408.55,1.0,O=C(Cl)c1ccccc1C(=O)Cl,le15
9556,"1,3-Benzenedicarbonyl dichloride",453.15,1.0,O=C(Cl)c1cccc(C(=O)Cl)c1,le15
9557,"1,4-Benzenedicarbonyl dichloride",416.25,1.0,O=C(Cl)c1ccc(C(=O)Cl)cc1,le15
9558,"2,4-Pentadienal, 5-(4-nitrophenyl)-",448.35,1.0,O=CC=CC=Cc1ccc([N+](=O)[O-])cc1,le15
9559,"1H-Isoindole-1,3(2H)-dione, 2-(oxiranylmethyl)-",437.05,1.0,O=C1c2ccccc2C(=O)N1CC1CO1,le15
9560,chloro-[chloro(dimethyl)silyl]oxy-dimethylsilane,306.15,1.0,C[Si](C)(Cl)O[Si](C)(C)Cl,le15
9561,"Naphth(2,1,8-def)isoquinoline",456.35,1.0,c1cc2ccc3cncc4ccc(c1)c2c34,le15
9562,"Naphtho(2,1,8-def)quinoline",446.15,1.0,c1cc2ccc3ccnc4ccc(c1)c2c34,le15
9563,4-(Indol-3-yl)butyric acid,484.95,1.0,O=C(O)CCCc1c[nH]c2ccccc12,le15
9564,"4-Pentyn-2-one, 3-hydroxy-3-methyl-5-phenyl-, oxime",502.35,1.0,CC(=NO)C(C)(O)C#Cc1ccccc1,le15
9565,"1,3-Dioxane, 5-ethyl-5-nitro-2-propyl- (9CI)",389.75,1.0,CCCC1OCC(CC)([N+](=O)[O-])CO1,le15
9566,"2-Butenamide, N-ethyl-N-(2-methylphenyl)-",388.65,1.0,CC=CC(=O)N(CC)c1ccccc1C,le15
9567,"Carbamothioic acid, butylethyl-, S-propyl ester (9CI)",391.95,1.0,CCCCN(CC)C(=O)SCCC,le15
9568,"Carbamothioic acid, dipropyl-, S-propyl ester (9CI)",391.95,1.0,CCCSC(=O)N(CCC)CCC,le15
9569,"Pyridine, 2-chloro-3,5-dinitro-",421.05,1.0,O=[N+]([O-])c1cnc(Cl)c([N+](=O)[O-])c1,le15
9570,3-chloro-N-phenylaniline,420.55,1.0,Clc1cccc(Nc2ccccc2)c1,le15
9571,4'-Chlorobiphenyl-4-ylamine,431.05,1.0,Nc1ccc(-c2ccc(Cl)cc2)cc1,le15
9572,4-chloro-N-phenylaniline,422.85,1.0,Clc1ccc(Nc2ccccc2)cc1,le15
9573,"Ethane, 1,1,1,2-tetrachloro-2,2-difluoro-",284.95,1.0,FC(F)(Cl)C(Cl)(Cl)Cl,le15