,compound,flashpoint,pure substance,smiles,source
0,Ethylene,137.15,1,C=C,le15
1,Ethane,138.0,1,CC,le15
2,Methylamine,211.0,1,CN,le15
3,Methanol,284.26099999999997,1,CO,le15
4,1propyne,185.15,1,C#CC,le15
5,Acetonitrile,275.15,1,CC#N,le15
6,Cyanamide,274.35,1,N#CN,le15
7,Propene,165.15,1,C=CC,le15
8,Cyclopropane,178.0,1,C1CC1,le15
9,Propene,165.0,1,C=CC,le15
10,propane,169.15,1,CCC,le15
11,Formamide,448.15,1,NC=O,le15
12,Monoethylamine,256.15,1,CCN,le15
13,Dimethylamine,255.0,1,CNC,le15
14,Ethylamine,256.0,1,CCN,le15
15,Formicacid,342.0,1,O=CO,le15
16,"Hydrazine, methyl-",294.15,1,CNN,le15
17,Methyl hydroperoxide,274.25,1,COO,le15
18,Methanethiol,255.0,1,CS,le15
19,Propiononitrile,279.15,1,CCC#N,le15
20,2propyn1ol,306.0,1,C#CCO,le15
21,2-aminoacetonitrile,326.25,1,N#CCN,le15
22,(Z)-but-2-ene,200.35,1,C/C=C\C,le15
23,1butene,193.0,1,C=CCC,le15
24,Cyclobutane,208.0,1,C1CCC1,le15
25,Isobutene,197.0,1,C=C(C)C,le15
26,"Acetonitrile, hydroxy-",329.25,1,N#CCO,le15
27,Cyclopropanamine,274.15,1,NC1CC1,le15
28,2-Propen-1-amine,245.15,1,C=CCN,le15
29,Cyclopropylamine,248.0,1,NC1CC1,le15
30,Trimethylene oxide (8CI),253.15,1,C1COC1,le15
31,2propene1ol,294.0,1,C=CCO,le15
32,PropyleneOxide,236.0,1,CC1CO1,le15
33,"Acetaldehyde, oxime",313.15,1,CC=NO,le15
34,propylamine,247.0,1,CCCN,le15
35,Trimethylamine,267.0,1,CN(C)C,le15
36,Hydrazinecarboxaldehyde,385.15,1,NNC=O,le15
37,Isopropyl alcohol,284.817,1,CC(C)O,le15
38,"Hydrazine, 1,1-dimethyl-",274.25,1,CN(C)N,le15
39,Ethylene sulfide,283.15,1,C1CS1,le15
40,"Methane, nitro-",308.15,1,C[N+](=O)[O-],le15
41,"Ethanol, 2-amino-",366.45,1,NCCO,le15
42,carbonic acid,442.95,1,O=C(O)O,le15
43,"Hydroperoxide, ethyl",284.45,1,CCOO,le15
44,Ethylene glycol,381.35,1,OCCO,le15
45,"Ethylene, chloro-",255.35,1,C=CCl,le15
46,"Ethanol, 2-fluoro-",304.25,1,OCCF,le15
47,"2-Propenenitrile, 2-methyl-",285.15,1,C=C(C)C#N,le15
48,"Isocrotononitrile (6CI,7CI)",293.15,1,C/C=C\C#N,le15
49,2-Butenenitrile,289.15,1,CC=CC#N,le15
50,Methacrylonitrile,274.0,1,C=C(C)C#N,le15
51,Pyrrole,306.0,1,c1cc[nH]c1,le15
52,but-3-yn-2-one,272.15,1,C#CC(C)=O,le15
53,Furan,238.0,1,c1ccoc1,le15
54,1H-Imidazole,418.15,1,c1c[nH]cn1,le15
55,1pentyne,239.0,1,C#CCCC,le15
56,2pentyne,243.0,1,CC#CCC,le15
57,Cyclopentene,273.0,1,C1=CCCC1,le15
58,"1,2-oxazole",282.05,1,c1cnoc1,le15
59,"1,3-oxazole",292.039,1,c1cocn1,le15
60,2H-triazole,380.15,1,c1cn[nH]n1,le15
61,"1H-1,2,4-Triazole",412.25,1,c1nc[nH]n1,le15
62,"Propanenitrile, 2-methyl-",281.15,1,CC(C)C#N,le15
63,Butanenitrile,289.15,1,CCCC#N,le15
64,"2,5-dihydro-1H-pyrrole",278.95,1,C1=CCNC1,le15
65,"2-Propyn-1-amine, N-methyl-",273.75,1,C#CCNC,le15
66,2-Propynoic acid,332.05,1,C#CC(=O)O,le15
67,"2-Propenal, 2-methyl-",258.15,1,C=C(C)C=O,le15
68,But-2-yn-1-ol,324.15,1,CC#CCO,le15
69,But-3-yn-1-ol,309.15,1,C#CCCO,le15
70,ethynoxyethane,282.15,1,C#COCC,le15
71,cyclobutanone,283.15,1,O=C1CCC1,le15
72,"2,3-dihydrofuran",249.15,1,C1=COCC1,le15
73,"2,5-dihydrofuran",256.45,1,C1=CCOC1,le15
74,Crotonaldehyde,282.05,1,C/C=C/C=O,le15
75,1-Butyn-3-ol,298.75,1,C#CC(C)O,le15
76,2butenal,286.0,1,CC=CC=O,le15
77,Cyclobutanone,283.0,1,O=C1CCC1,le15
78,"Cyanamide, dimethyl-",331.45,1,CN(C)C#N,le15
79,"Propanenitrile, 3-amino-",339.65,1,N#CCCN,le15
80,1-Pentene,245.15,1,C=CCCC,le15
81,2methyl1butene,239.0,1,C=C(C)CC,le15
82,2methyl2butene,228.0,1,CC=C(C)C,le15
83,3methyl1butene,217.0,1,C=CC(C)C,le15
84,2-Propenamide,352.15,1,C=CC(N)=O,le15
85,2-methoxyacetonitrile,304.85,1,COCC#N,le15
86,"2-Propenal, oxime",303.714,1,C=CC=NO,le15
87,3hydroxypropanenitrile,402.0,1,N#CCCO,le15
88,Pyrrolidine,275.928,1,C1CCNC1,le15
89,N-methylprop-2-en-1-amine,244.85,1,C=CCNC,le15
90,Cyclobutylamine,269.0,1,NC1CCC1,le15
91,Propiolactone,343.15,1,O=C1CCO1,le15
92,"Formic acid, ethenyl ester",289.15,1,C=COC=O,le15
93,2-Propenoic acid,341.15,1,C=CC(=O)O,le15
94,"Butane, 1,2-epoxy-",251.15,1,CCC1CO1,le15
95,"Furan, tetrahydro-",252.15,1,C1CCOC1,le15
96,Isopropenyl methyl ether,244.15,1,C=C(C)OC,le15
97,"2-Propen-1-ol, 2-methyl-",306.15,1,C=C(C)CO,le15
98,"Propane, 1,2-epoxy-2-methyl-",273.75,1,CC1(C)CO1,le15
99,3-methoxyprop-1-ene,250.15,1,C=CCOC,le15
100,"(2R,3S)-2,3-dimethyloxirane",251.45,1,C[C@@H]1O[C@@H]1C,le15
101,cyclobutanol,294.15,1,OC1CCC1,le15
102,2-Buten-1-ol,310.15,1,CC=CCO,le15
103,"Propanal, 2-methyl-",249.15,1,CC(C)C=O,le15
104,Methyl ethyl ketone,282.15,1,CCC(C)=O,le15
105,3-Buten-2-ol,289.85,1,C=CC(C)O,le15
106,3-Buten-1-ol,305.35,1,C=CCCO,le15
107,2methyl1propanal,248.0,1,CC(C)C=O,le15
108,3butene2ol,293.0,1,C=CC(C)O,le15
109,"Butane, 2-methyl-",222.15,1,CCC(C)C,le15
110,Isopentane,216.0,1,CCC(C)C,le15
111,1-nitroethene,296.35,1,C=C[N+](=O)[O-],le15
112,Propionamide,358.05,1,CCC(N)=O,le15
113,"2-Propanone, oxime",318.35,1,CC(C)=NO,le15
114,"Guanidine, methyl-",331.25,1,CNC(=N)N,le15
115,"Thiocyanic acid, methyl ester",311.15,1,CSC#N,le15
116,2methyl2propenal,258.0,1,C=C(C)C=O,le15
117,"2-Propanamine, 2-methyl-",264.15,1,CC(C)(C)N,le15
118,"2-Butanamine, (S)- (9CI)",254.15,1,CC[C@H](C)N,le15
119,"Ethanamine, N,N-dimethyl-",237.15,1,CCN(C)C,le15
120,sec-Butylamine,254.15,1,CCC(C)N,le15
121,secButylamine,254.0,1,CCC(C)N,le15
122,tertButylamine,264.0,1,CC(C)(C)N,le15
123,"Acetic acid, 2-oxo-",377.05,1,O=CC(=O)O,le15
124,"2-Propanone, 1-hydroxy-",329.15,1,CC(=O)CO,le15
125,"1-Propanol, 2,3-epoxy-",344.15,1,OCC1CO1,le15
126,"Methanamine, N-methyl-N-nitroso-",334.15,1,CN(C)N=O,le15
127,methylurea,296.25,1,CNC(N)=O,le15
128,"Acetic acid, hydrazide",375.75,1,CC(=O)NN,le15
129,"Diazene, dimethyl-, 1-oxide (9CI)",282.55,1,CN=[N+](C)[O-],le15
130,"Ethane, 1,1'-oxybis-",228.15,1,CCOCC,le15
131,Butyl alcohol,308.15,1,CCCCO,le15
132,"1-Propanol, 2-methyl-",300.928,1,CC(C)CO,le15
133,1-deuteriooxybutane,308.15,1,[2H]OCCCC,le15
134,2methyl1propanol,301.0,1,CC(C)CO,le15
135,secbutanol,299.0,1,CCC(C)O,le15
136,tertbutylalcohol,284.15,1,CC(C)(C)O,le15
137,Trimethylenediamine,322.05,1,NCCCN,le15
138,"N'-methylethane-1,2-diamine",314.25,1,CNCCN,le15
139,prop-2-ene-1-thiol,291.15,1,C=CCS,le15
140,"Propane, 1,2-epithio-",283.15,1,CC1CS1,le15
141,3-chloroprop-1-yne,292.05,1,C#CCCl,le15
142,ethyl nitrite,288.15,1,CCON=O,le15
143,"Acetamide, N-hydroxy- (9CI)",400.75,1,CC(=O)NO,le15
144,"Carbamic acid, methyl ester",378.35,1,COC(N)=O,le15
145,"2-Propanol, 1-amino-",347.05,1,CC(O)CN,le15
146,"Ethanamine, 2-methoxy-",282.55,1,COCCN,le15
147,"Acetonitrile, chloro-",320.95,1,N#CCCl,le15
148,"Acetic acid, hydroxy-",401.85,1,O=C(O)CO,le15
149,Ethaneperoxoic acid,314.15,1,CC(=O)OO,le15
150,"Methanamine, N-nitro- (9CI)",320.75,1,CN[N+](=O)[O-],le15
151,propanoyl fluoride,276.35,1,CCC(=O)F,le15
152,2-(fluoromethyl)oxirane,277.15,1,FCC1CO1,le15
153,"Ethanol, 2-methoxy-",319.25,1,COCCO,le15
154,"propane-1,3-diol",352.55,1,OCCCO,le15
155,N-(2-Hydroxyethyl)hydrazine,347.05,1,NNCCO,le15
156,ethanethioic S-acid,284.25,1,CC(=O)S,le15
157,"Urea, thio- (8CI)",339.95,1,NC(N)=S,le15
158,methylsulfanylethane,258.15,1,CCSC,le15
159,2-Propanethiol,239.15,1,CC(C)S,le15
160,3chloropropene,244.0,1,C=CCCl,le15
161,"Acetamide, 2-fluoro-",383.55,1,NC(=O)CF,le15
162,"2-Butenedinitrile, (E)- (9CI)",355.75,1,N#C/C=C/C#N,le15
163,3-fluoropropan-1-ol,311.65,1,OCCCF,le15
164,"hexa-2,4-diyne",285.45,1,CC#CC#CC,le15
165,Sulfinylbis-methane (9CI),358.15,1,CS(C)=O,le15
166,DimethylSulfoxide,361.0,1,CS(C)=O,le15
167,1chloropropane,255.0,1,CCCCl,le15
168,2chloropropane,241.0,1,CC(C)Cl,le15
169,"(2Z)-penta-2,4-dienenitrile",312.25,1,C=C/C=C\C#N,le15
170,carbamoyl chloride,308.75,1,NC(=O)Cl,le15
171,methylphosphonous acid,343.35,1,CP(O)O,le15
172,pyridazine,358.15,1,c1ccnnc1,le15
173,Pyrazine,328.15,1,c1cnccn1,le15
174,Butanedinitrile,414.25,1,N#CCCC#N,le15
175,Pyrimidine,304.0,1,c1cncnc1,le15
176,"cyclohexa-1,4-diene",267.15,1,C1=CCC=CC1,le15
177,Methylcyclopentadiene,299.0,1,CC1=CC=CC1,le15
178,"Ether, chloromethyl methyl",288.15,1,COCCl,le15
179,"1,3,5-triazine",304.25,1,c1ncncn1,le15
180,"1H-Pyrrole, 1-methyl-",289.15,1,Cn1cccc1,le15
181,pent-4-enenitrile,319.35,1,C=CCCC#N,le15
182,2-methyl-1H-pyrrole,320.35,1,Cc1ccc[nH]1,le15
183,cyclobutanecarbonitrile,317.45,1,N#CC1CCC1,le15
184,3-methyl-1H-pyrrole,320.35,1,Cc1cc[nH]c1,le15
185,3-Pentenenitrile,313.15,1,CC=CCC#N,le15
186,1methylpyrrole,288.0,1,Cn1cccc1,le15
187,Difluoroethanol,273.55,1,CC(O)(F)F,le15
188,3-methylfuran,251.15,1,Cc1ccoc1,le15
189,cyclopent-2-en-1-one,315.15,1,O=C1C=CCC1,le15
190,Pent-2-en-4-yn-1-ol,337.35,1,C#CC=CCO,le15
191,2methylfuran,251.15,1,Cc1ccco1,le15
192,1-methylimidazole,365.15,1,Cn1ccnc1,le15
193,"1H-Imidazole, 4-methyl-",414.75,1,Cc1c[nH]cn1,le15
194,"Pyrazole, 3-methyl-",366.15,1,Cc1cc[nH]n1,le15
195,"1H-Imidazole, 2-methyl-",418.05,1,Cc1ncc[nH]1,le15
196,1-methylpyrazole,308.15,1,Cn1cccn1,le15
197,"1H-Pyrazole, 4-methyl-",369.25,1,Cc1cn[nH]c1,le15
198,1-Hexyne,252.15,1,C#CCCCC,le15
199,"3,3-dimethylbut-1-yne",239.15,1,C#CC(C)(C)C,le15
200,methylidenecyclopentane,255.15,1,C=C1CCCC1,le15
201,"(2Z,4E)-hexa-2,4-diene",259.25,1,C/C=C\C=C\C,le15
202,1-methylcyclopentene,349.15,1,CC1=CCCC1,le15
203,1hexyne,253.0,1,C#CCCCC,le15
204,1methylcyclopentene,256.0,1,CC1=CCCC1,le15
205,2hexyne,262.0,1,CC#CCCC,le15
206,Cyclohexene,253.0,1,C1=CCCCC1,le15
207,Methylenecyclopentane,254.0,1,C=C1CCCC1,le15
208,4-Methyloxazole,293.65,1,Cc1cocn1,le15
209,"Isocyanic acid, allyl ester",316.15,1,C=CCN=C=O,le15
210,"5-methyl-1,2-oxazole",303.15,1,Cc1ccno1,le15
211,"3-Butenenitrile, 2-hydroxy-",345.05,1,C=CC(O)C#N,le15
212,Pentanenitrile,313.75,1,CCCCC#N,le15
213,"Butanenitrile, 3-methyl-",301.45,1,CC(C)CC#N,le15
214,"2-Propynylamine, 1,1-dimethyl- (6CI,7CI,8CI)",275.15,1,C#CC(C)(C)N,le15
215,2-methylbutanenitrile,297.55,1,CCC(C)C#N,le15
216,"1,2,3,6-tetrahydropyridine",289.25,1,C1=CCNCC1,le15
217,1-isocyanobutane,293.75,1,[C-]#[N+]CCCC,le15
218,Butylcyanide,313.0,1,CCCCC#N,le15
219,but-2-ynoic acid,364.05,1,CC#CC(=O)O,le15
220,"2-Oxetanone, 4-methylene-",371.05,1,C=C1CC(=O)O1,le15
221,methyl prop-2-ynoate,283.15,1,C#CC(=O)OC,le15
222,"2-Butenedial, (Z)-",339.35,1,O=C/C=C\C=O,le15
223,"Guanidine, N-cyano-",365.95,1,N#CNC(=N)N,le15
224,"4H-1,2,4-Triazole, 4-amino-",388.85,1,Nn1cnnc1,le15
225,"Crotonaldehyde, 3-methyl- (8CI)",307.05,1,CC(C)=CC=O,le15
226,"3-Butyn-2-ol, 2-methyl-",298.15,1,C#CC(C)(C)O,le15
227,6-oxabicyclo[3.1.0]hexane,283.15,1,C1CC2OC2C1,le15
228,(E)-2-methylbut-2-enal,291.45,1,C/C=C(\C)C=O,le15
229,3-Penten-2-one,343.15,1,CC=CC(C)=O,le15
230,1-cyclopropylethanone,294.25,1,CC(=O)C1CC1,le15
231,"3-Buten-2-one, 3-methyl-",284.15,1,C=C(C)C(C)=O,le15
232,"Butanal, 2-methylene- (9CI)",274.15,1,C=C(C=O)CC,le15
233,"penta-1,4-dien-3-ol",303.15,1,C=CC(O)C=C,le15
234,(E)-2-methylbut-2-enal,291.45,1,C/C=C(\C)C=O,le15
235,(E)-Pent-2-en-1-al,292.15,1,CC/C=C/C=O,le15
236,Ethyl vinyl ketone,263.15,1,C=CC(=O)CC,le15
237,Pent-4-yn-2-ol,310.35,1,C#CCC(C)O,le15
238,(E)-pent-3-en-2-one,292.95,1,C/C=C/C(C)=O,le15
239,Cyclopent-2-en-1-ol,328.25,1,OC1C=CCC1,le15
240,1-Pentyn-3-ol,302.15,1,C#CC(O)CC,le15
241,Pent-4-yn-1-ol,329.15,1,C#CCCCO,le15
242,2-Pentyn-1-ol,331.15,1,CCC#CCO,le15
243,3-Pentyn-1-ol,327.55,1,CC#CCCO,le15
244,cyclopentanone,303.70599999999996,1,O=C1CCCC1,le15
245,1cyclopropylethanone,286.0,1,CC(=O)C1CC1,le15
246,"Propionitrile, 3-(methylamino)- (6CI,7CI,8CI)",336.25,1,CNCCC#N,le15
247,"2-methyl-4,5-dihydro-1H-imidazole",347.35,1,CC1=NCCN1,le15
248,"Acetonitrile, (dimethylamino)-",306.15,1,CN(C)CC#N,le15
249,"3,3-dimethylbut-1-ene",245.15,1,C=CC(C)(C)C,le15
250,"2,3-dimethylbut-1-ene",255.15,1,C=C(C)C(C)C,le15
251,2-methylpent-2-ene,246.15,1,CCC=C(C)C,le15
252,"2,3-dimethylbut-2-ene",257.15,1,CC(C)=C(C)C,le15
253,1hexene,247.0,1,C=CCCCC,le15
254,2ethyl1butene,247.0,1,C=C(CC)CC,le15
255,2hexene,252.0,1,CC=CCCC,le15
256,2methyl1pentene,247.0,1,C=C(C)CCC,le15
257,2methyl2pentene,250.0,1,CCC=C(C)C,le15
258,3methyl1pentene,245.0,1,C=CC(C)CC,le15
259,3methyl2pentene,267.0,1,CC=C(C)CC,le15
260,4methyl1pentene,242.0,1,C=CCC(C)C,le15
261,methylcyclopentane,263.0,1,CC1CCCC1,le15
262,"Methane, dichloro-",312.65,1,ClCCl,le15
263,"Acetic acid, cyano-",380.95,1,N#CCC(=O)O,le15
264,"2-Propenamide, 2-methyl-",354.85,1,C=C(C)C(N)=O,le15
265,"Propionitrile, 3-methoxy- (8CI)",334.25,1,COCCC#N,le15
266,1-isocyanatopropane,272.15,1,CCCN=C=O,le15
267,"2-methyl-4,5-dihydro-1,3-oxazole",293.15,1,CC1=NCCO1,le15
268,"2-Propenamide, N-methyl-",376.75,1,C=CC(=O)NC,le15
269,cyclopropanecarboxamide,377.25,1,NC(=O)C1CC1,le15
270,"Propanenitrile, 2-hydroxy-2-methyl-",346.15,1,CC(C)(O)C#N,le15
271,Thiazole,299.15,1,c1cscn1,le15
272,"Pyrrolidine, 1-methyl-",251.45,1,CN1CCCC1,le15
273,1methylpyrrolidine,255.0,1,CN1CCCC1,le15
274,Cyclopentylamine,285.0,1,NC1CCCC1,le15
275,"2-Propenoic acid, 2-methyl-",347.32199999999995,1,C=C(C)C(=O)O,le15
276,"2(3H)-Furanone, dihydro-",354.05,1,O=C1CCCO1,le15
277,"2,3-Butanedione",278.65,1,CC(=O)C(C)=O,le15
278,(Z)-but-2-enoic acid,354.75,1,C/C=C\C(=O)O,le15
279,"2,3-dihydro-1,4-dioxine",298.75,1,C1=COCCO1,le15
280,2-(oxiran-2-yl)oxirane,318.75,1,C1OC1C1CO1,le15
281,But-3-enoic acid,341.35,1,C=CCC(=O)O,le15
282,"Butane, 1,2:3,4-diepoxy-",313.15,1,C1OC1C1CO1,le15
283,cyclopropanecarboxylic acid,344.85,1,O=C(O)C1CC1,le15
284,"Formic acid, allyl ester (8CI)",279.65,1,C=CCOC=O,le15
285,2-Butenoic acid,361.15,1,CC=CC(=O)O,le15
286,(2S)-2-[(2S)-oxiran-2-yl]oxirane,318.75,1,C1O[C@@H]1[C@@H]1CO1,le15
287,"2-Propenoic acid, methyl ester",279.817,1,C=CC(=O)OC,le15
288,"2-Butenoic acid, (E)- (9CI)",354.75,1,C/C=C/C(=O)O,le15
289,"2-Butyne-1,4-diol",408.708,1,OCC#CCO,le15
290,(2R)-2-[(2R)-oxiran-2-yl]oxirane,318.75,1,C1O[C@H]1[C@H]1CO1,le15
291,Crotonicacid,361.0,1,C/C=C/C(=O)O,le15
292,Ethenylacetate,265.0,1,C=CCC(=O)[O-],le15
293,gammaButyrolactone,371.0,1,O=C1CCCO1,le15
294,2-Imidazolidinone,475.66900000000004,1,O=C1NCCN1,le15
295,"Ethenamine, N-methyl-N-nitroso- (9CI)",318.65,1,C=CN(C)N=O,le15
296,"Butyraldehyde, 2-methyl-",277.15,1,CCC(C)C=O,le15
297,cyclopentanol,324.15,1,OC1CCCC1,le15
298,"Furan, 2-methyl-tetrahydro-",262.15,1,CC1CCCO1,le15
299,2-Pentanone,280.35,1,CCCC(C)=O,le15
300,Valeraldehyde,285.35,1,CCCCC=O,le15
301,oxane,258.15,1,C1CCOCC1,le15
302,"2-Buten-1-ol, 3-methyl-",316.15,1,CC(C)=CCO,le15
303,"Butyraldehyde, 3-methyl-",268.15,1,CC(C)CC=O,le15
304,1-Penten-3-ol,298.15,1,C=CC(O)CC,le15
305,4-Penten-2-ol,298.75,1,C=CCC(C)O,le15
306,"2,2-dimethylpropanal",258.15,1,CC(C)(C)C=O,le15
307,"3-Buten-1-ol, 3-methyl-",313.25,1,C=C(C)CCO,le15
308,1-ethenoxypropane,247.05,1,C=COCCC,le15
309,1-cyclopropylethanol,303.75,1,CC(O)C1CC1,le15
310,Pent-4-en-1-ol,316.15,1,C=CCCCO,le15
311,3-Penten-2-ol,300.95,1,CC=CC(C)O,le15
312,"2-Penten-1-ol, (2Z)-",323.75,1,CC/C=C\CO,le15
313,(E)-pent-2-en-1-ol,323.75,1,CC/C=C/CO,le15
314,3-methylbut-3-en-2-ol,302.75,1,C=C(C)C(C)O,le15
315,3-Pentanone,285.95,1,CCC(=O)CC,le15
316,"3-Butyn-2-ol, 2-methyl- (8CI,9CI)",285.95,1,C#CC(C)(C)O,le15
317,"1-Propene, 1-ethoxy- (9CI)",254.25,1,CC=COCC,le15
318,3methyl2butanone,279.0,1,CC(=O)C(C)C,le15
319,3pentanone,286.0,1,CCC(=O)CC,le15
320,Pentanal,281.0,1,CCCCC=O,le15
321,Piperazine,322.85,1,C1CNCCN1,le15
322,"2,5-dihydrothiophene",296.65,1,C1=CCSC1,le15
323,"Butane, 2,2-dimethyl-",225.15,1,CCC(C)(C)C,le15
324,"Pentane, 3-methyl-",267.15,1,CCC(C)CC,le15
325,"Pentane, 2-methyl-",241.15,1,CCCC(C)C,le15
326,2methylpentane,250.0,1,CCCC(C)C,le15
327,3methylpentane,267.0,1,CCC(C)CC,le15
328,Oxirane-2-carboxamide,513.95,1,NC(=O)C1CO1,le15
329,"2-Butanone, oxime",333.15,1,CCC(C)=NO,le15
330,Butyraldehyde oxime,331.15,1,CCCC=NO,le15
331,Morpholine,308.75,1,C1COCCN1,le15
332,butanamide,361.05,1,CCCC(N)=O,le15
333,2-methylpropanamide,360.85,1,CC(C)C(N)=O,le15
334,N-ethylacetamide,378.55,1,CCNC(C)=O,le15
335,N-methylpropanamide,378.55,1,CCC(=O)NC,le15
336,Morpholine,308.0,1,C1COCCN1,le15
337,"Isothiocyanic acid, ethyl ester",305.35,1,CCN=C=S,le15
338,ethyl thiocyanate,295.15,1,CCSC#N,le15
339,"1-Butanamine, 2-methyl-",276.45,1,CCC(C)CN,le15
340,"1-Butanamine, N-methyl-",274.85,1,CCCCNC,le15
341,"Propylamine, 1,2-dimethyl-",245.35,1,CC(C)C(C)N,le15
342,"Propylamine, 1-ethyl- (8CI)",275.35,1,CCC(N)CC,le15
343,"Ethanamine, N-ethyl-N-methyl-",275.35,1,CCN(C)CC,le15
344,"N,N-dimethylpropan-2-amine",264.15,1,CC(C)N(C)C,le15
345,"1-Butanamine, 3-methyl-",291.45,1,CC(C)CCN,le15
346,1-Pentanamine,277.55,1,CCCCCN,le15
347,N-ethylpropan-2-amine,289.25,1,CCNC(C)C,le15
348,"2-Propenenitrile, 2-chloro-",279.85,1,C=C(Cl)C#N,le15
349,2-oxopropanoic acid,327.45,1,CC(=O)C(=O)O,le15
350,Ethanediamide,385.85,1,NC(=O)C(N)=O,le15
351,"Ethanedial, dioxime",329.35,1,ON=CC=NO,le15
352,"Hydrazine, 1,2-diformyl- (8CI)",354.75,1,O=CNNC=O,le15
353,"Propanoic acid, 2-methyl-",331.35,1,CC(C)C(=O)O,le15
354,"Butyraldehyde, 3-hydroxy-",331.85,1,CC(O)CC=O,le15
355,Butanoic acid,342.15,1,CCCC(=O)O,le15
356,Acetic acid ethyl ester,269.15,1,CCOC(C)=O,le15
357,oxolan-3-ol,354.25,1,OC1CCOC1,le15
358,"but-3-ene-1,2-diol",362.45,1,C=CC(O)CO,le15
359,"1,3-Dioxolane, 2-methyl-",271.15,1,CC1OCCO1,le15
360,"2-Butanone, 3-hydroxy-",322.85,1,CC(=O)C(C)O,le15
361,"Ethanol, 2-(ethenyloxy)- (9CI)",323.15,1,C=COCCO,le15
362,"Propane, 1,2-epoxy-3-methoxy-",281.25,1,COCC1CO1,le15
363,1-hydroxybutan-2-one,333.15,1,CCC(=O)CO,le15
364,"(Z)-2-Butene-1,4-diol",401.15,1,OC/C=C\CO,le15
365,"1,4-Dioxane",285.35,1,C1COCCO1,le15
366,"Propanoic acid, methyl ester",271.15,1,CCC(=O)OC,le15
367,2methylpropanoicacid,329.0,1,CC(C)C(=O)O,le15
368,"Urea, N,N'-dimethyl-",397.45,1,CNC(=O)NC,le15
369,"Ethylamine, N-methyl-N-nitroso-",320.35,1,CCN(C)N=O,le15
370,Pentyl alcohol,322.05,1,CCCCCO,le15
371,"1-Propanol, 2,2-dimethyl-",310.15,1,CC(C)(C)CO,le15
372,Isopentyl alcohol (8CI),318.75,1,CC(C)CCO,le15
373,3-Pentanol,313.15,1,CCC(O)CC,le15
374,"Propane, 2-methoxy-2-methyl-",245.15,1,COC(C)(C)C,le15
375,2-Pentanol,307.15,1,CCCC(C)O,le15
376,2-methoxybutane,243.15,1,CCC(C)OC,le15
377,"2-Butanol, 2-methyl-",294.25,1,CCC(C)(C)O,le15
378,1methoxybutane,263.0,1,CCCCOC,le15
379,2methoxybutane,243.0,1,CCC(C)OC,le15
380,2methyl1butanol,316.0,1,CCC(C)CO,le15
381,2methyl2butanol,294.0,1,CCC(C)(C)O,le15
382,2pentanol,313.0,1,CCCC(C)O,le15
383,3methyl1butanol,316.0,1,CC(C)CCO,le15
384,3methyl2butanol,312.0,1,CC(C)C(C)O,le15
385,3pentanol,313.0,1,CCC(O)CC,le15
386,EthylPropylEther,253.0,1,CCCOCC,le15
387,"Ethylenediamine, N,N-dimethyl- (8CI)",297.05,1,CN(C)CCN,le15
388,"1,2-Ethanediamine, N1-ethyl-",283.15,1,CCNCCN,le15
389,1-Methyltrimethylenediamine,309.65,1,CC(N)CCN,le15
390,"Hydrazine, 1,1-diethyl-",295.95,1,CCN(N)CC,le15
391,Tetramethylenediamine,324.85,1,NCCCCN,le15
392,"1,3-Propanediamine, N-methyl-",313.15,1,CNCCCN,le15
393,3-methylsulfanylprop-1-ene,291.45,1,C=CCSC,le15
394,"Thiophene, tetrahydro-",285.95,1,C1CCSC1,le15
395,Thiacyclopentane,285.0,1,C1CCSC1,le15
396,diethylsilicon,244.25,1,CC[Si]CC,le15
397,"4-chlorobuta-1,2-diene",273.65,1,C=C=CCCl,le15
398,"Carbamic acid, ethyl ester",370.35,1,CCOC(N)=O,le15
399,2-aminobutan-1-ol,355.35,1,CCC(N)CO,le15
400,"Ethanol, 2-(dimethylamino)-",313.75,1,CN(C)CCO,le15
401,"1-Propanol, 2-amino-2-methyl-",340.35,1,CC(C)(N)CO,le15
402,"N,N-diethylhydroxylamine",318.15,1,CCN(O)CC,le15
403,"1-Propanamine, 3-methoxy-",295.95,1,COCCCN,le15
404,"1-Butanol, 4-amino-",380.95,1,NCCCCO,le15
405,1-aminobutan-2-ol,334.15,1,CCC(O)CN,le15
406,"Ethanol, 2-(ethylamino)-",351.15,1,CCNCCO,le15
407,2-ethoxyethanamine,290.85,1,CCOCCN,le15
408,2dimethylaminoethanol,313.0,1,CN(C)CCO,le15
409,Thiazolidine,329.25,1,C1CSCN1,le15
410,"Propanenitrile, 3-chloro-",348.75,1,N#CCCCl,le15
411,2-Chloropropionitrile,306.45,1,CC(Cl)C#N,le15
412,"Propanoic acid, 2-hydroxy-",383.086,1,CC(O)C(=O)O,le15
413,"2-Propanone, 1,3-dihydroxy-",370.45,1,O=C(CO)CO,le15
414,"Carbonic acid, dimethyl ester",291.15,1,COC(=O)OC,le15
415,"Acetic acid, 2-methoxy-",394.15,1,COCC(=O)O,le15
416,"Propanoic acid, 2-hydroxy-, (S)- (9CI)",383.05,1,C[C@H](O)C(=O)O,le15
417,methyl 2-hydroxyacetate,340.35,1,COC(=O)CO,le15
418,Dimethylcarbonate,291.0,1,COC(=O)OC,le15
419,"Carbazic acid, methyl ester (8CI)",359.25,1,COC(=O)NN,le15
420,"Hydroperoxide, 1,1-dimethylethyl",308.15,1,CC(C)(C)OO,le15
421,"1,3-Butanediol",394.25,1,CC(O)CCO,le15