,compound,flashpoint,pure substance,smiles,source
4739,Undecanoic acid,401.35,1,CCCCCCCCCCC(=O)O,le15
4740,"Nonanoic acid, ethyl ester",367.55,1,CCCCCCCCC(=O)OCC,le15
4741,octyl propanoate,365.15,1,CCCCCCCCOC(=O)CC,le15
4742,"Hexanoic acid, pentyl ester",361.05,1,CCCCCOC(=O)CCCCC,le15
4743,"Octanoic acid, propyl ester",361.05,1,CCCCCCCC(=O)OCCC,le15
4744,hexyl pentanoate,361.05,1,CCCCCCOC(=O)CCCC,le15
4745,"Hexanoic acid, 3-methylbutyl ester",358.15,1,CCCCCC(=O)OCCC(C)C,le15
4746,"Propanoic acid, 2,2-dimethyl-, hexyl ester",349.85,1,CCCCCCOC(=O)C(C)(C)C,le15
4747,decyl formate,373.05,1,CCCCCCCCCCOC=O,le15
4748,butyl heptanoate,361.05,1,CCCCCCC(=O)OCCCC,le15
4749,heptyl butanoate,363.75,1,CCCCCCCOC(=O)CCC,le15
4750,2-methylpropyl heptanoate,356.05,1,CCCCCCC(=O)OCC(C)C,le15
4751,"Propane, 1,2-epoxy-3-((2-ethylhexyl)oxy)-",369.85,1,CCCCC(CC)COCC1CO1,le15
4752,"4-Nonanol, 2,6,8-trimethyl-",367.45,1,CC(C)CC(C)CC(O)CC(C)C,le15
4753,dodecan-2-ol,370.95,1,CCCCCCCCCCC(C)O,le15
4754,1dodecanol,400.0,1,CCCCCCCCCCCCO,le15
4755,"1,3-Propanediamine, N,N-dibutyl-",376.15,1,CCCCN(CCCC)CCCN,le15
4756,"Disiloxane, 1,3-diethenyl-1,1,3,3-tetramethyl-",297.15,1,C=C[Si](C)(C)O[Si](C)(C)C=C,le15
4757,"Acetic acid, (4-chlorophenoxy)-",417.55,1,O=C(O)COc1ccc(Cl)cc1,le15
4758,"4-(Chloromethyl)-1,2-dimethoxybenzene",371.75,1,COc1ccc(CCl)cc1OC,le15
4759,"Thiourea, (3-chlorophenyl)- (9CI)",406.35,1,NC(=S)Nc1cccc(Cl)c1,le15
4760,"Urea, 1-(o-chlorophenyl)-2-thio-",404.25,1,NC(=S)Nc1ccccc1Cl,le15
4761,2-carbonochloridoyloxyethyl carbonochloridate,367.05,1,O=C(Cl)OCCOC(=O)Cl,le15
4762,1-bromo-4-methoxybenzene,369.798,1,COc1ccc(Br)cc1,le15
4763,4-Bromobenzyl alcohol,388.85,1,OCc1ccc(Br)cc1,le15
4764,1-bromo-3-methoxybenzene,366.45,1,COc1cccc(Br)c1,le15
4765,1-bromo-2-methoxybenzene,369.15,1,COc1ccccc1Br,le15
4766,"p-Cresol, 2-bromo-",356.05,1,Cc1ccc(O)c(Br)c1,le15
4767,"3H-1,2-Dithiole-3-one, 4,5-dichloro-",370.95,1,O=c1ssc(Cl)c1Cl,le15
4768,"Ethane, 1,2-bis(2-chloroethoxy)-",394.15,1,ClCCOCCOCCCl,le15
4769,"1,1-dichloro-2,2-diethoxyethane",333.15,1,CCOC(OCC)C(Cl)Cl,le15
4770,"Isocyanic acid, (m-trifluoromethylphenyl) ester",331.15,1,O=C=Nc1cccc(C(F)(F)F)c1,le15
4771,4-(trifluoromethoxy)benzonitrile,355.15,1,N#Cc1ccc(OC(F)(F)F)cc1,le15
4772,"Isocyanic acid, (alpha,alpha,alpha-trifluoro-o-tolyl) ester",342.15,1,O=C=Nc1ccccc1C(F)(F)F,le15
4773,2-(Hydroxymethyl)-5-nitro-1H-imidazole-1-ethanol,514.35,1,O=[N+]([O-])c1cnc(CO)n1CCO,le15
4774,"Acetamide, N-(5-nitro-2-thiazolyl)-",410.65,1,CC(=O)Nc1ncc([N+](=O)[O-])s1,le15
4775,"Naphthalene, 2-methyl-1-nitro-",423.55,1,Cc1ccc2ccccc2c1[N+](=O)[O-],le15
4776,"1H-Pyrrole-2,5-dione, 1-(4-methylphenyl)- (9CI)",427.35,1,Cc1ccc(N2C(=O)C=CC2=O)cc1,le15
4777,N-Hydroxy-N-formyl-2-aminonaphthalene,456.65,1,O=CN(O)c1ccc2ccccc2c1,le15
4778,"1H-Pyrrole-2,5-dione, 1-(2-methylphenyl)- (9CI)",412.45,1,Cc1ccccc1N1C(=O)C=CC1=O,le15
4779,"6-Phenyl-1,3,5-triazine-2,4-diyldiamine",558.95,1,Nc1nc(N)nc(-c2ccccc2)n1,le15
4780,"(1,1'-Biphenyl)-4-amine, 4'-fluoro- (9CI)",430.05,1,Nc1ccc(-c2ccc(F)cc2)cc1,le15
4781,"Phenol, 2-amino-4-(methylsulfonyl)-",490.75,1,CS(=O)(=O)c1ccc(O)c(N)c1,le15
4782,"Cyclohexylamine, N-benzylidene- (6CI,7CI,8CI)",397.61300000000006,1,C(=NC1CCCCC1)c1ccccc1,le15
4783,"Ethanol, 2,2'-(cyclohexylimino)bis-",449.35,1,OCCN(CCO)C1CCCCC1,le15
4784,"1H-Azepine-1-carbothioic acid, hexahydro-, S-ethyl ester",395.75,1,CCSC(=O)N1CCCCCC1,le15
4785,"1-Propanamine, 3-((2-ethylhexyl)oxy)-",375.95,1,CCCCC(CC)COCCCN,le15
4786,"1,3-Propanediamine, N'-(3-(dimethylamino)propyl)-N,N-dimethyl-",371.45,1,CN(C)CCCNCCCN(C)C,le15
4787,bromomethyl-chloro-dimethylsilane,314.25,1,C[Si](C)(Cl)CBr,le15
4788,"Phenol, 4-chloro-5-methyl-2-nitro-",394.25,1,Cc1cc(O)c([N+](=O)[O-])cc1Cl,le15
4789,"1,3,5-Triazine-2,4-diamine, 6-chloro-N-(1-methylethyl)-",462.55,1,CC(C)Nc1nc(N)nc(Cl)n1,le15
4790,"Ethane, 1,2-dibromo-",285.75,1,BrCCBr,le15
4791,"Isocyanic acid, 3,4-dichlorophenyl ester",383.15,1,O=C=Nc1ccc(Cl)c(Cl)c1,le15
4792,"3,5-Dichloro-4-hydroxybenzonitrile",382.15,1,N#Cc1cc(Cl)c(O)c(Cl)c1,le15
4793,"2-Naphthalenecarboxylic acid, 3-hydroxy-",463.55,1,O=C(O)c1cc2ccccc2cc1O,le15
4794,"Isocyanic acid, m-phenylenedimethylene ester",392.25,1,O=C=NCc1cccc(CN=C=O)c1,le15
4795,"Isocyanic acid, p-xylylene ester",393.05,1,O=C=NCc1ccc(CN=C=O)cc1,le15
4796,"2,4-Imidazolidinedione, 1,3-bis(hydroxymethyl)-5,5-dimethyl-",410.65,1,CC1(C)C(=O)N(CO)C(=O)N1CO,le15
4797,"1(3H)-Isobenzofuranone, 3-butylidene-",386.15,1,CCCC=C1OC(=O)c2ccccc21,le15
4798,"2-Propenoic acid, 3-phenyl-, 2-propenyl ester",436.65,1,C=CCOC(=O)C=Cc1ccccc1,le15
4799,"3H-Pyrazol-3-one, 1,2-dihydro-1,5-dimethyl-2-phenyl-",387.95,1,Cc1cc(=O)n(-c2ccccc2)n1C,le15
4800,"3H-Pyrazol-3-one, 2,4-dihydro-5-methyl-2-(4-methylphenyl)-",447.75,1,CC1=NN(c2ccc(C)cc2)C(=O)C1,le15
4801,Nonanedioic acid,465.25,1,O=C(O)CCCCCCCC(=O)O,le15
4802,diethyl pentanedioate,369.25,1,CCOC(=O)CCCC(=O)OCC,le15
4803,"diethyl 2,2-dimethylpropanedioate",344.25,1,CCOC(=O)C(C)(C)C(=O)OCC,le15
4804,"Malonic acid, ethyl-, diethyl ester (8CI)",361.15,1,CCOC(=O)C(CC)C(=O)OCC,le15
4805,diethyl 2-methylbutanedioate,370.45,1,CCOC(=O)CC(C)C(=O)OCC,le15
4806,DiethylGlutarate,369.0,1,CCOC(=O)CCCC(=O)OCC,le15
4807,phenyl(thiophen-2-yl)methanone,412.85,1,O=C(c1ccccc1)c1cccs1,le15
4808,"Propanenitrile, 3-(ethyl(3-methylphenyl)amino)-",418.25,1,CCN(CCC#N)c1cccc(C)c1,le15
4809,"Propanenitrile, 3-(trichlorosilyl)-",358.35,1,N#CCC[Si](Cl)(Cl)Cl,le15
4810,"Phenol, 2-amino-6-chloro-4-nitro-",443.95,1,Nc1cc([N+](=O)[O-])cc(Cl)c1O,le15
4811,"Propanedinitrile, ((2-chlorophenyl)methylene)-",421.15,1,N#CC(C#N)=Cc1ccccc1Cl,le15
4812,"Phosphorochloridothioic acid, O,O-diethyl ester",348.95,1,CCOP(=S)(Cl)OCC,le15
4813,"1,1'-Biphenyl, 2-chloro- (9CI)",389.05,1,Clc1ccccc1-c1ccccc1,le15
4814,"1,1'-Biphenyl, 3-chloro-",402.65,1,Clc1cccc(-c2ccccc2)c1,le15
4815,"1,1'-Biphenyl, 4-chloro- (9CI)",400.15,1,Clc1ccc(-c2ccccc2)cc1,le15
4816,"1,4-Benzenediol, 2-bromo-",395.25,1,Oc1ccc(O)c(Br)c1,le15
4817,Chloro(phenyl)acetyl chloride,377.55,1,O=C(Cl)C(Cl)c1ccccc1,le15
4818,"Acetophenone, 2',4'-dichloro- (8CI)",374.05,1,CC(=O)c1ccc(Cl)cc1Cl,le15
4819,"Thiophene, 3,4-dichlorotetrahydro-, 1,1-dioxide (8CI)(9CI)",469.15,1,O=S1(=O)CC(Cl)C(Cl)C1,le15
4820,4-bromobenzenethiol,366.85,1,Sc1ccc(Br)cc1,le15
4821,"2-Naphthalenol, 1-nitro- (9CI)",417.45,1,O=[N+]([O-])c1c(O)ccc2ccccc12,le15
4822,"Quinaldic acid, 4-hydroxy- (8CI)",443.65,1,O=C(O)c1cc(O)c2ccccc2n1,le15
4823,"Glutamic acid, N-acetyl- (6CI,7CI)",526.85,1,CC(=O)N[C@@H](CCC(=O)O)C(=O)O,le15
4824,3-(Indol-3-yl)propionic acid,284.85,1,O=C(O)CCc1c[nH]c2ccccc12,le15
4825,"Benzeneacetic acid, alpha-cyano-, ethyl ester",410.65,1,CCOC(=O)C(C#N)c1ccccc1,le15
4826,"1,3,5-Triazin-2(1H)-one, tetrahydro-1,3-bis(hydroxymethyl)-5-ethyl-",444.55,1,CCN1CN(CO)C(=O)N(CO)C1,le15
4827,phenyl(piperidin-1-yl)methanone,418.15,1,O=C(c1ccccc1)N1CCCCC1,le15
4828,"Acetamide, N,N-dibutyl-2-fluoro-",391.45,1,CCCCN(CCCC)C(=O)CF,le15
4829,"L-Alanine, 3-((3-methyl-2-butenyl)thio)-",425.75,1,CC(C)=CCSC[C@H](N)C(=O)O,le15
4830,"2,2-diethoxy-N,N-diethylethanamine",338.15,1,CCOC(CN(CC)CC)OCC,le15
4831,"1,2-Ethanediamine, N-(2-aminoethyl)-N'-(2-((2-aminoethyl)amino)ethyl)-",458.15,1,NCCNCCNCCNCCN,le15
4832,"Benzamide, 2,6-dichloro-",388.15,1,NC(=O)c1c(Cl)cccc1Cl,le15
4833,3-(trifluoromethyl)benzoic acid,376.05,1,O=C(O)c1cccc(C(F)(F)F)c1,le15
4834,"1,4-Naphthalenedione, 5,8-dihydroxy- (9CI)",542.35,1,O=C1C=CC(=O)c2c(O)ccc(O)c21,le15
4835,"2H-1-Benzopyran-3-carboxylic acid, 2-oxo-",435.85,1,O=C(O)c1cc2ccccc2oc1=O,le15
4836,"Quinoline, 4-nitro-, 1-oxide",461.35,1,O=[N+]([O-])c1cc[n+]([O-])c2ccccc12,le15
4837,"8-Quinolinol, 5-nitro-",480.35,1,O=[N+]([O-])c1ccc(O)c2ncccc12,le15
4838,"3-Buten-2-one, 4-(3,4-(methylenedioxy)phenyl)- (6CI,7CI,8CI)",420.75,1,CC(=O)C=Cc1ccc2c(c1)OCO2,le15
4839,Ethyl2-benzofurancarboxylate,392.65,1,CCOC(=O)c1cc2ccccc2o1,le15
4840,2-(2-acetyloxyethoxy)ethyl acetate,383.15,1,CC(=O)OCCOCCOC(C)=O,le15
4841,"1,4-Phthalazinedione, 2,3-dihydro-, dihydrazone (9CI)",619.05,1,NN=c1[nH][nH]c(=NN)c2ccccc12,le15
4842,"1-Penten-3-one, 1-(4-methoxyphenyl)- (9CI)",424.65,1,CCC(=O)C=Cc1ccc(OC)cc1,le15
4843,"2-Propenoic acid, 2-methyl-, 2-phenylethyl ester",430.65,1,C=C(C)C(=O)OCCc1ccccc1,le15
4844,"2-Buten-1-ol, 3-methyl-, benzoate",398.25,1,CC(C)=CCOC(=O)c1ccccc1,le15
4845,"2-Propenoic acid, 3-phenyl-, propyl ester",429.25,1,CCCOC(=O)C=Cc1ccccc1,le15
4846,Dipropylene glycol monomethylether acetate,364.65,1,COC(C)COC(C)COC(C)=O,le15
4847,"3-Pyrazolidinone, 4,4-dimethyl-1-phenyl-",468.15,1,CC1(C)CN(c2ccccc2)NC1=O,le15
4848,"Benzenepropanal, alpha-methyl-4-(1-methylethyl)-",389.85,1,CC(C=O)Cc1ccc(C(C)C)cc1,le15
4849,"Phenol, 2-cyclohexyl-4-methyl-",389.85,1,Cc1ccc(O)c(C2CCCCC2)c1,le15
4850,"1-Heptanone, 1-phenyl-",384.35,1,CCCCCCC(=O)c1ccccc1,le15
4851,"Ethanol, 2-(2-(hexyloxy)ethoxy)-",413.15,1,CCCCCCOCCOCCO,le15
4852,1-(dipropoxymethoxy)propane,345.15,1,CCCOC(OCCC)OCCC,le15
4853,2-[di(propan-2-yloxy)methoxy]propane,315.15,1,CC(C)OC(OC(C)C)OC(C)C,le15
4854,"1,4-ditert-butylbenzene",370.05,1,CC(C)(C)c1ccc(C(C)(C)C)cc1,le15
4855,"Ethanol, 2-(octylthio)-",350.15,1,CCCCCCCCSCCO,le15
4856,1-chloro-2-iodoethane,310.25,1,ClCCI,le15
4857,naphthalene-2-carbonyl chloride,414.35,1,O=C(Cl)c1ccc2ccccc2c1,le15
4858,decanoyl chloride,379.25,1,CCCCCCCCCC(=O)Cl,le15
4859,"Benzoic acid, 2,6-dichloro-",407.65,1,O=C(O)c1c(Cl)cccc1Cl,le15
4860,"Benzoic acid, 2,3-dichloro-",412.55,1,O=C(O)c1cccc(Cl)c1Cl,le15
4861,"Benzoic acid, 2,5-dichloro-",408.95,1,O=C(O)c1cc(Cl)ccc1Cl,le15
4862,"Benzoic acid, 2,4-dichloro-",414.15,1,O=C(O)c1ccc(Cl)cc1Cl,le15
4863,"Benzoic acid, 3,4-dichloro-",419.15,1,O=C(O)c1ccc(Cl)c(Cl)c1,le15
4864,"Salicylaldehyde, 3,5-dichloro- (8CI)",370.05,1,O=Cc1cc(Cl)cc(Cl)c1O,le15
4865,"Benzoic acid, 3,5-dichloro-",413.85,1,O=C(O)c1cc(Cl)cc(Cl)c1,le15
4866,"2,4-dichloro-1-ethoxybenzene",354.05,1,CCOc1ccc(Cl)cc1Cl,le15
4867,"Toluene, alpha,alpha,alpha-trifluoro-m-nitro- (8CI)",360.15,1,O=[N+]([O-])c1cccc(C(F)(F)F)c1,le15
4868,"2-Nitro-alpha,alpha,alpha-trifluorotoluene",368.75,1,O=[N+]([O-])c1ccccc1C(F)(F)F,le15
4869,2-bromoethylcyclohexane,354.75,1,BrCCC1CCCCC1,le15
4870,"Glycine, N,N-bis(carboxymethyl)-",528.25,1,O=C(O)CN(CC(=O)O)CC(=O)O,le15
4871,"1H-Indole-3-acetic acid, 5-hydroxy-",527.55,1,O=C(O)Cc1c[nH]c2ccc(O)cc12,le15
4872,"Butanamide, N-(2-methylphenyl)-3-oxo-",416.15,1,CC(=O)CC(=O)Nc1ccccc1C,le15
4873,"6-methyl-7,8-dihydro-5H-[1,3]dioxolo[4,5-g]isoquinoline",396.15,1,CN1CCc2cc3c(cc2C1)OCO3,le15
4874,"2-Propenamide, N-(2-hydroxyethyl)-3-phenyl-",492.65,1,O=C(C=Cc1ccccc1)NCCO,le15
4875,"Pyridine, 3-(1-nitroso-2-piperidinyl)-, (S)- (9CI)",456.95,1,O=NN1CCCC[C@H]1c1cccnc1,le15
4876,"Imidodicarbonimidic diamide, N-(2-methylphenyl)-",475.75,1,Cc1ccccc1NC(=N)NC(=N)N,le15
4877,N-butyl-N-phenylacetamide,414.15,1,CCCCN(C(C)=O)c1ccccc1,le15
4878,"Benzamide, N,N-diethyl-3-methyl-",428.15,1,CCN(CC)C(=O)c1cccc(C)c1,le15
4879,"Benzeneacetamide, N,N-diethyl- (9CI)",407.45,1,CCN(CC)C(=O)Cc1ccccc1,le15
4880,"Benzamide, N,N-diethyl-2-methyl-",412.95,1,CCN(CC)C(=O)c1ccccc1C,le15
4881,"Benzamide, N,N-diethyl-4-methyl-",413.95,1,CCN(CC)C(=O)c1ccc(C)cc1,le15
4882,"2-Propanol, 1,1',1''-nitrilotris-",440.15,1,CC(O)CN(CC(C)O)CC(C)O,le15
4883,2-amino-4-butylsulfanylbutanoic acid,429.95,1,CCCCSCCC(N)C(=O)O,le15
4884,"1-Propanamine, 3-(diethoxymethylsilyl)-",348.75,1,CCOC(OCC)[SiH2]CCCN,le15
4885,"ethyl 2,2,2-trichloroacetate",338.15,1,CCOC(=O)C(Cl)(Cl)Cl,le15
4886,"Benzene, 1-bromo-4-chloro-",351.55,1,Clc1ccc(Br)cc1,le15
4887,"Benzene, 1-bromo-3-chloro-",353.75,1,Clc1cccc(Br)c1,le15
4888,1-bromo-2-chlorobenzene,352.55,1,Clc1ccccc1Br,le15
4889,trichloro(2-methylpropyl)silane,321.25,1,CC(C)C[Si](Cl)(Cl)Cl,le15
4890,"1,3-Butadiene, 1,1,2,3-tetrachloro-",348.95,1,C=C(Cl)C(Cl)=C(Cl)Cl,le15
4891,"(1Z,3Z)-1,2,3,4-tetrachlorobuta-1,3-diene",355.85,1,Cl/C=C(Cl)/C(Cl)=C/Cl,le15
4892,"Benzene, 1,4-dichloro-2-nitro-",382.55,1,O=[N+]([O-])c1cc(Cl)ccc1Cl,le15
4893,"Benzene, 1,2-dichloro-4-nitro-",396.15,1,O=[N+]([O-])c1ccc(Cl)c(Cl)c1,le15
4894,"Benzene, 2,4-dichloro-1-nitro-",390.05,1,O=[N+]([O-])c1ccc(Cl)cc1Cl,le15
4895,"Benzene, 1,3-dichloro-5-nitro-",376.55,1,O=[N+]([O-])c1cc(Cl)cc(Cl)c1,le15
4896,"Benzene, 1,2-dichloro-3-nitro-",397.05,1,O=[N+]([O-])c1cccc(Cl)c1Cl,le15
4897,"2-Pyridinecarboxylic acid, 3,6-dichloro-",422.72900000000004,1,O=C(O)c1nc(Cl)ccc1Cl,le15
4898,"1,2,3-Propanetricarboxylic acid, 2-hydroxy-",428.35,1,O=C(O)CC(O)(CC(=O)O)C(=O)O,le15
4899,"2H-1-Benzopyran-2-one, 5,7-dihydroxy-4-methyl-",470.95,1,Cc1cc(=O)oc2cc(O)cc(O)c12,le15
4900,"2H-1-Benzopyran-2-one, 7-hydroxy-6-methoxy- (9CI)",445.55,1,COc1cc2ccc(=O)oc2cc1O,le15
4901,ethyl 3-oxo-3-phenylpropanoate,386.25,1,CCOC(=O)CC(=O)c1ccccc1,le15
4902,"Oxiranecarboxylic acid, 3-phenyl-, ethyl ester",386.15,1,CCOC(=O)C1OC1c1ccccc1,le15
4903,"Acetic acid, phenoxy-, 2-propenyl ester",408.15,1,C=CCOC(=O)COc1ccccc1,le15
4904,"1,3-Benzodioxole, 4-methoxy-6-(2-propenyl)- (9CI)",362.95,1,C=CCc1cc(OC)c2c(c1)OCO2,le15
4905,"Anthracene, 1-methyl- (8CI)(9CI)",430.65,1,Cc1cccc2cc3ccccc3cc12,le15
4906,"Anthracene, 9-methyl-",430.65,1,Cc1c2ccccc2cc2ccccc12,le15
4907,"Phenanthrene, 1-methyl-",430.65,1,Cc1cccc2c1ccc1ccccc12,le15
4908,"Phenanthrene, 9-methyl-",430.65,1,Cc1cc2ccccc2c2ccccc12,le15
4909,"Phenanthrene, 2-methyl-",430.65,1,Cc1ccc2c(ccc3ccccc32)c1,le15
4910,"Isopentyl alcohol, benzoate (6CI,8CI)",382.55,1,CC(C)CCOC(=O)c1ccccc1,le15
4911,"Butanoic acid, 3-methyl-, phenylmethyl ester",372.05,1,CC(C)CC(=O)OCc1ccccc1,le15
4912,"Propanoic acid, 2-methyl-, 2-phenylethyl ester",378.95,1,CC(C)C(=O)OCCc1ccccc1,le15
4913,"Acetic acid, phenyl-, butyl ester",377.85,1,CCCCOC(=O)Cc1ccccc1,le15
4914,"Phenethyl alcohol, alpha,alpha-dimethyl-, acetate",374.95,1,CC(=O)OC(C)(C)Cc1ccccc1,le15
4915,(5-methyl-2-propan-2-ylphenyl) acetate,367.35,1,CC(=O)Oc1cc(C)ccc1C(C)C,le15
4916,"Benzeneacetic acid, 4-(2-methylpropyl)-",482.45,1,CC(C)Cc1ccc(CC(=O)O)cc1,le15
4917,"Benzaldehyde, 4-(pentyloxy)-",402.15,1,CCCCCOc1ccc(C=O)cc1,le15
4918,(2-methyl-5-propan-2-ylphenyl) acetate,367.75,1,CC(=O)Oc1cc(C(C)C)ccc1C,le15
4919,"Butanoic acid, 2-phenylethyl ester",383.05,1,CCCC(=O)OCCc1ccccc1,le15
4920,"1-Propanol, 3-phenyl-, propionate",390.05,1,CCC(=O)OCCCc1ccccc1,le15
4921,"Benzoic acid, pentyl ester",386.35,1,CCCCCOC(=O)c1ccccc1,le15
4922,"Propanol, ((1-methyl-1,2-ethanediyl)bis(oxy))bis-",404.35,1,CC(COCCCO)OCCCO,le15
4923,triethoxymethoxyethane,325.95,1,CCOC(OCC)(OCC)OCC,le15
4924,"Thiourea, N-phenyl-N'-2-propenyl-",397.55,1,C=CCNC(=S)Nc1ccccc1,le15
4925,"3-Buten-2-one, 4-(2,6,6-trimethyl-2-cyclohexen-1-yl)-, (3E)-",388.15,1,CC(=O)/C=C/C1C(C)=CCCC1(C)C,le15
4926,"3,5,9-Undecatrien-2-one, 6,10-dimethyl-",402.15,1,CC(=O)C=CC=C(C)CCC=C(C)C,le15
4927,"Phenol, 2-heptyl- (9CI)",426.15,1,CCCCCCCc1ccccc1O,le15
4928,"Silane, pentyltrimethoxy-",325.35,1,CCCCC[Si](OC)(OC)OC,le15
4929,"Nonanoic acid, 9-chloro-",409.05,1,O=C(O)CCCCCCCCCl,le15
4930,"Carbonochloridic acid, 2-ethylhexyl ester",354.85,1,CCCCC(CC)COC(=O)Cl,le15
4931,"Phenol, 4,5-dichloro-2-methoxy-",394.95,1,COc1cc(Cl)c(Cl)cc1O,le15
4932,"2,3,4,5,6-pentafluorobenzonitrile",302.15,1,N#Cc1c(F)c(F)c(F)c(F)c1F,le15
4933,"1,3-Isobenzofurandione, 5-nitro-",500.65,1,O=C1OC(=O)c2cc([N+](=O)[O-])ccc21,le15
4934,"Benzonitrile, 3,5-dinitro-",410.05,1,N#Cc1cc([N+](=O)[O-])cc([N+](=O)[O-])c1,le15
4935,"2-Propenoic acid, 3-(3-nitrophenyl)-",439.65,1,O=C(O)C=Cc1cccc([N+](=O)[O-])c1,le15
4936,"Cinnamic acid, o-nitro- (6CI,7CI,8CI)",444.95,1,O=C(O)C=Cc1ccccc1[N+](=O)[O-],le15
4937,"2-Propenoic acid, 3-(4-nitrophenyl)-",427.05,1,O=C(O)C=Cc1ccc([N+](=O)[O-])cc1,le15
4938,"Carbamic acid, methyl-, 2,3-dihydro-7-benzofuranyl ester",412.55,1,CNC(=O)Oc1cccc2c1OCC2,le15
4939,"Benzeneacetonitrile, alpha-phenyl-",424.75,1,N#CC(c1ccccc1)c1ccccc1,le15
4940,9-Anthracenamine,493.05,1,Nc1c2ccccc2cc2ccccc12,le15
4941,9-Aminophenanthrene,497.55,1,Nc1cc2ccccc2c2ccccc12,le15
4942,"1H-Indole, 2-phenyl-",449.75,1,c1ccc(-c2cc3ccccc3[nH]2)cc1,le15
4943,"9H-Carbazole, 9-ethenyl-",425.65,1,C=Cn1c2ccccc2c2ccccc21,le15
4944,3-Aminophenanthrene,502.15,1,Nc1ccc2ccc3ccccc3c2c1,le15
4945,2-Phenanthrenamine (9CI),502.15,1,Nc1ccc2c(ccc3ccccc32)c1,le15
4946,1-Phenanthrenamine (9CI),497.55,1,Nc1cccc2c1ccc1ccccc12,le15
4947,"Phenol, 2-(1-methylethyl)-, methylcarbamate",387.15,1,CNC(=O)Oc1ccccc1C(C)C,le15
4948,"Carbamic acid, methyl-, 2,3,4-trimethylphenyl ester",403.45,1,CNC(=O)Oc1ccc(C)c(C)c1C,le15
4949,"Benzoic acid, 4-amino-, butyl ester",457.75,1,CCCCOC(=O)c1ccc(N)cc1,le15
4950,"Anthranilic acid, butyl ester (6CI,7CI,8CI)",426.35,1,CCCCOC(=O)c1ccccc1N,le15
4951,"Benzoic acid, 2-amino-, 2-methylpropyl ester",421.05,1,CC(C)COC(=O)c1ccccc1N,le15
4952,"3-ethoxy-N,N-diethylaniline",352.25,1,CCOc1cccc(N(CC)CC)c1,le15
4953,"Ethanol, 2,2,2-trichloro-1-ethoxy-",322.05,1,CCOC(O)C(Cl)(Cl)Cl,le15
4954,"2,3,3-trichloroprop-2-enoyl chloride",305.95,1,O=C(Cl)C(Cl)=C(Cl)Cl,le15
4955,"Benzene, (1,1,2,2-tetrafluoroethoxy)-",318.95,1,FC(F)C(F)(F)Oc1ccccc1,le15
4956,"1,4-Benzenedicarboxylic acid, dimethyl ester",421.15,1,COC(=O)c1ccc(C(=O)OC)cc1,le15
4957,"Acetic acid, (3,4-methylenedioxy)benzyl ester",386.15,1,CC(=O)OCc1ccc2c(c1)OCO2,le15
4958,"2-Propenoic acid, 3-(3-hydroxy-4-methoxyphenyl)-",440.75,1,COc1ccc(C=CC(=O)O)cc1O,le15
4959,"2-Propenoic acid, 3-(4-hydroxy-3-methoxyphenyl)-",423.65,1,COc1cc(C=CC(=O)O)ccc1O,le15
4960,"dimethyl benzene-1,3-dicarboxylate",411.15,1,COC(=O)c1cccc(C(=O)OC)c1,le15
4961,"1,2-Benzenedicarboxylic acid, dimethyl ester",423.15,1,COC(=O)c1ccccc1C(=O)OC,le15
4962,"ethyl 1,3-benzodioxole-5-carboxylate",397.25,1,CCOC(=O)c1ccc2c(c1)OCO2,le15
4963,"Benzoic acid, 2-acetamido-6-amino-",509.25,1,CC(=O)Nc1cccc(N)c1C(=O)O,le15
4964,"1H-Purine-2,6-dione, 3,7-dihydro-1,3,7-trimethyl-",479.017,1,Cn1c(=O)c2c(ncn2C)n(C)c1=O,le15
4965,"9,10-Dihydro-9-oxoanthracene",423.45,1,O=C1c2ccccc2Cc2ccccc21,le15
4966,"Phosphonic acid, dibutyl ester",394.15,1,CCCCO[PH](=O)OCCCC,le15
4967,"Benzoic acid, 2-hydroxy-, 2-methylpropyl ester",383.15,1,CC(C)COC(=O)c1ccccc1O,le15
4968,"Benzoic acid, 4-hydroxy-, butyl ester",402.35,1,CCCCOC(=O)c1ccc(O)cc1,le15
4969,acridin-4-amine,510.35,1,Nc1cccc2cc3ccccc3nc12,le15
4970,2-Acridinamine (9CI),514.35,1,Nc1ccc2nc3ccccc3cc2c1,le15
4971,"Benzenecarboperoxoic acid, 1,1-dimethylethyl ester",382.85,1,CC(C)(C)OOC(=O)c1ccccc1,le15
4972,"N,N'-diphenylmethanediimine",419.25,1,C(=Nc1ccccc1)=Nc1ccccc1,le15
4973,"Benzoic acid, 2-hydroxy-, butyl ester",380.15,1,CCCCOC(=O)c1ccccc1O,le15
4974,"3,5-Cyclohexadiene-1,2-dione, 3-(1,1-dimethylethyl)-5-methoxy-",401.65,1,COC1=CC(=O)C(=O)C(C(C)(C)C)=C1,le15
4975,"Benzoic acid, 4-hydroxy-, 2-methylpropyl ester (9CI)",398.55,1,CC(C)COC(=O)c1ccc(O)cc1,le15
4976,3-Acridinamine (9CI),514.35,1,Nc1ccc2cc3ccccc3nc2c1,le15
4977,"3,4-diethoxybenzaldehyde",402.15,1,CCOc1ccc(C=O)cc1OCC,le15
4978,"1,3-Dioxolane-4-methanol, 2-(phenylmethyl)-",429.65,1,OCC1COC(Cc2ccccc2)O1,le15
4979,ethyl 4-ethoxybenzoate,387.15,1,CCOC(=O)c1ccc(OCC)cc1,le15
4980,"Ethanol, 2,2'-(oxybis(2,1-ethanediyloxy))bis-",449.85,1,OCCOCCOCCOCCO,le15
4981,"Benzenamine, N,N-diethyl-4-nitro-",418.05,1,CCN(CC)c1ccc([N+](=O)[O-])cc1,le15
4982,"Benzothiazole, 2-amino-6-ethoxy- (8CI)",442.25,1,CCOc1ccc2nc(N)sc2c1,le15
4983,dithiophen-2-ylmethanone,422.25,1,O=C(c1cccs1)c1cccs1,le15
4984,[(E)-1-phenylprop-1-en-2-yl]benzene,397.65,1,C/C(=C\c1ccccc1)c1ccccc1,le15
4985,"1,3-Benzenediol, 4-hexyl-",428.35,1,CCCCCCc1ccc(O)cc1O,le15
4986,"Benzene, (2-(1-ethoxyethoxy)ethyl)-",350.85,1,CCOC(C)OCCc1ccccc1,le15
4987,1-(2-hydroperoxypropan-2-yl)-4-propan-2-ylbenzene,410.15,1,CC(C)c1ccc(C(C)(C)OO)cc1,le15
4988,1-Cyclohexyl-3-cyclopentylpropane,379.05,1,C1CCC(CCCC2CCCC2)CC1,le15
4989,2-cyclohexylethylcyclohexane,379.85,1,C1CCC(CCC2CCCCC2)CC1,le15
4990,p-Trifluoromethylbenzyl chloride,347.05,1,FC(F)(F)c1ccc(CCl)cc1,le15
4991,"Propanedioic acid, chloro-, diethyl ester",376.45,1,CCOC(=O)C(Cl)C(=O)OCC,le15
4992,dichlorophosphorylbenzene,382.95,1,O=P(Cl)(Cl)c1ccccc1,le15
4993,"Butyric acid, 2-bromo-, ethyl ester (8CI)",342.65,1,CCOC(=O)C(Br)CC,le15