,compound,flashpoint,pure substance,smiles,source
5025,"2,2-dimethyl-1,3-dioxolane",274.85,1.0,CC1(C)OCCO1,le15
5026,"Butanal, 3-methoxy- (9CI)",299.35,1.0,COC(C)CC=O,le15
5027,"3,3-dimethoxyprop-1-ene",270.35,1.0,C=CC(OC)OC,le15
5028,"Furfuryl alcohol, tetrahydro- (8CI)",347.15,1.0,OCC1CCCO1,le15
5029,"Formic acid, sec-butyl ester (8CI)",276.65,1.0,CCC(C)OC=O,le15
5030,"4-methyl-1,3-dioxane",295.35,1.0,CC1CCOCO1,le15
5031,2-(ethoxymethyl)oxirane,296.65,1.0,CCOCC1CO1,le15
5032,2methylbutyricacid,350.0,1.0,CCC(C)C(=O)O,le15
5033,3methylbutanoicacid,347.0,1.0,CC(C)CC(=O)O,le15
5034,MethylIsobutyrate,276.0,1.0,COC(=O)C(C)C,le15
5035,PivalicAcid,337.0,1.0,CC(C)(C)C(=O)O,le15
5036,tertButylFormate,264.0,1.0,CC(C)(C)OC=O,le15
5037,"Ethanamine, N-ethyl-N-nitroso-",332.15,1.0,CCN(CC)N=O,le15
5038,"1,1,3-trimethylurea",367.55,1.0,CNC(=O)N(C)C,le15
5039,Butyrohydrazide,378.05,1.0,CCCC(=O)NN,le15
5040,morpholin-4-amine,331.15,1.0,NN1CCOCC1,le15
5041,fluorocyclohexane,282.0499999999999,1.0,FC1CCCCC1,le15
5042,Fluorocyclohexane,278.0,1.0,FC1CCCCC1,le15
5043,2-Imidazolidinethione,316.65,1.0,S=C1NCCN1,le15
5044,Hexyl alcohol,333.15,1.0,CCCCCCO,le15
5045,"Propane, 1,1'-oxybis-",253.15,1.0,CCCOCCC,le15
5046,"2-Butanol, 3,3-dimethyl-",302.0499999999999,1.0,CC(O)C(C)(C)C,le15
5047,2-methylpentan-2-ol,294.25,1.0,CCCC(C)(C)O,le15
5048,hexan-3-ol,314.817,1.0,CCCC(O)CC,le15
5049,"1-Butanol, 3,3-dimethyl-",320.95,1.0,CC(C)(C)CCO,le15
5050,"1-Pentanol, 4-methyl- (9CI)",324.85,1.0,CC(C)CCCO,le15
5051,hexan-2-ol,314.15,1.0,CCCCC(C)O,le15
5052,"Ether, butyl ethyl",272.15,1.0,CCCCOCC,le15
5053,"Propane, 2-ethoxy-2-methyl-",254.15,1.0,CCOC(C)(C)C,le15
5054,"1-Butanol, 2,2-dimethyl-",310.5499999999999,1.0,CCC(C)(C)CO,le15
5055,"Pentanol, 4-methyl-",324.85,1.0,CC(C)CCCO,le15
5056,"2,3-dimethylbutan-2-ol",302.5499999999999,1.0,CC(C)C(C)(C)O,le15
5057,1ethoxybutane,268.0,1.0,CCCCOCC,le15
5058,2ethoxy2methylpropane,254.0,1.0,CCOC(C)(C)C,le15
5059,2ethyl1butanol,330.0,1.0,CCC(CC)CO,le15
5060,2methyl1pentanol,323.0,1.0,CCCC(C)CO,le15
5061,2methyl3pentanol,319.0,1.0,CCC(O)C(C)C,le15
5062,3methyl1pentanol,331.0,1.0,CCC(C)CCO,le15
5063,3methyl2pentanol,313.0,1.0,CCC(C)C(C)O,le15
5064,4methyl1pentanol,324.0,1.0,CC(C)CCCO,le15
5065,4methyl2pentanol,314.0,1.0,CC(C)CC(C)O,le15
5066,DiisopropylEther,245.0,1.0,CC(C)OC(C)C,le15
5067,methyltertpentylether,262.0,1.0,CCC(C)(C)OC,le15
5068,"N,N',N'-trimethylethane-1,2-diamine",282.5499999999999,1.0,CNCCN(C)C,le15
5069,thiane,294.25,1.0,C1CCSCC1,le15
5070,2-methylthiolane,301.25,1.0,CC1CCCS1,le15
5071,3-methylthiolane,301.25,1.0,CC1CCSC1,le15
5072,Cyclopentanethiol,298.0,1.0,SC1CCCC1,le15
5073,"Cyclopentene, 3-chloro-",281.85,1.0,ClC1C=CCC1,le15
5074,3-chloro-3-methylbut-1-yne,277.54999999999995,1.0,C#CC(C)(C)Cl,le15
5075,5chloro1pentyne,288.0,1.0,C#CCCCCl,le15
5076,"Urea, 1-methyl-1-nitroso- (8CI)",326.25,1.0,CN(N=O)C(N)=O,le15
5077,"Carbamic acid, N-methyl-, ethyl ester",330.95,1.0,CCOC(=O)NC,le15
5078,"Acetamide, N-(2-hydroxyethyl)-",449.85,1.0,CC(=O)NCCO,le15
5079,"Nitrous acid, butyl ester",261.15,1.0,CCCCON=O,le15
5080,"Propane, 2-methyl-2-nitro-",292.15,1.0,CC(C)(C)[N+](=O)[O-],le15
5081,2-methyl-1-nitropropane,311.35,1.0,CC(C)C[N+](=O)[O-],le15
5082,"Glycine, N,N-dimethyl-",332.95,1.0,CN(C)CC(=O)O,le15
5083,propan-2-yl carbamate,363.25,1.0,CC(C)OC(N)=O,le15
5084,"Nitrous acid, 2-methylpropyl ester",252.15,1.0,CC(C)CON=O,le15
5085,tertButylNitrite,250.0,1.0,CC(C)(C)ON=O,le15
5086,"2-Propanol, 1-(dimethylamino)-",308.15,1.0,CC(O)CN(C)C,le15
5087,2-(propan-2-ylamino)ethanol,343.45,1.0,CC(C)NCCO,le15
5088,5-Aminopentan-1-ol,338.75,1.0,NCCCCCO,le15
5089,"1-Pentanol, 2-amino-",368.15,1.0,CCCC(N)CO,le15
5090,"1-Propanamine, 3-ethoxy-",305.95,1.0,CCOCCCN,le15
5091,2-(dimethylamino)propan-1-ol,305.25,1.0,CC(CO)N(C)C,le15
5092,"Ethanol, 2-(propylamino)-",351.45,1.0,CCCNCCO,le15
5093,"1-Propanol, 3-(dimethylamino)-",309.25,1.0,CN(C)CCCO,le15
5094,"1,2-Ethanediamine, N-(2-aminoethyl)-",367.594,1.0,NCCNCCN,le15
5095,"Ethanamine, 2-hydrazino-N,N-dimethyl-",339.0499999999999,1.0,CN(C)CCNN,le15
5096,thiomorpholine,333.15,1.0,C1CSCCN1,le15
5097,"Butanenitrile, 4-chloro-",358.15,1.0,N#CCCCCl,le15
5098,Propanedioic acid,475.05,1.0,O=C(O)CC(=O)O,le15
5099,"Guanidine, 1-nitro-",422.45,1.0,N=C(N)N[N+](=O)[O-],le15
5100,4-Pyridinecarbonitrile,355.85,1.0,N#Cc1ccncc1,le15
5101,3-Pyridinecarbonitrile,357.594,1.0,N#Cc1cccnc1,le15
5102,Picolinonitrile (8CI),362.55,1.0,N#Cc1ccccn1,le15
5103,"Ethylene glycol, monoacetate",350.54999999999984,1.0,CC(=O)OCCO,le15
5104,methyl 2-hydroxypropanoate,322.15,1.0,COC(=O)C(C)O,le15
5105,"Acetic acid, 2-ethoxy-",366.25,1.0,CCOCC(=O)O,le15
5106,methyl 3-hydroxypropanoate,345.75,1.0,COC(=O)CCO,le15
5107,methyl 2-methoxyacetate,308.15,1.0,COCC(=O)OC,le15
5108,ethyl 2-hydroxyacetate,334.85,1.0,CCOC(=O)CO,le15
5109,"Benzene, ethenyl-",304.255,1.0,C=Cc1ccccc1,le15
5110,"Ethanol, 2-(1-methylethoxy)-",316.15,1.0,CC(C)OCCO,le15
5111,"1-Propanol, 3-ethoxy-",327.5499999999999,1.0,CCOCCCO,le15
5112,3-Hydroxy-3-methylbutan-1-ol,364.45,1.0,CC(C)(O)CCO,le15
5113,2-(Propyloxy)ethanol,324.35,1.0,CCCOCCO,le15
5114,"1,2-dimethoxypropane",273.75,1.0,COCC(C)OC,le15
5115,"1-Propanol, 2-ethoxy-",319.0499999999999,1.0,CCOC(C)CO,le15
5116,"1-Butanol, 3-methoxy-",319.85,1.0,COC(C)CCO,le15
5117,"Hydroperoxide, 1,1-dimethylpropyl",314.35,1.0,CCC(C)(C)OO,le15
5118,"Pentane-1,2-diol",377.15,1.0,CCCC(O)CO,le15
5119,"2-methylbutane-2,3-diol",343.35,1.0,CC(O)C(C)(C)O,le15
5120,2isopropoxyethanol,316.0,1.0,CC(C)OCCO,le15
5121,"Ethanol, 2-((2-aminoethyl)amino)-",363.65,1.0,NCCNCCO,le15
5122,2-(2-aminoethoxy)ethanamine,347.95,1.0,NCCOCCN,le15
5123,"Hexane, 1-fluoro-",300.35,1.0,CCCCCCF,le15
5124,S-ethyl ethanethioate,291.45,1.0,CCSC(C)=O,le15
5125,thiolane 1-oxide,389.65,1.0,O=S1CCCC1,le15
5126,"Propionaldehyde, 3-(methylthio)-",334.25,1.0,CSCCC=O,le15
5127,"1,4-Oxathiane",328.75,1.0,C1CSCCO1,le15
5128,4thiapentanal,331.0,1.0,CSCCC=O,le15
5129,"Urea, 1,3-dimethyl-2-thio-",473.15,1.0,CNC(=S)NC,le15
5130,2-methylbutane-1-thiol,292.5499999999999,1.0,CCC(C)CS,le15
5131,1-ethylsulfanylpropane,292.0499999999999,1.0,CCCSCC,le15
5132,3-methylbutane-1-thiol,291.45,1.0,CC(C)CCS,le15
5133,1-methylsulfanylbutane,293.75,1.0,CCCCSC,le15
5134,"2-Butanethiol, 2-methyl-",272.15,1.0,CCC(C)(C)S,le15
5135,2methyl1butanethiol,292.0,1.0,CCC(C)CS,le15
5136,2pentanethiol,282.0,1.0,CCCC(C)S,le15
5137,3methyl2butanethiol,292.0,1.0,CC(C)C(C)S,le15
5138,tertButylMethylSulfide,270.0,1.0,CSC(C)(C)C,le15
5139,2-methylprop-2-enoyl chloride,300.85,1.0,C=C(C)C(=O)Cl,le15
5140,(E)-but-2-enoyl chloride,308.15,1.0,C/C=C/C(=O)Cl,le15
5141,"2-Butenal, 2-chloro- (9CI)",316.95,1.0,CC=C(Cl)C=O,le15
5142,3-Chlorocrotonaldehyde,312.85,1.0,C/C(Cl)=C/C=O,le15
5143,1-chloro-3-methylbut-2-ene,277.15,1.0,CC(C)=CCCl,le15
5144,chlorocyclopentane,288.15,1.0,ClC1CCCC1,le15
5145,"1-Butene, 3-chloro-2-methyl-",275.15,1.0,C=C(C)C(C)Cl,le15
5146,"2-Butene, 1-chloro-2-methyl-",281.95,1.0,CC=C(C)CCl,le15
5147,Chlorocyclopentane,288.0,1.0,ClC1CCCC1,le15
5148,Serine,465.73199999999997,1.0,N[C@@H](CO)C(=O)O,le15
5149,propan-2-yl nitrate,285.95,1.0,CC(C)O[N+](=O)[O-],le15
5150,"Pyridine, 4-ethenyl-",324.817,1.0,C=Cc1ccncc1,le15
5151,"Pyridine, 2-ethenyl-",319.85,1.0,C=Cc1ccccn1,le15
5152,"Pyridine, 3-ethenyl-",324.0499999999999,1.0,C=Cc1cccnc1,le15
5153,"Ethanol, 2-(2-aminoethoxy)-",349.75,1.0,NCCOCCO,le15
5154,"Ethanol, 2,2'-iminobis-",410.92800000000005,1.0,OCCNCCO,le15
5155,"1,3-Propanediol, 2-amino-2-methyl-",382.85,1.0,CC(N)(CO)CO,le15
5156,Diethanolamine,410.0,1.0,OCCNCCO,le15
5157,"Semicarbazide, 4-methyl-3-thio- (8CI)",328.75,1.0,CNC(=S)NN,le15
5158,"Acetic acid, 2-fluoro-, ethyl ester",303.15,1.0,CCOC(=O)CF,le15
5159,(E)-hex-3-enedinitrile,419.35,1.0,N#CC/C=C/CC#N,le15
5160,"Ethanol, 2-(methoxymethoxy)-",310.95,1.0,COCOCCO,le15
5161,"Ethanol, 2,2'-oxybis-",416.483,1.0,OCCOCCO,le15
5162,trimethoxymethane,288.75,1.0,COC(OC)OC,le15
5163,Trimethoxymethane,288.0,1.0,COC(OC)OC,le15
5164,"Propanoic acid, 3-mercapto-",373.887,1.0,O=C(O)CCS,le15
5165,"Acetic acid, mercapto-, methyl ester",329.15,1.0,COC(=O)CS,le15
5166,"Ethene, (methylsulfonyl)- (9CI)",386.15,1.0,C=CS(C)(=O)=O,le15
5167,"Benzene, 1,3-dimethyl-",298.15,1.0,Cc1cccc(C)c1,le15
5168,"octa-1,7-diyne",296.45,1.0,C#CCCCCC#C,le15
5169,"(1Z,3Z,5Z)-cycloocta-1,3,5-triene",300.95,1.0,C1=C\C=C/CC\C=C/1,le15
5170,Carbonothioic dihydrazide,366.15,1.0,NNC(=S)NN,le15
5171,2-ethylsulfanylethanol,289.25,1.0,CCSCCO,le15
5172,"1,3-dithiolane",336.75,1.0,C1CSCS1,le15
5173,"Acrylic acid, 3-chloro-, (Z)- (8CI)",343.25,1.0,O=C(O)/C=C\Cl,le15
5174,2-methylpropanoyl chloride,274.25,1.0,CC(C)C(=O)Cl,le15
5175,"Ether, 2-chloroethyl vinyl",289.15,1.0,C=COCCCl,le15
5176,Butanoyl chloride,294.85,1.0,CCCC(=O)Cl,le15
5177,2-(chloromethyl)-2-methyloxirane,307.65,1.0,CC1(CCl)CO1,le15
5178,"2-Butanone, 3-chloro-",296.15,1.0,CC(=O)C(C)Cl,le15
5179,2-chloro-2-methylpropanal,298.65,1.0,CC(C)(Cl)C=O,le15
5180,1-chloropentane,284.25,1.0,CCCCCCl,le15
5181,2-chloro-2-methylbutane,276.54999999999995,1.0,CCC(C)(C)Cl,le15
5182,2-chloropentane,282.95,1.0,CCCC(C)Cl,le15
5183,"1-chloro-2,2-dimethylpropane",264.25,1.0,CC(C)(C)CCl,le15
5184,1-chloro-3-methylbutane,289.15,1.0,CC(C)CCCl,le15
5185,1chloropentane,314.0,1.0,CCCCCCl,le15
5186,2chloropentane,273.0,1.0,CCCC(C)Cl,le15
5187,Bromoethene (9CI),255.95,1.0,C=CBr,le15
5188,3-Pyridinecarboxaldehyde,357.15,1.0,O=Cc1cccnc1,le15
5189,pyridine-2-carbaldehyde,327.5499999999999,1.0,O=Cc1ccccn1,le15
5190,Benzenemethanamine,333.15,1.0,NCc1ccccc1,le15
5191,"Benzenamine, N-methyl-",352.039,1.0,CNc1ccccc1,le15
5192,"Pyridine, 2-ethyl-",302.5499999999999,1.0,CCc1ccccn1,le15
5193,"Pyridine, 2,6-dimethyl-",306.45,1.0,Cc1cccc(C)n1,le15
5194,4-ethylpyridine,320.15,1.0,CCc1ccncc1,le15
5195,3-ethylpyridine,322.0499999999999,1.0,CCc1cccnc1,le15
5196,"Pyridine, 3,4-dimethyl-",326.15,1.0,Cc1ccncc1C,le15
5197,"3,5-dimethylpyridine",326.15,1.0,Cc1cncc(C)c1,le15
5198,3-Cyclohexene-1-carbonitrile,338.95,1.0,N#CC1CC=CCC1,le15
5199,"2,3-dimethylpyridine",318.5499999999999,1.0,Cc1cccnc1C,le15
5200,"Pyridine, 2,5-dimethyl-",321.15,1.0,Cc1ccc(C)nc1,le15
5201,4methylaniline,359.0,1.0,Cc1ccc(N)cc1,le15
5202,"Carbamoyl chloride, dimethyl-",341.45,1.0,CN(C)C(=O)Cl,le15
5203,chloromethyl thiocyanate,357.04999999999984,1.0,N#CSCCl,le15
5204,"2,5-Cyclohexadiene-1,4-dione",332.45,1.0,O=C1C=CC(=O)C=C1,le15
5205,"Maleonitrile, diamino- (8CI)",495.85,1.0,N#C/C(N)=C(/N)C#N,le15
5206,"Methanesulfinic acid, 1-amino-1-imino-",441.85,1.0,N=C(N)S(=O)O,le15
5207,"Phenol, 2-methyl-",350.25,1.0,Cc1ccccc1O,le15
5208,Benzenemethanol,370.65,1.0,OCc1ccccc1,le15
5209,"Benzene, methoxy-",317.6040000000001,1.0,COc1ccccc1,le15
5210,"Phenol, 4-methyl-",354.15,1.0,Cc1ccc(O)cc1,le15
5211,"Phenol, 3-methyl-",359.26099999999997,1.0,Cc1cccc(O)c1,le15
5212,"Hydrazine, phenyl-",388.55,1.0,NNc1ccccc1,le15
5213,"1,4-Benzenediamine",409.05,1.0,Nc1ccc(N)cc1,le15
5214,"1,3-Benzenediamine",420.75,1.0,Nc1cccc(N)c1,le15
5215,"Pyrazine, 2,6-dimethyl-",325.95,1.0,Cc1cncc(C)n1,le15
5216,Hexanedinitrile,422.15,1.0,N#CCCCCC#N,le15
5217,"Pyrazine, 2,5-dimethyl-",337.0499999999999,1.0,Cc1cnc(C)cn1,le15
5218,"2-Pyridinamine, 4-methyl-",387.15,1.0,Cc1ccnc(N)c1,le15
5219,"4,6-dimethylpyrimidine",329.15,1.0,Cc1cc(C)ncn1,le15
5220,"Pyridine, 2-amino-3-methyl-",383.05,1.0,Cc1cccnc1N,le15
5221,"Pyridine, 2-amino-6-methyl-",376.15,1.0,Cc1cccc(N)n1,le15
5222,"4-Pyridinamine, 3-methyl- (9CI)",411.55,1.0,Cc1cnccc1N,le15
5223,pyridin-2-ylmethanamine,363.15,1.0,NCc1ccccn1,le15
5224,pyridin-3-ylmethanamine,373.15,1.0,NCc1cccnc1,le15
5225,pyridin-4-ylmethanamine,381.45,1.0,NCc1ccncc1,le15
5226,N-methylpyridin-2-amine,360.95,1.0,CNc1ccccn1,le15
5227,"Pyrazine, 2,3-dimethyl-",327.5499999999999,1.0,Cc1nccnc1C,le15
5228,"Pyrazine, 2-ethyl-",315.95,1.0,CCc1cnccn1,le15
5229,"2,4-dimethylpyrimidine",309.85,1.0,Cc1ccnc(C)n1,le15
5230,2-ethylbutanedinitrile,399.55,1.0,CCC(C#N)CC#N,le15
5231,"1,2-Benzenediamine",383.15,1.0,Nc1ccccc1N,le15
5232,"2-Pyridinamine, 5-methyl-",384.05,1.0,Cc1ccc(N)nc1,le15
5233,Adiponitrile,432.0,1.0,N#CCCCCC#N,le15
5234,"Cyclohexene, 4-vinyl- (8CI)",289.15,1.0,C=CC1CC=CCC1,le15
5235,"(3E)-2,5-dimethylhexa-1,3,5-triene",291.25,1.0,C=C(C)/C=C/C(=C)C,le15
5236,"(1Z,5Z)-cycloocta-1,5-diene",311.15,1.0,C1=C\CC/C=C\CC/1,le15
5237,1-ethenylcyclohexene,295.85,1.0,C=CC1=CCCCC1,le15
5238,"propane-1,3-dithiol",332.0499999999999,1.0,SCCCS,le15
5239,"propane-1,2-dithiol",308.15,1.0,CC(S)CS,le15
5240,bis(methylsulfanyl)methane,316.15,1.0,CSCSC,le15
5241,"Acetic acid, 2-chloro-, methyl ester",324.85,1.0,COC(=O)CCl,le15
5242,"Propanoic acid, 3-chloro-",398.15,1.0,O=C(O)CCCl,le15
5243,"Carbonochloridic acid, ethyl ester",291.95,1.0,CCOC(=O)Cl,le15
5244,"Propanoic acid, 2-chloro-",380.15,1.0,CC(Cl)C(=O)O,le15
5245,chloromethyl acetate,282.0499999999999,1.0,CC(=O)OCCl,le15
5246,2-methoxyacetyl chloride,301.15,1.0,COCC(=O)Cl,le15
5247,1-chloro-2-methylpropan-2-ol,334.15,1.0,CC(C)(O)CCl,le15
5248,1-chloro-2-ethoxyethane,288.75,1.0,CCOCCCl,le15
5249,"1-Butanol, 4-chloro-",350.35,1.0,OCCCCCl,le15
5250,1-chloro-3-methoxypropane,301.0499999999999,1.0,COCCCCl,le15
5251,"Propane, 1-chloro-2,3-epithio-",330.65,1.0,ClCC1CS1,le15
5252,Bromoethane,253.0,1.0,CCBr,le15
5253,"Phenol, 2-amino-",441.15,1.0,Nc1ccccc1O,le15
5254,pyridin-3-ylmethanol,370.65,1.0,OCc1cccnc1,le15
5255,"Phenol, 4-amino-",462.15,1.0,Nc1ccc(O)cc1,le15
5256,"Phenol, 3-amino-",428.15,1.0,Nc1cccc(O)c1,le15
5257,3-methyl-1H-pyridin-2-one,445.85,1.0,Cc1ccc[nH]c1=O,le15
5258,1-(1H-Pyrrol-2-yl)ethan-1-one,365.55,1.0,CC(=O)c1ccc[nH]1,le15
5259,"Hydroxylamine, N-phenyl-",393.35,1.0,ONc1ccccc1,le15
5260,2-methoxypyridine,305.15,1.0,COc1ccccn1,le15
5261,"Pyridine-2,6-diyldiamine",434.45,1.0,Nc1cccc(N)n1,le15
5262,thiophene-2-carbonitrile,326.45,1.0,N#Cc1cccs1,le15
5263,Cyclohexanecarbonitrile,341.95,1.0,N#CC1CCCCC1,le15
5264,"1,2,5-trimethylpyrrole",325.35,1.0,Cc1ccc(C)n1C,le15
5265,Cyclohexanecarbonitrile,338.0,1.0,N#CC1CCCCC1,le15
5266,1-chloro-1-nitroethane,302.85,1.0,CC(Cl)[N+](=O)[O-],le15
5267,1-chloro-2-nitroethane,329.65,1.0,O=[N+]([O-])CCCl,le15
5268,"Acetonitrile, dichloro-",309.15,1.0,N#CC(Cl)Cl,le15
5269,"Phosphonic acid, dimethyl ester",302.594,1.0,CO[PH](=O)OC,le15
5270,phenylphosphane,244.25,1.0,Pc1ccccc1,le15
5271,"2-Furancarboxaldehyde, 5-methyl-",345.15,1.0,Cc1ccc(C=O)o1,le15
5272,"Ethanone, 1-(2-furanyl)-",344.25,1.0,CC(=O)c1ccco1,le15
5273,Hydroquinone,438.0,1.0,Oc1ccc(O)cc1,le15
5274,"Pyridine, 4-amino-, 1-oxide",358.85,1.0,Nc1cc[n+]([O-])cc1,le15
5275,"Ethanone, 1-(1H-imidazol-1-yl)-",361.15,1.0,CC(=O)n1ccnc1,le15
5276,"Benzene, 1-fluoro-2-methyl-",284.5499999999999,1.0,Cc1ccccc1F,le15
5277,"Benzene, 1-fluoro-4-methyl-",285.0499999999999,1.0,Cc1ccc(F)cc1,le15
5278,"Toluene, m-fluoro- (8CI)",282.5499999999999,1.0,Cc1cccc(F)c1,le15
5279,fluoromethylbenzene,290.5499999999999,1.0,FCc1ccccc1,le15
5280,"Methanesulfonic acid, methyl ester",377.15,1.0,COS(C)(=O)=O,le15
5281,dimethyl sulfite,303.15,1.0,COS(=O)OC,le15
5282,3-Cyclohexene-1-carboxaldehyde,330.35,1.0,O=CC1CC=CCC1,le15
5283,dicyclopropylmethanone,312.5499999999999,1.0,O=C(C1CC1)C1CC1,le15
5284,3-methylcyclohex-2-en-1-one,341.45,1.0,CC1=CC(=O)CCC1,le15
5285,Cyclohexenecarboxaldehyde,344.25,1.0,O=CC1=CCCCC1,le15
5286,2-ethyl-5-methylfuran,288.25,1.0,CCc1ccc(C)o1,le15
5287,2-propylfuran,287.95,1.0,CCCc1ccco1,le15
5288,3-methylcyclohex-3-en-1-one,328.65,1.0,CC1=CCCC(=O)C1,le15
5289,1-ethynylcyclopentan-1-ol,322.0499999999999,1.0,C#CC1(O)CCCC1,le15
5290,2-ethyl-5-methyl-1H-imidazole,410.95,1.0,CCc1ncc(C)[nH]1,le15
5291,"1,3,5-trimethylpyrazole",313.15,1.0,Cc1cc(C)n(C)n1,le15
5292,Benzenethiol,323.75,1.0,Sc1ccccc1,le15
5293,oct-1-yne,290.15,1.0,C#CCCCCCC,le15
5294,ethenylcyclohexane,294.25,1.0,C=CC1CCCCC1,le15
5295,"2,4-Hexadiene, 2,5-dimethyl-",298.15,1.0,CC(C)=CC=C(C)C,le15
5296,cyclooctene,298.15,1.0,C1=CCCCCCC1,le15
5297,ethylidenecyclohexane,297.0499999999999,1.0,CC=C1CCCCC1,le15
5298,1-ethylcyclohexene,292.35,1.0,CCC1=CCCCC1,le15
5299,1-methylcycloheptene,293.75,1.0,CC1=CCCCCC1,le15
5300,"1,2-dimethylcyclohexene",289.95,1.0,CC1=C(C)CCCC1,le15
5301,3-ethylcyclohexene,286.0499999999999,1.0,CCC1C=CCCC1,le15
5302,oct-2-yne,297.25,1.0,CC#CCCCCC,le15
5303,prop-2-enylcyclopentane,285.35,1.0,C=CCC1CCCC1,le15
5304,"1,7-Octadiene",282.5499999999999,1.0,C=CCCCCC=C,le15
5305,"(2E,6E)-octa-2,6-diene",286.85,1.0,C/C=C/CC/C=C/C,le15
5306,"4,4-dimethylcyclohexene",275.85,1.0,CC1(C)CC=CCC1,le15
5307,oct-3-yne,295.15,1.0,CCC#CCCCC,le15
5308,2propenylcyclopentane,285.0,1.0,CC=CC1CCCC1,le15
5309,4octyne,291.0,1.0,CCCC#CCCC,le15
5310,Ethenylcyclohexane,295.0,1.0,C=CC1CCCCC1,le15
5311,1-chloro-4-fluorobutane,283.0499999999999,1.0,FCCCCCl,le15
5312,3chloro1propanethiol,316.0,1.0,SCCCCl,le15
5313,"1-Propene, 2,3-dichloro-",283.15,1.0,C=C(Cl)CCl,le15
5314,"1-Propene, 1,3-dichloro-",300.95,1.0,ClC=CCCl,le15
5315,"Propene, 1,2-dichloro-",288.85,1.0,CC(Cl)=CCl,le15
5316,"3,3-dichloroprop-1-ene",276.15,1.0,C=CC(Cl)Cl,le15
5317,"1-Propene, 1,1-dichloro- (9CI)",273.75,1.0,CC=C(Cl)Cl,le15
5318,"1-Propene, 1,3-dichloro-, (Z)- (9CI)",297.15,1.0,Cl/C=C\CCl,le15
5319,"(E)-1,3-dichloroprop-1-ene",300.95,1.0,Cl/C=C/CCl,le15
5320,"2-Propenoic acid, 2-cyano-, methyl ester",340.75,1.0,C=C(C#N)C(=O)OC,le15
5321,"Aniline, o-fluoro- (8CI)",333.15,1.0,Nc1ccccc1F,le15
5322,"Aniline, p-fluoro- (8CI)",351.04999999999984,1.0,Nc1ccc(F)cc1,le15
5323,"Aniline, m-fluoro- (8CI)",350.35,1.0,Nc1cccc(F)c1,le15
5324,1-Ethenyl-2-pyrrolidinone (9CI),367.05,1.0,C=CN1CCCC1=O,le15
5325,"Propanenitrile, 3-(2-propenyloxy)- (9CI)",356.04999999999984,1.0,C=CCOCCC#N,le15
5326,1-(furan-2-yl)-N-methylmethanamine,307.15,1.0,CNCc1ccco1,le15
5327,"2,4,5-Trimethyloxazole",306.45,1.0,Cc1nc(C)c(C)o1,le15
5328,1H-Imidazole-4-ethanamine,453.45,1.0,NCCc1c[nH]cn1,le15
5329,Heptane-1-nitrile,333.65,1.0,CCCCCCC#N,le15
5330,"2-Propyn-1-amine, N,N-diethyl-",429.15,1.0,C#CCN(CC)CC,le15
5331,"1-Propyn-1-amine, N,N-diethyl- (9CI)",311.85,1.0,CC#CN(CC)CC,le15
5332,Heptanenitrile,331.0,1.0,CCCCCCC#N,le15
5333,"2-Propanone, 1,1,1-trifluoro-",243.15,1.0,CC(=O)C(F)(F)F,le15
5334,2-Furancarboxylic acid,367.35,1.0,O=C(O)c1ccco1,le15
5335,"2,5-Furandione, 3-methyl-",374.15,1.0,CC1=CC(=O)OC1=O,le15
5336,"3,6-Pyridazinedione, 1,2-dihydro-",515.55,1.0,O=c1ccc(=O)[nH][nH]1,le15
5337,1H-imidazole-5-carboxylic acid,526.3499999999998,1.0,O=C(O)c1cnc[nH]1,le15
5338,"4(1H)-Pyrimidinone, 6-hydroxy-",443.75,1.0,O=c1cc(O)[nH]cn1,le15
5339,"Phenol, 2-fluoro-",319.85,1.0,Oc1ccccc1F,le15
5340,"Phenol, 4-fluoro-",347.95,1.0,Oc1ccc(F)cc1,le15
5341,3-fluorophenol,344.15,1.0,Oc1cccc(F)c1,le15
5342,"2-Cyclopenten-1-one, 2-hydroxy-3-methyl-",373.85,1.0,CC1=C(O)C(=O)CC1,le15
5343,"2H-Pyran-2-carboxaldehyde, 3,4-dihydro-",346.54999999999984,1.0,O=CC1CCC=CO1,le15
5344,"1,3-Cyclohexanedione",358.85,1.0,O=C1CCCC(=O)C1,le15
5345,"1,4-Cyclohexanedione",355.35,1.0,O=C1CCC(=O)CC1,le15
5346,"1,2-Cyclohexanedione",357.15,1.0,O=C1CCCCC1=O,le15
5347,"Acrylic acid, allyl ester (8CI)",342.35,1.0,C=CCOC(=O)C=C,le15
5348,"1,3-Butadien-1-ol, acetate",306.45,1.0,C=CC=COC(C)=O,le15
5349,"2-Propyn-1-ol, propanoate",315.25,1.0,C#CCOC(=O)CC,le15
5350,1-(furan-2-yl)ethanol,307.75,1.0,CC(O)c1ccco1,le15
5351,ethyl but-2-ynoate,326.35,1.0,CC#CC(=O)OCC,le15
5352,2-(methoxymethyl)furan,295.25,1.0,COCc1ccco1,le15
5353,"2-Butenoic acid, ethenyl ester",300.15,1.0,C=COC(=O)C=CC,le15
5354,"2,4-Hexadienoic acid, (2E,4E)-",400.15,1.0,C/C=C/C=C/C(=O)O,le15
5355,2-Thiophenecarboxaldehyde,350.95,1.0,O=Cc1cccs1,le15
5356,"Guanidine, N'-cyano-N,N-dimethyl-",337.5499999999999,1.0,CN(C)C(=N)NC#N,le15
5357,"Cyclohexanone, 2-methyl-",319.0499999999999,1.0,CC1CCCCC1=O,le15
5358,"Cyclohexanone, 3-methyl-",321.15,1.0,CC1CCCC(=O)C1,le15
5359,2-Heptyn-1-ol,351.15,1.0,CCCCC#CCO,le15
5360,2-Methylenehexanal,306.45,1.0,C=C(C=O)CCCC,le15
5361,"hepta-1,6-dien-4-ol",313.15,1.0,C=CCC(O)CC=C,le15
5362,"5-Hexen-2-one, 5-methyl-",311.85,1.0,C=C(C)CCC(C)=O,le15
5363,"2,5-dimethylcyclopentan-1-one",313.75,1.0,CC1CCC(C)C1=O,le15