,compound,flashpoint,pure substance,smiles,source
10693,"Benzene, 1,2,4,5-tetrachloro-3-nitro-",416.25,1.0,O=[N+]([O-])c1c(Cl)c(Cl)cc(Cl)c1Cl,le15
10694,1-chlorohexadecane,411.25,1.0,CCCCCCCCCCCCCCCCCl,le15
10695,"1-(bromomethyl)-2,3,4,5,6-pentafluorobenzene",355.15,1.0,Fc1c(F)c(F)c(CBr)c(F)c1F,le15
10696,"Methanone, (4-bromophenyl)phenyl- (9CI)",354.45,1.0,O=C(c1ccccc1)c1ccc(Br)cc1,le15
10697,"1,3,5-Triazine-2,4,6(1H,3H,5H)-trione, 1,3,5-tris(2-hydroxyethyl)-",545.45,1.0,O=c1n(CCO)c(=O)n(CCO)c(=O)n1CCO,le15
10698,"Phosphorothioic acid, O-(4-aminophenyl) O,O-diethyl ester",436.35,1.0,CCOP(=S)(OCC)Oc1ccc(N)cc1,le15
10699,"2-Naphthalenamine, 1-((2-methylphenyl)azo)-",516.45,1.0,Cc1ccccc1N=Nc1c(N)ccc2ccccc12,le15
10700,3-trichlorosilylpropyl 2-methylprop-2-enoate,391.45,1.0,C=C(C)C(=O)OCCC[Si](Cl)(Cl)Cl,le15
10701,"1,3-Propanediol, 2,2-bis(bromomethyl)-",451.25,1.0,OCC(CO)(CBr)CBr,le15
10702,"Benzenamine, 2-bromo-4,6-dinitro-",469.35,1.0,Nc1c(Br)cc([N+](=O)[O-])cc1[N+](=O)[O-],le15
10703,methyl 2-iodobenzoate,383.45,1.0,COC(=O)c1ccccc1I,le15
10704,methyl 3-iodobenzoate,403.85,1.0,COC(=O)c1cccc(I)c1,le15
10705,"Phosphine, triphenyl-",454.85,1.0,c1ccc(P(c2ccccc2)c2ccccc2)cc1,le15
10706,1-((4-Methylphenyl)azo)-2-naphthalenol,483.25,1.0,Cc1ccc(N=Nc2c(O)ccc3ccccc23)cc1,le15
10707,"dibutyl (2R,3R)-2,3-dihydroxybutanedioate",440.15,1.0,CCCCOC(=O)[C@H](O)[C@@H](O)C(=O)OCCCC,le15
10708,Benzyl tosylate,476.55,1.0,Cc1ccc(S(=O)(=O)OCc2ccccc2)cc1,le15
10709,"Phosphorodithioic acid, S-(2-(ethylsulfinyl)ethyl) O,O-dimethyl ester",459.35,1.0,CCS(=O)CCSP(=S)(OC)OC,le15
10710,"Phenol, 2,4,6-tri-tert-butyl- (6CI,7CI,8CI)",402.45,1.0,CC(C)(C)c1cc(C(C)(C)C)c(O)c(C(C)(C)C)c1,le15
10711,"Arsonic acid, (4-hydroxy-3-nitrophenyl)-",513.481,1.0,O=[N+]([O-])c1cc([As](=O)(O)O)ccc1O,le15
10712,"Glycine, N,N-bis(phosphonomethyl)-",631.15,1.0,O=C(O)CN(CP(=O)(O)O)CP(=O)(O)O,le15
10713,"Phosphorothioic acid, O,O-dimethyl O-(4-nitrophenyl) ester",319.25,1.0,COP(=S)(OC)Oc1ccc([N+](=O)[O-])cc1,le15
10714,"Pyren-6-ol, 1-nitro-",491.45,1.0,O=[N+]([O-])c1ccc2ccc3c(O)ccc4ccc1c2c43,le15
10715,"Pyren-8-ol, 1-nitro-",491.45,1.0,O=[N+]([O-])c1ccc2ccc3ccc(O)c4ccc1c2c34,le15
10716,1-bromotridecane,383.15,1.0,CCCCCCCCCCCCCBr,le15
10717,"5H-Dibenzo(a,d)cycloheptene-5-propanamine, N-methyl-",471.45,1.0,CNCCCC1c2ccccc2C=Cc2ccccc21,le15
10718,"Pyrrolidine, 3-(diphenylmethylene)-1-ethyl-",446.15,1.0,CCN1CCC(=C(c2ccccc2)c2ccccc2)C1,le15
10719,"Phenol, 3,5-bis(1,1-dimethylethyl)-, methylcarbamate (9CI)",416.55,1.0,CNC(=O)Oc1cc(C(C)(C)C)cc(C(C)(C)C)c1,le15
10720,"N,N-Bis(2,2-diethoxyethyl)methylamine",353.35,1.0,CCOC(CN(C)CC(OCC)OCC)OCC,le15
10721,"9-Octadecenenitrile, (9Z)-",464.25,1.0,CCCCCCCC/C=C\CCCCCCCC#N,le15
10722,"1,2,3,4-tetrachloro-5,5-dimethoxycyclopenta-1,3-diene",339.85,1.0,COC1(OC)C(Cl)=C(Cl)C(Cl)=C1Cl,le15
10723,"Benzene, (1,2-dibromoethyl)-",389.65,1.0,BrCC(Br)c1ccccc1,le15
10724,"o-Xylene, alpha,alpha'-dibromo- (8CI)",406.75,1.0,BrCc1ccccc1CBr,le15
10725,"m-Xylene, alpha,alpha'-dibromo- (8CI)",411.25,1.0,BrCc1cccc(CBr)c1,le15
10726,"Phosphorothioic acid, O,O-dimethyl O-(p-(methylthio)phenyl) ester",420.95,1.0,COP(=S)(OC)Oc1ccc(SC)cc1,le15
10727,"2-Propenoic acid, 3-phenyl-, 3-phenyl-2-propenyl ester",554.3499999999998,1.0,O=C(C=Cc1ccccc1)OCC=Cc1ccccc1,le15
10728,"Toluene, alpha,alpha,alpha,3,4-pentachloro- (8CI)",396.65,1.0,Clc1ccc(C(Cl)(Cl)Cl)cc1Cl,le15
10729,"2-Benzothiazolesulfenamide, N-cyclohexyl-",475.15,1.0,c1ccc2sc(SNC3CCCCC3)nc2c1,le15
10730,"Ethanamine, 2,2'-dithiobis(N,N-diethyl-",424.15,1.0,CCN(CC)CCSSCCN(CC)CC,le15
10731,"2-Propanone, 1,1,1,3,3,3-hexachloro-",349.35,1.0,O=C(C(Cl)(Cl)Cl)C(Cl)(Cl)Cl,le15
10732,"Phosphonothioic acid, ethyl-, O-(4-chlorophenyl) O-ethyl ester",416.85,1.0,CCOP(=S)(CC)Oc1ccc(Cl)cc1,le15
10733,"Benzimidazole, 5-bromo-2-(trifluoromethyl)-",422.55,1.0,FC(F)(F)c1nc2ccc(Br)cc2[nH]1,le15
10734,"Phosphorothioic acid, S-1,2-dichlorovinyl O,O-diethyl ester",399.05,1.0,CCOP(=O)(OCC)SC(Cl)=CCl,le15
10735,"Phosphorothioic acid, S-2,2-dichlorovinyl O,O-diethyl ester",387.05,1.0,CCOP(=O)(OCC)SC=C(Cl)Cl,le15
10736,"4(3H)-Quinazolinone, 6-amino-2-methyl-3-(o-tolyl)-",519.45,1.0,Cc1ccccc1-n1c(C)nc2ccc(N)cc2c1=O,le15
10737,"1,4-Benzodioxan, 2-(butylaminomethyl)-8-ethoxy-",426.05,1.0,CCCCNCC1COc2cccc(OCC)c2O1,le15
10738,"Benzimidazole, 4-chloro-6-nitro-2-(trifluoromethyl)-",457.85,1.0,O=[N+]([O-])c1cc(Cl)c2[nH]c(C(F)(F)F)nc2c1,le15
10739,"Benzimidazole, 5-chloro-6-nitro-2-(trifluoromethyl)-",465.85,1.0,O=[N+]([O-])c1cc2nc(C(F)(F)F)[nH]c2cc1Cl,le15
10740,"1,3-Benzenedicarbonitrile, 2,4,5,6-tetrachloro-",426.95,1.0,N#Cc1c(Cl)c(Cl)c(Cl)c(C#N)c1Cl,le15
10741,"Nonane, 1,1,1,9-tetrachloro-",389.35,1.0,ClCCCCCCCCC(Cl)(Cl)Cl,le15
10742,"3(2H)-Pyridazinone, 5-amino-4-bromo-2-phenyl-",423.75,1.0,Nc1cnn(-c2ccccc2)c(=O)c1Br,le15
10743,"2-Ethyl-2,5,6,7,8-pentahydroxy-1,4-naphthoquinone",360.55,1.0,CCC1(O)CC(=O)c2c(O)c(O)c(O)c(O)c2C1=O,le15
10744,"Phenol, 2-cyclohexyl-4,6-dinitro-",402.75,1.0,O=[N+]([O-])c1cc(C2CCCCC2)c(O)c([N+](=O)[O-])c1,le15
10745,"7-beta-D-ribofuranosyl-7H-pyrrolo-(2,3-d)pyrimidin-4-amine (9CI)",619.3499999999998,1.0,Nc1ncnc2c1ccn2[C@@H]1O[C@H](CO)[C@@H](O)[C@H]1O,le15
10746,"Methanone, (2-ethyl-3-benzofuranyl)(4-hydroxyphenyl)-",513.3499999999998,1.0,CCc1oc2ccccc2c1C(=O)c1ccc(O)cc1,le15
10747,"Phenol, pentachloro-",406.85,1.0,Oc1c(Cl)c(Cl)c(Cl)c(Cl)c1Cl,le15
10748,"Benzene, 1-(1,1-dimethylethyl)-2,6-dinitro-3,4,5-trimethyl-",447.75,1.0,Cc1c(C)c([N+](=O)[O-])c(C(C)(C)C)c([N+](=O)[O-])c1C,le15
10749,"9H-Indeno(2,1-c)phenanthrene",516.05,1.0,c1ccc2c(c1)Cc1ccc3ccc4ccccc4c3c1-2,le15
10750,6-Methylbenzo(def)chrysene,509.85,1.0,Cc1c2ccccc2c2ccc3cccc4ccc1c2c43,le15
10751,"Benzo(a)pyrene, 12-methyl-",509.85,1.0,Cc1cc2c3ccccc3cc3ccc4cccc1c4c32,le15
10752,"13H-Indeno(1,2-c)phenanthrene",516.05,1.0,c1ccc2c(c1)Cc1c-2ccc2ccc3ccccc3c12,le15
10753,"Phenol, 4,4'-(1,2-diethylidene-1,2-ethanediyl)bis-",454.55,1.0,CC=C(C(=CC)c1ccc(O)cc1)c1ccc(O)cc1,le15
10754,"2-Propenoic acid, 3-phenyl-, 3-phenylpropyl ester",533.75,1.0,O=C(C=Cc1ccccc1)OCCCc1ccccc1,le15
10755,Phosphoric acid tributyl ester,466.45,1.0,CCCCOP(=O)(OCCCC)OCCCC,le15
10756,"(1,1-Biphenyl)-4-acetic acid, alpha-2-butenyl-",597.3499999999998,1.0,CC=CCC(C(=O)O)c1ccc(-c2ccccc2)cc1,le15
10757,"Phosphoric acid, tris(2-methylpropyl) ester",398.95,1.0,CC(C)COP(=O)(OCC(C)C)OCC(C)C,le15
10758,"Acetamide, N-(4-(2-hydroxy-3-((1-methylethyl)amino)propoxy)phenyl)-",525.45,1.0,CC(=O)Nc1ccc(OCC(O)CNC(C)C)cc1,le15
10759,"5H-Dibenz(b,f)azepine, 10,11-dihydro-5-(3-(methylamino)propyl)-",433.65,1.0,CNCCCN1c2ccccc2CCc2ccccc21,le15
10760,"1,4-Benzenediamine, N-cyclohexyl-N'-phenyl-",549.05,1.0,c1ccc(Nc2ccc(NC3CCCCC3)cc2)cc1,le15
10761,"Biphenyl, 4-octyl- (6CI,7CI,8CI)",474.35,1.0,CCCCCCCCc1ccc(-c2ccccc2)cc1,le15
10762,"2-Benzothiazolesulfenamide, N,N-bis(1-methylethyl)-",437.65,1.0,CC(C)N(Sc1nc2ccccc2s1)C(C)C,le15
10763,tetradecylcyclopentane,427.25,1.0,CCCCCCCCCCCCCCC1CCCC1,le15
10764,"2,3,4,5,6-pentafluorobenzenesulfonyl chloride",354.25,1.0,O=S(=O)(Cl)c1c(F)c(F)c(F)c(F)c1F,le15
10765,"1,1,2-tribromoethane",340.75,1.0,BrCC(Br)Br,le15
10766,3-Nitro-5-fluoro-1-iodobenzene,394.85,1.0,O=[N+]([O-])c1cc(F)cc(I)c1,le15
10767,"9,10-Anthracenedione, 2-methyl-1-nitro- (9CI)",521.8499999999998,1.0,Cc1ccc2c(c1[N+](=O)[O-])C(=O)c1ccccc1C2=O,le15
10768,"4H-Pyrrolo(2,3-d)pyrimidin-4-one, 1,7-dihydro-7-beta-D-ribofuranosyl-",604.8499999999998,1.0,O=c1nc[nH]c2c1ccn2[C@@H]1O[C@H](CO)[C@@H](O)[C@H]1O,le15
10769,"L-Glutamine, N-(4-nitrophenyl)-",584.15,1.0,NC(=O)CC[C@H](Nc1ccc([N+](=O)[O-])cc1)C(=O)O,le15
10770,9-beta-D-Arabinofuranosyl-9H-purin-6-amine (9CI),635.95,1.0,Nc1ncnc2c1ncn2[C@@H]1O[C@H](CO)[C@@H](O)[C@@H]1O,le15
10771,Adenosine,635.95,1.0,Nc1ncnc2c1ncn2[C@@H]1O[C@H](CO)[C@@H](O)[C@H]1O,le15
10772,"1,4-Oxathiin-3-carboxamide, 5,6-dihydro-2-methyl-N-phenyl-, 4,4-dioxid",546.05,1.0,CC1=C(C(=O)Nc2ccccc2)S(=O)(=O)CCO1,le15
10773,"Benzenesulfonamide, 4-amino-N-(3,4-dimethyl-5-isoxazolyl)-",518.55,1.0,Cc1noc(NS(=O)(=O)c2ccc(N)cc2)c1C,le15
10774,"7H-Dibenzo(c,g)carbazole",519.65,1.0,c1ccc2c(c1)ccc1[nH]c3ccc4ccccc4c3c12,le15
10775,"2-Piperidinemethanol, alpha,alpha-diphenyl-",400.55,1.0,OC(c1ccccc1)(c1ccccc1)C1CCCCN1,le15
10776,"Benzenamine, 4,4'-carbonimidoylbis(N,N-dimethyl-",472.55,1.0,CN(C)c1ccc(C(=N)c2ccc(N(C)C)cc2)cc1,le15
10777,"Pentanoic acid, 4-(1-piperidinyl)cyclohexyl ester (9CI)",381.75,1.0,CCCCC(=O)OC1CCC(N2CCCCC2)CC1,le15
10778,"Isovaleric acid, 4-piperidinocyclohexyl ester",379.35,1.0,CC(C)CC(=O)OC1CCC(N2CCCCC2)CC1,le15
10779,"Benzyl alcohol, alpha-(trichloromethyl)-, acetate (9CI)",418.25,1.0,CC(=O)OC(c1ccccc1)C(Cl)(Cl)Cl,le15
10780,"Quinoxaline, 5,6,7,8-tetrachloro-",488.15,1.0,Clc1c(Cl)c(Cl)c2nccnc2c1Cl,le15
10781,"1,4,5,8-Naphthalenetetracarboxylic 1,8:4,5-dianhydride (8CI)",553.55,1.0,O=c1oc(=O)c2ccc3c(=O)oc(=O)c4ccc1c2c43,le15
10782,"6H-Benzofuro(3,2-c)(1)benzopyran-6-one, 3,9-dihydroxy-",472.45,1.0,O=c1oc2cc(O)ccc2c2oc3cc(O)ccc3c12,le15
10783,"1,1'-(m-Phenylene)bis-1H-pyrrole-2,5-dione (9CI)",523.8499999999998,1.0,O=C1C=CC(=O)N1c1cccc(N2C(=O)C=CC2=O)c1,le15
10784,Inosine,670.143,1.0,OC[C@H]1O[C@@H](n2cnc3c(O)ncnc32)[C@H](O)[C@@H]1O,le15
10785,"9(10H)-Anthracenone, 10-acetyl-1,8-dihydroxy-",528.05,1.0,CC(=O)C1c2cccc(O)c2C(=O)c2c(O)cccc21,le15
10786,"Benzene, 1-(1,1-dimethylethyl)-2-methoxy-4-methyl-3,5-dinitro-",422.75,1.0,COc1c(C(C)(C)C)cc([N+](=O)[O-])c(C)c1[N+](=O)[O-],le15
10787,"Anthraquinone, 1,4,5,8-tetraamino- (8CI)",657.45,1.0,Nc1ccc(N)c2c1C(=O)c1c(N)ccc(N)c1C2=O,le15
10788,"Benzenamine, N,N-dimethyl-4-(2-(4-nitrophenyl)ethenyl)-",475.95,1.0,CN(C)c1ccc(C=Cc2ccc([N+](=O)[O-])cc2)cc1,le15
10789,"Benz(j)aceanthrylene, 1,2-dihydro-3-methyl-",268.15,1.0,Cc1ccc2cc3c(ccc4ccccc43)c3c2c1CC3,le15
10790,"Urea, N,N'-diethyl-N,N'-diphenyl-",423.95,1.0,CCN(C(=O)N(CC)c1ccccc1)c1ccccc1,le15
10791,"Methanone, bis(4-(dimethylamino)phenyl)-",493.15,1.0,CN(C)c1ccc(C(=O)c2ccc(N(C)C)cc2)cc1,le15
10792,"1,4-Benzenediamine, N-(1,3-dimethylbutyl)-N'-phenyl-",477.15,1.0,CC(C)CC(C)Nc1ccc(Nc2ccccc2)cc1,le15
10793,(Z)-octadec-9-en-1-ol,393.85,1.0,CCCCCCCC/C=C\CCCCCCCCO,le15
10794,"Phosphorodithioic acid, S-(4-chlorophenyl) O,O-dimethyl ester",424.35,1.0,COP(=S)(OC)Sc1ccc(Cl)cc1,le15
10795,"Phenol, 2,2'-methylenebis(4-chloro-",480.15,1.0,Oc1ccc(Cl)cc1Cc1cc(Cl)ccc1O,le15
10796,"Sulfamide, N-(2,4-dichlorobenzyl)-N-methyl-",477.05,1.0,CN(Cc1ccc(Cl)cc1Cl)S(N)(=O)=O,le15
10797,"Benzene, 1-chloro-4-(((4-chlorophenyl)methyl)thio)-",441.55,1.0,Clc1ccc(CSc2ccc(Cl)cc2)cc1,le15
10798,"Acetamide, N-(4-(2-(2-hydroxy-5-methylphenyl)diazenyl)phenyl)-",549.8499999999998,1.0,CC(=O)Nc1ccc(N=Nc2cc(C)ccc2O)cc1,le15
10799,N-naphthalen-2-ylnaphthalen-2-amine,541.65,1.0,c1ccc2cc(Nc3ccc4ccccc4c3)ccc2c1,le15
10800,"(1,1'-Biphenyl)-4-ol, 3-(4-morpholinylmethyl)-",474.05,1.0,Oc1ccc(-c2ccccc2)cc1CN1CCOCC1,le15
10801,"Ethanol, 2-chloro-, phosphite (3:1)",370.35,1.0,OCCCl.OCCCl.OCCCl.OP(O)O,le15
10802,"Propionic acid, 2-(2,4,5-trichlorophenoxy)-",455.75,1.0,CC(Oc1cc(Cl)c(Cl)cc1Cl)C(=O)O,le15
10803,1-Octadecanamine,421.15,1.0,CCCCCCCCCCCCCCCCCCN,le15
10804,"2-Bromo-3,3-dimethyl-N-phenylbutanamide",453.05,1.0,CC(C)(C)C(Br)C(=O)Nc1ccccc1,le15
10805,"9,10-Anthracenedione, 1,3-dihydroxy-2-(hydroxymethyl)- (9CI)",594.75,1.0,O=C1c2ccccc2C(=O)c2c1cc(O)c(CO)c2O,le15
10806,"9,10-Anthracenedione, 1,8-dihydroxy-3-(hydroxymethyl)- (9CI)",585.05,1.0,O=C1c2cccc(O)c2C(=O)c2c(O)cc(CO)cc21,le15
10807,"Anthraquinone, 1,3,8-trihydroxy-6-methyl- (8CI)",595.95,1.0,Cc1cc(O)c2c(c1)C(=O)c1cc(O)cc(O)c1C2=O,le15
10808,"4H-1-Benzopyran-4-one, 3,5,7-trihydroxy-2-phenyl- (9CI)",475.15,1.0,O=c1c(O)c(-c2ccccc2)oc2cc(O)cc(O)c12,le15
10809,"4H-1-Benzopyran-4-one, 5,7-dihydroxy-2-(4-hydroxyphenyl)- (9CI)",490.15,1.0,O=c1cc(-c2ccc(O)cc2)oc2cc(O)cc(O)c12,le15
10810,"Maleic anhydride, dihydroxy-, dibutyrate",435.65,1.0,CCCC(=O)O.CCCC(=O)O.O=C1OC(=O)C(O)=C1O,le15
10811,"9,10-Anthracenedione, 1,5-diamino-4,8-dihydroxy-",619.75,1.0,Nc1ccc(O)c2c1C(=O)c1c(O)ccc(N)c1C2=O,le15
10812,"Benzene, 1,1'-(1,2-ethenediyl)bis(4-nitro-, (E)-",455.85,1.0,O=[N+]([O-])c1ccc(/C=C/c2ccc([N+](=O)[O-])cc2)cc1,le15
10813,"7H-Furo(3,2-g)(1)benzopyran-7-one, 9-((3-methyl-2-butenyl)oxy)-",498.05,1.0,CC(C)=CCOc1c2occc2cc2ccc(=O)oc12,le15
10814,"Anthrone, 1,8-dihydroxy-3-methoxy-6-methyl-",483.25,1.0,COc1cc(O)c2c(c1)Cc1cc(C)cc(O)c1C2=O,le15
10815,"Benzenesulfonamide, 4-amino-N-(5-methyl-1,3,4-thiadiazol-2-yl)-",532.25,1.0,Cc1nnc(NS(=O)(=O)c2ccc(N)cc2)s1,le15
10816,"Estra-1,3,5(10)-trien-17-one, 3-hydroxy-",462.85,1.0,C[C@]12CC[C@@H]3c4ccc(O)cc4CC[C@H]3[C@@H]1CCC2=O,le15
10817,"Peroxide, bis(alpha,alpha-dimethylbenzyl)",372.75,1.0,CC(C)(OOC(C)(C)c1ccccc1)c1ccccc1,le15
10818,"Ethanamine, N,N-dimethyl-2-(1-phenyl-1-(2-pyridinyl)ethoxy)-",447.65,1.0,CN(C)CCOC(C)(c1ccccc1)c1ccccn1,le15
10819,"1,3-Cyclopentanedicarboxylic acid, dibutyl ester",434.35,1.0,CCCCOC(=O)C1CCC(C(=O)OCCCC)C1,le15
10820,octanoyl octanoate,415.55,1.0,CCCCCCCC(=O)OC(=O)CCCCCCC,le15
10821,"1,2,3,4,6,9-Tetrathiadiazecine-5,10-dithione",483.95,1.0,S=C1N=CC=NC(=S)SSSS1,le15
10822,heptadecanoic acid,431.55,1.0,CCCCCCCCCCCCCCCCC(=O)O,le15
10823,propan-2-yl tetradecanoate,417.25,1.0,CCCCCCCCCCCCCC(=O)OC(C)C,le15
10824,methyl hexadecanoate,425.95,1.0,CCCCCCCCCCCCCCCC(=O)OC,le15
10825,Stearyl alcohol,411.85,1.0,CCCCCCCCCCCCCCCCCCO,le15
10826,"Toluene, 4-chloro-3,5-dinitro-alpha,alpha,alpha-trifluoro-",399.15,1.0,O=[N+]([O-])c1cc(C(F)(F)F)cc([N+](=O)[O-])c1Cl,le15
10827,1-nonoxynonane,402.45,1.0,CCCCCCCCCOCCCCCCCCC,le15
10828,tribromo(fluoro)methane,289.65,1.0,FC(Br)(Br)Br,le15
10829,"2H-1,4-Benzodiazepin-2-one, 7-chloro-1,3-dihydro-5-phenyl-",500.95,1.0,O=C1CN=C(c2ccccc2)c2cc(Cl)ccc2N1,le15
10830,"1H-1,4-Benzodiazepine, 7-chloro-2,3-dihydro-1-methyl-5-phenyl-",471.55,1.0,CN1CCN=C(c2ccccc2)c2cc(Cl)ccc21,le15
10831,"2,3-dichloro-1,1,1,2,3,4,4,4-octafluorobutane",273.75,1.0,FC(F)(F)C(F)(Cl)C(F)(Cl)C(F)(F)F,le15
10832,"Phosphoric acid, 2,4-dichlorophenyl dimethyl ester",439.65,1.0,COP(=O)(OC)Oc1ccc(Cl)cc1Cl,le15
10833,"Anthracene, 9-bromomethyl-",482.15,1.0,BrCc1c2ccccc2cc2ccccc12,le15
10834,"Propanamide, 3-((4-bromophenyl)amino)-N,N-dimethyl- (9CI)",467.75,1.0,CN(C)C(=O)CCNc1ccc(Br)cc1,le15
10835,"Benzene, 1,2,4-trichloro-3,5-dinitro-",435.95,1.0,O=[N+]([O-])c1cc(Cl)c(Cl)c([N+](=O)[O-])c1Cl,le15
10836,"1,8-dibromooctane",386.15,1.0,BrCCCCCCCCBr,le15
10837,"1,2,3,4,5,6,7,8-octafluoronaphthalene",347.45,1.0,Fc1c(F)c(F)c2c(F)c(F)c(F)c(F)c2c1F,le15
10838,"9,10-Anthracenedione, 1,2,5,8-tetrahydroxy-",553.75,1.0,O=C1c2ccc(O)c(O)c2C(=O)c2c(O)ccc(O)c21,le15
10839,"Benzamide, 4-methoxy-3-nitro-N-phenyl-",458.15,1.0,COc1ccc(C(=O)Nc2ccccc2)cc1[N+](=O)[O-],le15
10840,"9H-Fluorene-9,9-dipropanenitrile (9CI)",522.45,1.0,N#CCCC1(CCC#N)c2ccccc2-c2ccccc21,le15
10841,"1-Piperidineethanol, alpha-(5-phenyl-3-isoxazolyl)-",509.65,1.0,OC(CN1CCCCC1)c1cc(-c2ccccc2)on1,le15
10842,"Estra-1,3,5(10)-triene-3,17-diol, (17beta)-",482.75,1.0,C[C@]12CC[C@@H]3c4ccc(O)cc4CC[C@H]3[C@@H]1CC[C@@H]2O,le15
10843,"Tridecanedioic acid, dimethyl ester",413.95,1.0,COC(=O)CCCCCCCCCCCC(=O)OC,le15
10844,"Phosphorodithioic acid, O,O-diethyl S-(tetrahydro-3-thienyl) ester",437.35,1.0,CCOP(=S)(OCC)SC1CCSC1,le15
10845,"1,3-Cyclopentadiene, 1,2,3,4,5,5-hexachloro-",423.15,1.0,ClC1=C(Cl)C(Cl)(Cl)C(Cl)=C1Cl,le15
10846,"1,4-dichloro-2-iodobenzene",367.05,1.0,Clc1ccc(Cl)c(I)c1,le15
10847,"1,3-Dioxolo(4,5-g)furo(2,3-b)quinoline, 4,9-dimethoxy-",489.15,1.0,COc1c2ccoc2nc2c(OC)c3c(cc12)OCO3,le15
10848,"Chrysene, 2-nitro-",531.95,1.0,O=[N+]([O-])c1ccc2c(ccc3c4ccccc4ccc23)c1,le15
10849,"3,5-Pyridinedicarbonitrile, 2,6-dichloro-4-phenyl-",497.45,1.0,N#Cc1c(Cl)nc(Cl)c(C#N)c1-c1ccccc1,le15
10850,"9H-Xanthen-9-one, 1,5,8-trihydroxy-3-methoxy- (9CI)",501.15,1.0,COc1cc(O)c2c(=O)c3c(O)ccc(O)c3oc2c1,le15
10851,"2,2'-Dinitrobenzidine",529.05,1.0,Nc1ccc(-c2ccc(N)cc2[N+](=O)[O-])c([N+](=O)[O-])c1,le15
10852,"(1,1'-Biphenyl)-4,4'-diamine, 3,3'-dinitro- (9CI)",527.75,1.0,Nc1ccc(-c2ccc(N)c([N+](=O)[O-])c2)cc1[N+](=O)[O-],le15
10853,"Propiophenone, 2',4',6'-trihydroxy-3-(p-hydroxyphenyl)- (8CI)",564.25,1.0,O=C(CCc1ccc(O)cc1)c1c(O)cc(O)cc1O,le15
10854,"2,5,8,10-Tetraoxatridec-12-enoic acid, 9-oxo-, 2-propenyl ester",418.45,1.0,C=CCOC(=O)OCCOCCOC(=O)OCC=C,le15
10855,"Phosphorothioic acid, O,O-diethyl O-(2-(ethylsulfinyl)ethyl) ester",453.75,1.0,CCOP(=S)(OCC)OCCS(=O)CC,le15
10856,Dicyclohexylphenylphosphine,474.25,1.0,c1ccc(P(C2CCCCC2)C2CCCCC2)cc1,le15
10857,"Acetic acid, phenyl-, 3,7-dimethyl-6-octenyl ester",394.35,1.0,CC(C)=CCCC(C)CCOC(=O)Cc1ccccc1,le15
10858,"Dodecanoic acid, 2,3-dihydroxypropyl ester",408.75,1.0,CCCCCCCCCCCC(=O)OCC(O)CO,le15
10859,"Phosphorodithioic acid, O,O-diethyl S-(2-(ethylthio)ethyl) ester",426.95,1.0,CCOP(=S)(OCC)SCCSCC,le15
10860,"Silane, tris(1,1-dimethylethoxy)ethenyl- (9CI)",388.05,1.0,CC(C)(C)OC([SiH3])=C(OC(C)(C)C)OC(C)(C)C,le15
10861,tetradecylbenzene,433.55,1.0,CCCCCCCCCCCCCCc1ccccc1,le15
10862,"9H-Fluorene-9-carboxylic acid, 2-chloro-9-hydroxy-, methyl ester",484.85,1.0,COC(=O)C1(O)c2ccccc2-c2ccc(Cl)cc21,le15
10863,"Pyridine, 2-(p-chloro-alpha-(2-(dimethylamino)ethyl)benzyl)-",456.15,1.0,CN(C)CCC(c1ccc(Cl)cc1)c1ccccn1,le15
10864,"Acetanilide, 2-bromo-2'-hydroxy-5'-nitro- (8CI)",512.65,1.0,O=C(CBr)Nc1cc([N+](=O)[O-])ccc1O,le15
10865,"Acetophenone, 2-bromo-4'-phenyl- (8CI)",348.25,1.0,O=C(CBr)c1ccc(-c2ccccc2)cc1,le15
10866,"Phosphoric acid, diethyl 4-nitrophenyl ester",435.45,1.0,CCOP(=O)(OCC)Oc1ccc([N+](=O)[O-])cc1,le15
10867,"Phenol, 4-((2,4-dinitrophenyl)amino)-",495.35,1.0,O=[N+]([O-])c1ccc(Nc2ccc(O)cc2)c([N+](=O)[O-])c1,le15
10868,"8H-Benzo(g)-1,3-benzodioxolo(6,5,4-de)quinolin-8-one (9CI)",548.15,1.0,O=C1c2ccccc2-c2c3c(cc4ccnc1c24)OCO3,le15
10869,"Phosphonothioic acid, methyl-, O-(4-nitrophenyl) O-propyl ester",445.75,1.0,CCCOP(C)(=S)Oc1ccc([N+](=O)[O-])cc1,le15
10870,"2H-1-Benzothiopyran-7-sulfonamide, 3,4-dihydro-6-methyl-, 1,1-dioxide",559.05,1.0,Cc1cc2c(cc1S(N)(=O)=O)S(=O)(=O)CCC2,le15
10871,N-(1-piperidin-1-ylpropan-2-yl)-N-pyridin-2-ylpropanamide,474.95,1.0,CCC(=O)N(c1ccccn1)C(C)CN1CCCCC1,le15
10872,"1,3,5-Triazin-2-amine, 4,6-dichloro-N-(2-chlorophenyl)- (9CI)",505.35,1.0,Clc1nc(Cl)nc(Nc2ccccc2Cl)n1,le15
10873,"Succinic acid, 2,3-dibromo- (8CI)",385.65,1.0,O=C(O)C(Br)C(Br)C(=O)O,le15
10874,"Benzene, 1,2,3,4-tetrachloro-5,6-dimethoxy-",395.25,1.0,COc1c(Cl)c(Cl)c(Cl)c(Cl)c1OC,le15
10875,"Benzimidazole, 5,6-dinitro-2-(trifluoromethyl)-",512.95,1.0,O=[N+]([O-])c1cc2nc(C(F)(F)F)[nH]c2cc1[N+](=O)[O-],le15
10876,"1,2-dibromo-1-chloro-1,2,2-trifluoroethane",282.25,1.0,FC(F)(Br)C(F)(Cl)Br,le15
10877,"Benzene, 1,1'-thiobis(4-nitro-",521.75,1.0,O=[N+]([O-])c1ccc(Sc2ccc([N+](=O)[O-])cc2)cc1,le15
10878,"1H-Pyrrole-2,5-dione, 1,1'-(1,6-hexanediyl)bis- (9CI)",491.25,1.0,O=C1C=CC(=O)N1CCCCCCN1C(=O)C=CC1=O,le15
10879,"Dibenzo(def,mno)chrysene",520.3499999999998,1.0,c1cc2ccc3cc4cccc5ccc6cc(c1)c2c3c6c54,le15
10880,"Indeno(1,2,3-cd)pyrene",520.3499999999998,1.0,c1ccc2c(c1)-c1ccc3ccc4cccc5cc-2c1c3c45,le15
10881,Benzo(def)cyclopenta(hi)chrysene,538.45,1.0,c1cc2ccc3c4cccc5ccc(c6ccc(c1)c2c36)c54,le15
10882,"Phosphorothioic acid, O,O-diethyl S-((ethylsulfonyl)methyl) ester",462.85,1.0,CCOP(=O)(OCC)SCS(=O)(=O)CC,le15
10883,"Benzeneacetic acid, alpha-hydroxy-, 3,3,5-trimethylcyclohexyl ester",423.25,1.0,CC1CC(OC(=O)C(O)c2ccccc2)CC(C)(C)C1,le15
10884,"4-Decen-3-one, 1-(4-hydroxy-3-methoxyphenyl)-",423.45,1.0,CCCCCC=CC(=O)CCc1ccc(O)c(OC)c1,le15
10885,"Silane, hydroxytriphenyl-",461.95,1.0,O[Si](c1ccccc1)(c1ccccc1)c1ccccc1,le15
10886,"Silane, triethoxyoctyl-",374.45,1.0,CCOC(CCCCCCC[SiH3])(OCC)OCC,le15
10887,"Benzonitrile, 3,5-dibromo-4-hydroxy-",387.55,1.0,N#Cc1cc(Br)c(O)c(Br)c1,le15
10888,"Acetic acid, (2,4-dichlorophenoxy)-, 2-methylpropyl ester (9CI)",402.05,1.0,CC(C)COC(=O)COc1ccc(Cl)cc1Cl,le15
10889,"Acetic acid, (2,4-dichlorophenoxy)-, butyl ester",405.15,1.0,CCCCOC(=O)COc1ccc(Cl)cc1Cl,le15
10890,"Phosphorothioic acid, O,O-dimethyl O-(3-methyl-4-nitrophenyl) ester",438.35,1.0,COP(=S)(OC)Oc1ccc([N+](=O)[O-])c(C)c1,le15