,compound,flashpoint,pure substance,smiles,source
11438,"Hexanedioic acid, bis(2-ethylhexyl) ester",442.05,1.0,CCCCC(CC)COC(=O)CCCCC(=O)OCC(CC)CCCC,le15
11439,dioctyl hexanedioate,451.75,1.0,CCCCCCCCOC(=O)CCCCC(=O)OCCCCCCCC,le15
11440,Cholest-5-ene,494.05,1.0,CC(C)CCC[C@@H](C)[C@H]1CC[C@H]2[C@@H]3CC=C4CCCC[C@]4(C)[C@H]3CC[C@@]21C,le15
11441,"Cyclopentasiloxane, decamethyl-",368.75,1.0,C[Si]1(C)O[Si](C)(C)O[Si](C)(C)O[Si](C)(C)O[Si](C)(C)O1,le15
11442,"Benzonitrile, 3,5-diiodo-4-hydroxy-",397.85,1.0,N#Cc1cc(I)c(O)c(I)c1,le15
11443,"Phenol, 2,2'-sulfinylbis(4,6-dichloro-",549.15,1.0,O=S(c1cc(Cl)cc(Cl)c1O)c1cc(Cl)cc(Cl)c1O,le15
11444,"Octadecanoic acid, 2-(2-hydroxyethoxy)ethyl ester",420.45,1.0,CCCCCCCCCCCCCCCCCC(=O)OCCOCCO,le15
11445,"3,5-Diiodosalicylaldehyde",411.15,1.0,O=Cc1cc(I)cc(I)c1O,le15
11446,"10H-Phenothiazine, 2-chloro-10-(3-(4-methyl-1-piperazinyl)propyl)-",544.3499999999998,1.0,CN1CCN(CCCN2c3ccccc3Sc3ccc(Cl)cc32)CC1,le15
11447,"4,7-Methanoindan, 1,4,5,6,7,8,8-heptachloro-3a,4,7,7a-tetrahydro-",462.55,1.0,ClC1=C(Cl)C2(Cl)C3C(Cl)CCC3C1(Cl)C2(Cl)Cl,le15
11448,"9,10-Anthracenedione, 4,8-diamino-1,5-dihydroxy-2-(4-methoxyphenyl)-",668.15,1.0,COc1ccc(-c2cc(N)c3c(c2O)C(=O)c2c(N)ccc(O)c2C3=O)cc1,le15
11449,"Sulfurous acid, 1-((p-tert-butylphenoxy)methyl)propyl o-tolyl ester",554.15,1.0,CCC(COc1ccc(C(C)(C)C)cc1)OS(=O)Oc1ccccc1C,le15
11450,"Propane, 1,1'-oxybis(2,3,3,3-tetrachloro-",407.55,1.0,ClC(COCC(Cl)C(Cl)(Cl)Cl)C(Cl)(Cl)Cl,le15
11451,"1H-Indole, 5,6-dimethoxy-2-methyl-3-(2-(4-phenyl-1-piperazinyl)ethyl)-",562.95,1.0,COc1cc2[nH]c(C)c(CCN3CCN(c4ccccc4)CC3)c2cc1OC,le15
11452,1-iodooctadecane,420.95,1.0,CCCCCCCCCCCCCCCCCCI,le15
11453,"Phenol, 4,4'-((1E)-1,2-diethyl-1,2-ethenediyl)bis-, dipropanoate",510.15,1.0,CC/C(=C(/CC)c1ccc(O)cc1)c1ccc(O)cc1.CCC(=O)O.CCC(=O)O,le15
11454,"Phosphoric acid, di(2-ethylhexyl) hydroxypropyl ester",505.75,1.0,CCCCC(CC)COP(=O)(OCCCO)OCC(CC)CCCC,le15
11455,"Phosphoric acid, 1,2-dibromo-2,2-dichloroethyl dimethyl ester",392.55,1.0,COP(=O)(OC)OC(Br)C(Cl)(Cl)Br,le15
11456,"9,10-Anthracenedione, 1-amino-2,4-dibromo-",559.8499999999998,1.0,Nc1c(Br)cc(Br)c2c1C(=O)c1ccccc1C2=O,le15
11457,"Ketone, methyl 10-(3-(4-methyl-1-piperazinyl)propyl)phenothiazin-2-yl",562.45,1.0,CC(=O)c1ccc2c(c1)N(CCCN1CCN(C)CC1)c1ccccc1S2,le15
11458,"1-Tridecanamine, N-tridecyl-",436.05,1.0,CCCCCCCCCCCCCNCCCCCCCCCCCCC,le15
11459,"Phosphorous acid, 2-ethylhexyl octyl phenyl ester",529.8499999999998,1.0,CCCCCCCCOP(OCC(CC)CCCC)Oc1ccccc1,le15
11460,"Phenol, 4,4'-butylidenebis(2-(1,1-dimethylethyl)-5-methyl-",469.95,1.0,CCCC(c1cc(C(C)(C)C)c(O)cc1C)c1cc(C(C)(C)C)c(O)cc1C,le15
11461,"Tetrasulfide, bis(piperidinothiocarbonyl) (8CI)",535.45,1.0,S=C(SSSSC(=S)N1CCCCC1)N1CCCCC1,le15
11462,bis[[dimethyl(trimethylsilyloxy)silyl]oxy]-dimethylsilane,390.55,1.0,C[Si](C)(C)O[Si](C)(C)O[Si](C)(C)O[Si](C)(C)O[Si](C)(C)C,le15
11463,"Pregn-4-ene-3,20-dione, 17-hydroxy-6alpha-methyl-, acetate (8CI)",486.35,1.0,CC(=O)O.CC(=O)[C@@]1(O)CC[C@H]2[C@@H]3C[C@H](C)C4=CC(=O)CC[C@]4(C)[C@H]3CC[C@@]21C,le15
11464,"N-((2,4,5-Trichlorophenoxy)acetyl)-L-methionine",608.8499999999998,1.0,CSCC[C@H](NC(=O)COc1cc(Cl)c(Cl)cc1Cl)C(=O)O,le15
11465,"Propane, 1,3-dibromo-2,2-bis(bromomethyl)-",425.65,1.0,BrCC(CBr)(CBr)CBr,le15
11466,"1,1,1,2,2,3,3,4,4,5,5,6,6,7,7,7-hexadecafluoroheptane",289.85,1.0,FC(F)(F)C(F)(F)C(F)(F)C(F)(F)C(F)(F)C(F)(F)C(F)(F)F,le15
11467,"3,5-Pyrazolidinedione, 1,2-diphenyl-4-(2-(phenylthio)ethyl)-",552.3499999999998,1.0,O=C1C(CCSc2ccccc2)C(=O)N(c2ccccc2)N1c1ccccc1,le15
11468,"2H-1-Benzopyran-2-one, 7-(2H-naphtho(1,2-d)triazol-2-yl)-3-phenyl-",626.75,1.0,O=c1oc2cc(-n3nc4ccc5ccccc5c4n3)ccc2cc1-c1ccccc1,le15
11469,"1,2-Benzenedicarboxylic acid, bis(2-ethylhexyl) ester",477.65,1.0,CCCCC(CC)COC(=O)c1ccccc1C(=O)OCC(CC)CCCC,le15
11470,"1,2-Benzenedicarboxylic acid, dioctyl ester",495.45,1.0,CCCCCCCCOC(=O)c1ccccc1C(=O)OCCCCCCCC,le15
11471,"1,3-Benzenedicarboxylic acid, bis(2-ethylhexyl) ester",481.55,1.0,CCCCC(CC)COC(=O)c1cccc(C(=O)OCC(CC)CCCC)c1,le15
11472,3beta-Hydroxy-12-oxo-5beta-cholanoic acid,571.15,1.0,C[C@H](CCC(=O)O)[C@H]1CC[C@H]2[C@@H]3CC[C@@H]4C[C@@H](O)CC[C@]4(C)[C@H]3CC(=O)[C@@]21C,le15
11473,"1,2-Benzenedicarboxylic acid, diisooctyl ester",477.65,1.0,CC(C)CCCCCOC(=O)c1ccccc1C(=O)OCCCCCC(C)C,le15
11474,"Phenol, 2,6-diiodo-4-nitro-",414.75,1.0,O=[N+]([O-])c1cc(I)c(O)c(I)c1,le15
11475,"p-Cresol, 2,2'-methylenebis(6-cyclohexyl- (6CI,7CI,8CI)",472.65,1.0,Cc1cc(Cc2cc(C)cc(C3CCCCC3)c2O)c(O)c(C2CCCCC2)c1,le15
11476,"Benzene, 1,2,4,5-tetrabromo-",421.65,1.0,Brc1cc(Br)c(Br)cc1Br,le15
11477,"Methane, triiodo-",477.15,1.0,IC(I)I,le15
11478,"Bicyclo(2.2.1)hept-2-ene, 5-(bromomethyl)-1,2,3,4,7,7-hexachloro-",479.65,1.0,ClC1=C(Cl)C2(Cl)C(CBr)CC1(Cl)C2(Cl)Cl,le15
11479,"Phosphorothioic acid, O-(4-bromo-2,5-dichlorophenyl) O,O-diethyl ester",462.05,1.0,CCOP(=S)(OCC)Oc1cc(Cl)c(Br)cc1Cl,le15
11480,"Cyclohexene-1,2-dicarboxylic acid, bis(2-ethylhexyl) ester",491.85,1.0,CCCCC(CC)COC(=O)C1=C(C(=O)OCC(CC)CCCC)CCCC1,le15
11481,octacosane,500.15,1.0,CCCCCCCCCCCCCCCCCCCCCCCCCCCC,le15
11482,"Benzoic acid, 2-hydroxy-5-((4-((2-pyridinylamino)sulfonyl)phenyl)azo)-",608.55,1.0,O=C(O)c1cc(N=Nc2ccc(S(=O)(=O)Nc3ccccn3)cc2)ccc1O,le15
11483,"Ethanol, 2-butoxy-, phosphate (3:1)",514.65,1.0,CCCCOCCO.CCCCOCCO.CCCCOCCO.O=P(O)(O)O,le15
11484,"N,N'-1,2-Ethanediylbis(n-butyl-4-morpholinecarboxamide)",572.45,1.0,CCCCC1COCCN1C(=O)NCCNC(=O)N1CCOCC1CCCC,le15
11485,"1-bromo-1,1,2,2,3,3,4,4,5,5,6,6,6-tridecafluorohexane",286.45,1.0,FC(F)(F)C(F)(F)C(F)(F)C(F)(F)C(F)(F)C(F)(F)Br,le15
11486,"Phenol, 2,2'-thiobis(6-tert-butyl-4-chloro-",502.75,1.0,CC(C)(C)c1cc(Cl)cc(Sc2cc(Cl)cc(C(C)(C)C)c2O)c1O,le15
11487,"2,3,4,5-tetrabromothiophene",420.25,1.0,Brc1sc(Br)c(Br)c1Br,le15
11488,"1,1,2,2,3,3,4,4,5,6-decafluoro-5,6-bis(trifluoromethyl)cyclohexane",287.35,1.0,FC(F)(F)C1(F)C(F)(F)C(F)(F)C(F)(F)C(F)(F)C1(F)C(F)(F)F,le15
11489,"1,1,2,2,3,3,4,5,5,6-decafluoro-4,6-bis(trifluoromethyl)cyclohexane",284.65,1.0,FC(F)(F)C1(F)C(F)(F)C(F)(F)C(F)(F)C(F)(C(F)(F)F)C1(F)F,le15
11490,"Androst-4-en-3-one, 17-((1-oxoheptyl)oxy)-, (17beta)-",487.35,1.0,CCCCCCC(=O)O[C@H]1CC[C@H]2[C@@H]3CCC4=CC(=O)CC[C@]4(C)[C@H]3CC[C@]12C,le15
11491,"Benzamide, 2,3,5-trichloro-N-(3,5-dichloro-2-hydroxyphenyl)-6-hydroxy-",496.65,1.0,O=C(Nc1cc(Cl)cc(Cl)c1O)c1c(O)c(Cl)cc(Cl)c1Cl,le15
11492,"Phosphoric acid, (1,1'-biphenyl)-2-yl diphenyl ester (9CI)",539.15,1.0,O=P(Oc1ccccc1)(Oc1ccccc1)Oc1ccccc1-c1ccccc1,le15
11493,"Pregn-4-ene-3,11,20-trione, 21-(acetyloxy)-17-hydroxy-",470.45,1.0,CC(=O)OCC(=O)[C@@]1(O)CC[C@H]2[C@@H]3CCC4=CC(=O)CC[C@]4(C)[C@H]3C(=O)C[C@@]21C,le15
11494,"Citric acid, tributyl ester, acetate (8CI)",448.25,1.0,CC(=O)O.CCCCOC(=O)CC(O)(CC(=O)OCCCC)C(=O)OCCCC,le15
11495,"5beta-Cholan-24-oic acid, 3,7,12-trioxo- (8CI)",592.65,1.0,C[C@H](CCC(=O)O)[C@H]1CC[C@H]2[C@@H]3C(=O)C[C@@H]4CC(=O)CC[C@]4(C)[C@H]3CC(=O)[C@@]21C,le15
11496,"Cholestan-3-ol, 5,6-epoxy-, (3beta,5alpha,6alpha)- (9CI)",474.05,1.0,CC(C)CCC[C@@H](C)[C@H]1CC[C@H]2[C@@H]3C[C@@H]4O[C@@]45C[C@@H](O)CC[C@]5(C)[C@H]3CC[C@@]21C,le15
11497,"Naphthalene, 1,2,3,4,5,6,7,8-octachloro-",487.35,1.0,Clc1c(Cl)c(Cl)c2c(Cl)c(Cl)c(Cl)c(Cl)c2c1Cl,le15
11498,"1-Piperazineethanol, 4-(3-(2-chloro-10H-phenothiazin-10-yl)propyl)-",577.95,1.0,OCCN1CCN(CCCN2c3ccccc3Sc3ccc(Cl)cc32)CC1,le15
11499,"3,5-Pyrazolidinedione, 1,2-diphenyl-4-(2-(phenylsulfinyl)ethyl)-",584.25,1.0,O=C1C(CCS(=O)c2ccccc2)C(=O)N(c2ccccc2)N1c1ccccc1,le15
11500,"Pregna-4,6-diene-3,20-dione, 6-chloro-17-hydroxy-, acetate",445.65,1.0,CC(=O)O.CC(=O)[C@@]1(O)CC[C@H]2[C@@H]3C=C(Cl)C4=CC(=O)CC[C@]4(C)[C@H]3CC[C@@]21C,le15
11501,"Ethanamine, 2-(4-(2-chloro-1,2-diphenylethenyl)phenoxy)-N,N-diethyl-",534.75,1.0,CCN(CC)CCOc1ccc(C(=C(Cl)c2ccccc2)c2ccccc2)cc1,le15
11502,"2,2,3,3,4,4,4-heptafluorobutanoyl 2,2,3,3,4,4,4-heptafluorobutanoate",292.0499999999999,1.0,O=C(OC(=O)C(F)(F)C(F)(F)C(F)(F)F)C(F)(F)C(F)(F)C(F)(F)F,le15
11503,"Phenol, o-ethyl-, phosphate (6CI,7CI)",530.05,1.0,CCc1ccccc1OP(=O)(O)O,le15
11504,"Phenol, 2,4-dimethyl-, phosphate (3:1)",517.75,1.0,Cc1ccc(O)c(C)c1.Cc1ccc(O)c(C)c1.Cc1ccc(O)c(C)c1.O=P(O)(O)O,le15
11505,1-Octacosanol,408.45,1.0,CCCCCCCCCCCCCCCCCCCCCCCCCCCCO,le15
11506,"Nonanedioic acid, bis(2-ethylhexyl) ester",457.75,1.0,CCCCC(CC)COC(=O)CCCCCCCC(=O)OCC(CC)CCCC,le15
11507,"L-Glutamic acid, N-(1-oxooctadecyl)- (9CI)",589.95,1.0,CCCCCCCCCCCCCCCCCC(=O)N[C@@H](CCC(=O)O)C(=O)O,le15
11508,"Octanoic acid, 2,2,3,3,4,4,5,5,6,6,7,7,8,8,8-pentadecafluoro-",335.25,1.0,O=C(O)C(F)(F)C(F)(F)C(F)(F)C(F)(F)C(F)(F)C(F)(F)C(F)(F)F,le15
11509,"3,6,9,12,15,18,21,24-Octaoxahexacosane-1,26-diol",533.15,1.0,OCCOCCOCCOCCOCCOCCOCCOCCOCCO,le15
11510,"Stigmast-5-en-3-ol, (3beta)-",493.55,1.0,CC[C@H](CC[C@@H](C)[C@H]1CC[C@H]2[C@@H]3CC=C4C[C@@H](O)CC[C@]4(C)[C@H]3CC[C@@]21C)C(C)C,le15
11511,"2,2,3,3,4,4,5-heptafluoro-5-(1,1,2,2,3,3,4,4,4-nonafluorobutyl)oxolane",290.75,1.0,FC(F)(F)C(F)(F)C(F)(F)C(F)(F)C1(F)OC(F)(F)C(F)(F)C1(F)F,le15
11512,"9,10-Anthracenedione, 1,4-bis((4-methylphenyl)amino)-",470.15,1.0,Cc1ccc(Nc2ccc(Nc3ccc(C)cc3)c3c2C(=O)c2ccccc2C3=O)cc1,le15
11513,"1,2-Benzenedicarboxylic acid, decyl octyl ester",506.25,1.0,CCCCCCCCCCOC(=O)c1ccccc1C(=O)OCCCCCCCC,le15
11514,"2-O-(8-methylnonyl) 1-O-octyl benzene-1,2-dicarboxylate",497.75,1.0,CCCCCCCCOC(=O)c1ccccc1C(=O)OCCCCCCCC(C)C,le15
11515,"dinonyl benzene-1,2-dicarboxylate",506.25,1.0,CCCCCCCCCOC(=O)c1ccccc1C(=O)OCCCCCCCCC,le15
11516,"Cholestane-3,5,6-triol, (3beta,5alpha,6beta)- (9CI)",485.65,1.0,CC(C)CCC[C@@H](C)[C@H]1CC[C@H]2[C@@H]3C[C@@H](O)[C@@]4(O)C[C@@H](O)CC[C@]4(C)[C@H]3CC[C@@]21C,le15
11517,"1,2,3,4-tetrabromo-5,6-dimethylbenzene",450.75,1.0,Cc1c(C)c(Br)c(Br)c(Br)c1Br,le15
11518,"Benzimidazole, 4,5,6-tribromo-2-(trifluoromethyl)-",486.95,1.0,FC(F)(F)c1nc2cc(Br)c(Br)c(Br)c2[nH]1,le15
11519,"2,6,10,15,19,23-hexamethyltetracosane",490.95,1.0,CC(C)CCCC(C)CCCC(C)CCCCC(C)CCCC(C)CCCC(C)C,le15
11520,"o-Cresol, tetrabromo- (8CI)",443.45,1.0,Cc1c(O)c(Br)c(Br)c(Br)c1Br,le15
11521,"Methanone, (3,5-dibromo-4-hydroxyphenyl)(2-ethyl-3-benzofuranyl)-",537.8499999999998,1.0,CCc1oc2ccccc2c1C(=O)c1cc(Br)c(O)c(Br)c1,le15
11522,"Ethane, pentabromo-",393.45,1.0,BrC(Br)C(Br)(Br)Br,le15
11523,"Phenol, 4,4'-methylenebis(2,6-bis(1,1-dimethylethyl)-",451.25,1.0,CC(C)(C)c1cc(Cc2cc(C(C)(C)C)c(O)c(C(C)(C)C)c2)cc(C(C)(C)C)c1O,le15
11524,"Tetradecanoic acid, tetradecyl ester",513.95,1.0,CCCCCCCCCCCCCCOC(=O)CCCCCCCCCCCCC,le15
11525,"1,2-Benzenediol, 3,4,5,6-tetrabromo- (9CI)",432.15,1.0,Oc1c(O)c(Br)c(Br)c(Br)c1Br,le15
11526,"Sebacic acid, bis(2-ethylhexyl) ester (8CI)",462.805,1.0,CCCCC(CC)COC(=O)CCCCCCCCC(=O)OCC(CC)CCCC,le15
11527,"Cyclohexane, 1,2-dibromo-4-(1,2-dibromoethyl)-",446.45,1.0,BrCC(Br)C1CCC(Br)C(Br)C1,le15
11528,"methyl 2,2,3,3,4,4,5,5,6,6,7,7,8,8,8-pentadecafluorooctanoate",318.65,1.0,COC(=O)C(F)(F)C(F)(F)C(F)(F)C(F)(F)C(F)(F)C(F)(F)C(F)(F)F,le15
11529,Inosine 5'-(trihydrogen pyrophosphate),786.4499999999997,1.0,O=P(O)(O)OP(=O)(O)OC[C@H]1O[C@@H](n2cnc3c(O)ncnc32)[C@H](O)[C@@H]1O,le15
11530,"Cholesterol, acetate (8CI)",521.95,1.0,CC(=O)O[C@H]1CC[C@@]2(C)C(=CC[C@@H]3[C@@H]2CC[C@@]2(C)[C@H]3CC[C@@H]2[C@H](C)CCCC(C)C)C1,le15
11531,"Ethanimidoyl chloride, 2,2,2-trichloro-N-(pentachlorophenyl)-",499.25,1.0,ClC(=Nc1c(Cl)c(Cl)c(Cl)c(Cl)c1Cl)C(Cl)(Cl)Cl,le15
11532,"Benzoxazole, 2,2'-(2,5-thiophenediyl)bis(5-(1,1-dimethylethyl)-",548.25,1.0,CC(C)(C)c1ccc2oc(-c3ccc(-c4nc5cc(C(C)(C)C)ccc5o4)s3)nc2c1,le15
11533,"(1,4'-Bipiperidine)-4'-carboxamide, 1'-(3-cyano-3,3-diphenylpropyl)-",615.45,1.0,N#CC(CCN1CCC(C(N)=O)(N2CCCCC2)CC1)(c1ccccc1)c1ccccc1,le15
11534,"1-Nonanol, 2,2,3,3,4,4,5,5,6,6,7,7,8,8,9,9-hexadecafluoro-",346.54999999999984,1.0,OCC(F)(F)C(F)(F)C(F)(F)C(F)(F)C(F)(F)C(F)(F)C(F)(F)C(F)F,le15
11535,"1,3-Propanediol, 2-((benzoyloxy)methyl)-2-methyl-, 1,3-dibenzoate",518.45,1.0,CC(COC(=O)c1ccccc1)(COC(=O)c1ccccc1)COC(=O)c1ccccc1,le15
11536,"Phosphoric acid, tris(2-ethylhexyl) ester",479.75,1.0,CCCCC(CC)COP(=O)(OCC(CC)CCCC)OCC(CC)CCCC,le15
11537,"Phosphoric acid, trioctyl ester",491.15,1.0,CCCCCCCCOP(=O)(OCCCCCCCC)OCCCCCCCC,le15
11538,TrioctylPhosphate,491.15,1.0,CCCCCCCCOP(=O)(OCCCCCCCC)OCCCCCCCC,le15
11539,"1,1,1,2,2,3,3,4,4,5,5,6,6,7,7,8,8,8-octadecafluorooctane",303.85,1.0,FC(F)(F)C(F)(F)C(F)(F)C(F)(F)C(F)(F)C(F)(F)C(F)(F)C(F)(F)F,le15
11540,"Benzenamine, 2,4,6-trinitro-N-(2,4,6-trinitrophenyl)-",549.05,1.0,O=[N+]([O-])c1cc([N+](=O)[O-])c(Nc2c([N+](=O)[O-])cc([N+](=O)[O-])cc2[N+](=O)[O-])c([N+](=O)[O-])c1,le15
11541,"5,9,14,18-Anthrazinetetrone, 6,15-dihydro-",527.05,1.0,O=c1c2ccccc2c(=O)c2c1ccc1[nH]c3c(ccc4c(=O)c5ccccc5c(=O)c43)[nH]c12,le15
11542,"Phosphoric acid, 1,2-dibromo-2,2-dichloroethyl methyl phenyl ester",436.55,1.0,COP(=O)(Oc1ccccc1)OC(Br)C(Cl)(Cl)Br,le15
11543,"Cyclohexasiloxane, dodecamethyl-",397.55,1.0,C[Si]1(C)O[Si](C)(C)O[Si](C)(C)O[Si](C)(C)O[Si](C)(C)O[Si](C)(C)O1,le15
11544,"1H-Imidazole, 2,4,5-triiodo- (9CI)",504.65,1.0,Ic1nc(I)c(I)[nH]1,le15
11545,"1,1,1,2,2,3,3,4,4,5,5,6,6-tridecafluoro-6-iodohexane",318.15,1.0,FC(F)(F)C(F)(F)C(F)(F)C(F)(F)C(F)(F)C(F)(F)I,le15
11546,"1,2-Benzenedicarboxylic acid, didecyl ester",516.8499999999998,1.0,CCCCCCCCCCOC(=O)c1ccccc1C(=O)OCCCCCCCCCC,le15
11547,"Hexasulfide, bis(1-piperidinylthioxomethyl)",576.75,1.0,S=C(SSSSSSC(=S)N1CCCCC1)N1CCCCC1,le15
11548,"1-bromo-1,1,2,2,3,3,4,4,5,5,6,6,7,7,7-pentadecafluoroheptane",300.65,1.0,FC(F)(F)C(F)(F)C(F)(F)C(F)(F)C(F)(F)C(F)(F)C(F)(F)Br,le15
11549,dotriacontane,597.05,1.0,CCCCCCCCCCCCCCCCCCCCCCCCCCCCCCCC,le15
11550,"1,1,2,2,3,3,4,4-octafluoro-1,4-diiodobutane",329.0499999999999,1.0,FC(F)(I)C(F)(F)C(F)(F)C(F)(F)I,le15
11551,"Benzamide, N,N'-(dithiodi-2,1-phenylene)bis-",523.15,1.0,O=C(Nc1ccccc1SSc1ccccc1NC(=O)c1ccccc1)c1ccccc1,le15
11552,"1,3-Benzodioxole, 5-(bis(2-(2-butoxyethoxy)ethoxy)methyl)- (9CI)",470.75,1.0,CCCCOCCOCCOC(OCCOCCOCCCC)c1ccc2c(c1)OCO2,le15
11553,"Dibenzo-p-dioxin, 1,2,3,4,6,7,8,9-octachloro-",468.85,1.0,Clc1c(Cl)c(Cl)c2c(c1Cl)Oc1c(Cl)c(Cl)c(Cl)c(Cl)c1O2,le15
11554,"1,6-Dibromo-1,1,2,2,3,3,4,4,5,5,6,6-dodecafluorohexane",319.5499999999999,1.0,FC(F)(Br)C(F)(F)C(F)(F)C(F)(F)C(F)(F)C(F)(F)Br,le15
11555,2-[2-[2-(2-hydroxyethoxy)ethoxy]ethoxy]ethyl octadecanoate,436.15,1.0,CCCCCCCCCCCCCCCCCC(=O)OCCOCCOCCOCCO,le15
11556,"1,1,2,2,3,3,4,4,4a,5,5,6,6,7,7,8,8,8a-octadecafluoronaphthalene",319.5499999999999,1.0,FC1(F)C(F)(F)C(F)(F)C2(F)C(F)(F)C(F)(F)C(F)(F)C(F)(F)C2(F)C1(F)F,le15
11557,"1,3-Isobenzofurandione, 4,5,6,7-tetrabromo-",553.8499999999998,1.0,O=C1OC(=O)c2c(Br)c(Br)c(Br)c(Br)c21,le15
11558,"Cyclotrisiloxane, 2,4,6-trimethyl-2,4,6-tris(3,3,3-trifluoropropyl)-",380.25,1.0,C[Si]1(CCC(F)(F)F)O[Si](C)(CCC(F)(F)F)O[Si](C)(CCC(F)(F)F)O1,le15
11559,"Phenol, 2,4,6-triiodo-",418.25,1.0,Oc1c(I)cc(I)cc1I,le15
11560,"Piperazine, 1,4-bis(3,4,5-trimethoxybenzoyl)-",636.8499999999998,1.0,COc1cc(C(=O)N2CCN(C(=O)c3cc(OC)c(OC)c(OC)c3)CC2)cc(OC)c1OC,le15
11561,"Anthra(2,1-d:6,5-d')bisthiazole-6,12-dione, 2,8-diphenyl-",666.75,1.0,O=C1c2ccc3nc(-c4ccccc4)sc3c2C(=O)c2ccc3nc(-c4ccccc4)sc3c21,le15
11562,tetratriacontane,618.45,1.0,CCCCCCCCCCCCCCCCCCCCCCCCCCCCCCCCCC,le15
11563,"Phosphonic acid, ((ethylthio)methylidyne)tris-, hexaethyl ester",538.45,1.0,CCOP(=O)(OCC)C(SCC)(P(=O)(OCC)OCC)P(=O)(OCC)OCC,le15
11564,"Benzene, 1,2,3,4,5-pentabromo-6-methyl-",459.65,1.0,Cc1c(Br)c(Br)c(Br)c(Br)c1Br,le15
11565,"Leucine, N-(N-acetyl-3-(p-(bis(2-chloroethyl)amino)phenyl)-DL-alanyl)-",642.25,1.0,CC(=O)NC(Cc1ccc(N(CCCl)CCCl)cc1)C(=O)N[C@@H](CC(C)C)C(=O)O,le15
11566,"Phenol, pentabromo-",440.05,1.0,Oc1c(Br)c(Br)c(Br)c(Br)c1Br,le15
11567,"1,1,1,2,2,3,3,4,4,5,5,6,6,7,7-pentadecafluoro-7-iodoheptane",330.25,1.0,FC(F)(F)C(F)(F)C(F)(F)C(F)(F)C(F)(F)C(F)(F)C(F)(F)I,le15
11568,"1-bromo-1,1,2,2,3,3,4,4,5,5,6,6,7,7,8,8,8-heptadecafluorooctane",314.0499999999999,1.0,FC(F)(F)C(F)(F)C(F)(F)C(F)(F)C(F)(F)C(F)(F)C(F)(F)C(F)(F)Br,le15
11569,"Benzoic acid, 2,3,5-triiodo-",503.15,1.0,O=C(O)c1cc(I)cc(I)c1I,le15
11570,"Phenarsazine, 10,10'-oxydi-",517.05,1.0,c1ccc2c(c1)Nc1ccccc1[As]2O[As]1c2ccccc2Nc2ccccc21,le15
11571,"Benzimidazole, 4,5,6,7-tetrabromo-2-(trifluoromethyl)-",511.95,1.0,FC(F)(F)c1nc2c(Br)c(Br)c(Br)c(Br)c2[nH]1,le15
11572,"10H-Phenoxarsine, 10,10'-oxybis- (9CI)",487.25,1.0,c1ccc2c(c1)Oc1ccccc1[As]2O[As]1c2ccccc2Oc2ccccc21,le15
11573,"triheptyl benzene-1,2,4-tricarboxylate",504.85,1.0,CCCCCCCOC(=O)c1ccc(C(=O)OCCCCCCC)c(C(=O)OCCCCCCC)c1,le15
11574,"Hexadecanoic acid, octadecyl ester",556.75,1.0,CCCCCCCCCCCCCCCCCCOC(=O)CCCCCCCCCCCCCCC,le15
11575,"5,9,14,18-Anthrazinetetrone, 7,16-dichloro-6,15-dihydro-",703.75,1.0,O=c1c2ccccc2c(=O)c2c1cc(Cl)c1[nH]c3c([nH]c12)c(Cl)cc1c(=O)c2ccccc2c(=O)c13,le15
11576,"Decanoic acid, nonadecafluoro-",355.85,1.0,O=C(O)C(F)(F)C(F)(F)C(F)(F)C(F)(F)C(F)(F)C(F)(F)C(F)(F)C(F)(F)C(F)(F)F,le15
11577,"Propanoic acid, 3,3'-thiobis-, didodecyl ester",537.95,1.0,CCCCCCCCCCCCOC(=O)CCSCCC(=O)OCCCCCCCCCCCC,le15
11578,"1,2-Benzenedicarboxylic acid, ditridecyl ester",547.3499999999998,1.0,CCCCCCCCCCCCCOC(=O)c1ccccc1C(=O)OCCCCCCCCCCCCC,le15
11579,"Lycopene, all-trans- (8CI)",623.8499999999998,1.0,CC(C)=CCC/C(C)=C/C=C/C(C)=C/C=C/C(C)=C/C=C/C=C(C)/C=C/C=C(C)/C=C/C=C(\C)CCC=C(C)C,le15
11580,"beta-Carotene, all-trans-",619.15,1.0,CC1=C(/C=C/C(C)=C/C=C/C(C)=C/C=C/C=C(C)/C=C/C=C(C)/C=C/C2=C(C)CCCC2(C)C)C(C)(C)CCC1,le15
11581,"1,1,1,2,2,3,3,4,4,5,5,6,6,7,7,8,8,9,9,10,10,10-docosafluorodecane",328.65,1.0,FC(F)(F)C(F)(F)C(F)(F)C(F)(F)C(F)(F)C(F)(F)C(F)(F)C(F)(F)C(F)(F)C(F)(F)F,le15
11582,"Phenol, 4,4'-isopropylidenebis(2,6-dibromo- (8CI)",479.75,1.0,CC(C)(c1cc(Br)c(O)c(Br)c1)c1cc(Br)c(O)c(Br)c1,le15
11583,"1,2,4-Benzenetricarboxylic acid, 1,2,4-tris(2-ethylhexyl) ester",511.45,1.0,CCCCC(CC)COC(=O)c1ccc(C(=O)OCC(CC)CCCC)c(C(=O)OCC(CC)CCCC)c1,le15
11584,"Benzene, 1,2,3,4,5,6-hexabromo-",472.75,1.0,Brc1c(Br)c(Br)c(Br)c(Br)c1Br,le15
11585,"beta,beta-Carotene-4,4'-dione (9CI)",527.05,1.0,CC1=C(/C=C/C(C)=C/C=C/C(C)=C/C=C/C=C(C)/C=C/C=C(C)/C=C/C2=C(C)C(=O)CCC2(C)C)C(C)(C)CCC1=O,le15
11586,"Benzenepropanoic acid, 3-amino-alpha-ethyl-2,4,6-triiodo-",546.95,1.0,CCC(Cc1c(I)cc(I)c(N)c1I)C(=O)O,le15
11587,"Hydrocinnamic acid, alpha-ethyl-3-hydroxy-2,4,6-triiodo-",504.55,1.0,CCC(Cc1c(I)cc(I)c(O)c1I)C(=O)O,le15
11588,"Octadecanamide, N,N'-ethylenebis- (8CI)",373.85,1.0,CCCCCCCCCCCCCCCCCC(=O)NCCNC(=O)CCCCCCCCCCCCCCCCC,le15
11589,"1,1,1,2,2,3,3,4,4,5,5,6,6,7,7,8,8,9,9-nonadecafluoro-9-iodononane",352.85,1.0,FC(F)(F)C(F)(F)C(F)(F)C(F)(F)C(F)(F)C(F)(F)C(F)(F)C(F)(F)C(F)(F)I,le15
11590,"Benzoic acid, 3,5-bis(acetylamino)-2,4,6-triiodo-",598.3499999999998,1.0,CC(=O)Nc1c(I)c(NC(C)=O)c(I)c(C(=O)O)c1I,le15
11591,"Benzoic acid, 3-(acetylamino)-2,4,6-triiodo-5-((methylamino)carbonyl)-",541.55,1.0,CNC(=O)c1c(I)c(NC(C)=O)c(I)c(C(=O)O)c1I,le15
11592,tetratetracontane,721.3499999999997,1.0,CCCCCCCCCCCCCCCCCCCCCCCCCCCCCCCCCCCCCCCCCCCC,le15
11593,[2-hydroxy-3-[(Z)-octadec-9-enoyl]oxypropyl] (Z)-octadec-9-enoate,462.35,1.0,CCCCCCCC/C=C\CCCCCCCC(=O)OCC(O)COC(=O)CCCCCCC/C=C\CCCCCCCC,le15
11594,"Benzoic acid, 3-(acetylamino)-5-(acetylmethylamino)-2,4,6-triiodo-",637.45,1.0,CC(=O)CNc1c(I)c(NC(C)=O)c(I)c(C(=O)O)c1I,le15
11595,"Benzoic acid, 4-(4-acetyl-3-iodophenoxy)-3,5-diiodo-",572.75,1.0,CC(=O)c1ccc(Oc2c(I)cc(C(=O)O)cc2I)cc1I,le15
11596,"Cholesterol, (p-(bis(2-chloroethyl)amino)phenyl)acetate (8CI)",642.3499999999998,1.0,CC(C)CCC[C@@H](C)[C@H]1CC[C@H]2[C@@H]3CC=C4C[C@@H](OC(=O)Cc5ccc(N(CCCl)CCCl)cc5)CC[C@]4(C)[C@H]3CC[C@@]21C,le15
11597,Bis(perfluorohexyl)ether,345.95,1.0,FC(F)(F)C(F)(F)C(F)(F)C(F)(F)C(F)(F)C(F)(F)OC(F)(F)C(F)(F)C(F)(F)C(F)(F)C(F)(F)C(F)(F)F,le15
11598,"1-Butanamine, 1,1,2,2,3,3,4,4,4-nonafluoro-N,N-bis(nonafluorobutyl)-",337.25,1.0,FC(F)(F)C(F)(F)C(F)(F)C(F)(F)N(C(F)(F)C(F)(F)C(F)(F)C(F)(F)F)C(F)(F)C(F)(F)C(F)(F)C(F)(F)F,le15
11599,"alpha-D-Glucopyranoside, 1,3,4,6-tetra-O-acetyl-beta-D-fructofuranosyl",548.15,1.0,CC(=O)OC[C@H]1O[C@@](COC(C)=O)(O[C@H]2O[C@H](CO)[C@@H](O)[C@H](O)[C@H]2O)[C@@H](OC(C)=O)[C@@H]1OC(C)=O,le15
11600,"Propanoic acid, 3,3'-thiobis-, dioctadecyl ester",596.8499999999998,1.0,CCCCCCCCCCCCCCCCCCOC(=O)CCSCCC(=O)OCCCCCCCCCCCCCCCCCC,le15