,compound,flashpoint,pure substance,smiles,source
5996,"methyl (2E,4E)-hexa-2,4-dienoate",343.15,1.0,C/C=C/C=C/C(=O)OC,le15
5997,"methyl (2E,4E)-hexa-2,4-dienoate",336.25,1.0,C/C=C/C=C/C(=O)OC,le15
5998,2-Acetylcyclopentan-1-one,345.95,1.0,CC(=O)C1CCCC1=O,le15
5999,Cyclohex-3-ene-1-carboxylic acid,383.05,1.0,O=C(O)C1CC=CCC1,le15
6000,2-(ethoxymethyl)furan,314.35,1.0,CCOCc1ccco1,le15
6001,4-Morpholineacetonitrile,360.15,1.0,N#CCN1CCOCC1,le15
6002,"Phenol, o-mercapto- (6CI,7CI,8CI)",362.25,1.0,Oc1ccccc1S,le15
6003,1-thiophen-2-ylethanone,355.54999999999984,1.0,CC(=O)c1cccs1,le15
6004,1-thiophen-3-ylethanone,342.15,1.0,CC(=O)c1ccsc1,le15
6005,"1-Hexyn-3-ol, 3,5-dimethyl-",317.5499999999999,1.0,C#CC(C)(O)CC(C)C,le15
6006,"5-Hepten-2-one, 6-methyl-",323.15,1.0,CC(=O)CCC=C(C)C,le15
6007,9-Oxabicyclo(6.1.0)nonane (8CI)(9CI),329.25,1.0,C1CCCC2OC2CC1,le15
6008,"2-Hexenal, 2-ethyl-",341.15,1.0,CCCC=C(C=O)CC,le15
6009,1-cyclohexylethanone,334.5499999999999,1.0,CC(=O)C1CCCCC1,le15
6010,"2,2-dimethylcyclohexan-1-one",323.25,1.0,CC1(C)CCCCC1=O,le15
6011,"(Z)-3,4-dimethylhex-3-en-2-one",334.5499999999999,1.0,CC/C(C)=C(/C)C(C)=O,le15
6012,"2,6-dimethylcyclohexan-1-one",326.95,1.0,CC1CCCC(C)C1=O,le15
6013,"3,3-dimethylcyclohexan-1-one",323.25,1.0,CC1(C)CCCC(=O)C1,le15
6014,Bicyclo(2.2.1)heptane-2-methanol,357.15,1.0,OCC1CC2CCC1C2,le15
6015,4-ethylcyclohexan-1-one,331.65,1.0,CCC1CCC(=O)CC1,le15
6016,"4-methylhepta-1,6-dien-4-ol",341.95,1.0,C=CCC(C)(O)CC=C,le15
6017,"2,2,4-trimethylcyclopentan-1-one",318.5499999999999,1.0,CC1CC(=O)C(C)(C)C1,le15
6018,cyclooctanone,345.92800000000005,1.0,O=C1CCCCCCC1,le15
6019,"2,4,4-trimethylcyclopentan-1-one",318.5499999999999,1.0,CC1CC(C)(C)CC1=O,le15
6020,2-propylthiophene,305.45,1.0,CCCc1cccs1,le15
6021,"2,3,5-trimethylthiophene",309.35,1.0,Cc1cc(C)c(C)s1,le15
6022,2-ethyl-3-methylthiophene,306.85,1.0,CCc1sccc1C,le15
6023,"1,2,3-trimethylcyclohexane",301.0499999999999,1.0,CC1CCCC(C)C1C,le15
6024,propylcyclohexane,308.15,1.0,CCCC1CCCCC1,le15
6025,"1,3,5-trimethylcyclohexane",301.0499999999999,1.0,CC1CC(C)CC(C)C1,le15
6026,"1,3,5-Trimethylcyclohexane",301.0499999999999,1.0,CC1CC(C)CC(C)C1,le15
6027,butylcyclopentane,307.85,1.0,CCCCC1CCCC1,le15
6028,"1,1,3-trimethylcyclohexane",298.35,1.0,CC1CCCC(C)(C)C1,le15
6029,2-methylpropylcyclopentane,304.65,1.0,CC(C)CC1CCCC1,le15
6030,1-ethyl-2-methylcyclohexane,305.0499999999999,1.0,CCC1CCCCC1C,le15
6031,1-ethyl-2-methylcyclohexane,305.0499999999999,1.0,CCC1CCCCC1C,le15
6032,1-ethyl-1-methylcyclohexane,302.35,1.0,CCC1(C)CCCCC1,le15
6033,"1,1,2-trimethylcyclohexane",298.35,1.0,CC1CCCCC1(C)C,le15
6034,"(1R,3R)-1,2,3-trimethylcyclohexane",301.0499999999999,1.0,CC1[C@H](C)CCC[C@H]1C,le15
6035,"1,2,4-trimethylcyclohexane",301.0499999999999,1.0,CC1CCC(C)C(C)C1,le15
6036,"(1R,3S)-1-ethyl-3-methylcyclohexane",305.0499999999999,1.0,CC[C@@H]1CCC[C@H](C)C1,le15
6037,"1,1,3,3-tetramethylcyclopentane",291.0499999999999,1.0,CC1(C)CCC(C)(C)C1,le15
6038,1-Nonene,297.15,1.0,C=CCCCCCCC,le15
6039,propan-2-ylcyclohexane,308.75,1.0,CC(C)C1CCCCC1,le15
6040,(E)-non-2-ene,305.35,1.0,C/C=C/CCCCCC,le15
6041,IsopropylCyclohexane,308.0,1.0,CC(C)C1CCCCC1,le15
6042,propylcyclohexane,308.0,1.0,CCCC1CCCCC1,le15
6043,"Benzene, (chloromethyl)-",347.039,1.0,ClCc1ccccc1,le15
6044,4chlorotoluene,322.0,1.0,Cc1ccc(Cl)cc1,le15
6045,oxalyl dichloride,277.65,1.0,O=C(Cl)C(=O)Cl,le15
6046,"Ethane, 1-bromo-2-fluoro-",272.15,1.0,FCCBr,le15
6047,"2-Propanone, 1,1-dichloro-",297.5499999999999,1.0,CC(=O)C(Cl)Cl,le15
6048,3-chloropropanoyl chloride,334.85,1.0,O=C(Cl)CCCl,le15
6049,"2-Propanone, 1,3-dichloro-",362.15,1.0,O=C(CCl)CCl,le15
6050,"1,1-dichlorobutane",291.45,1.0,CCCC(Cl)Cl,le15
6051,"1,1-dichloro-2-methylpropane",288.75,1.0,CC(C)C(Cl)Cl,le15
6052,"1,1-dichloro-2-methylpropane",288.85,1.0,CC(C)C(Cl)Cl,le15
6053,"1,3-dichlorobutane",303.75,1.0,CC(Cl)CCCl,le15
6054,"(2R,3R)-2,3-dichlorobutane",291.45,1.0,C[C@@H](Cl)[C@@H](C)Cl,le15
6055,"2,2-dichlorobutane",288.75,1.0,CCC(C)(Cl)Cl,le15
6056,"Butane, 1,4-dichloro-",313.95,1.0,ClCCCCCl,le15
6057,"4(1H)-Pyrimidinone, 2-amino-6-hydroxy-",553.55,1.0,Nc1nc(=O)cc(O)[nH]1,le15
6058,1-Methyl-5-nitro-1H-imidazole,425.85,1.0,Cn1cncc1[N+](=O)[O-],le15
6059,"1H-Imidazole, 1-methyl-2-nitro- (9CI)",413.75,1.0,Cn1ccnc1[N+](=O)[O-],le15
6060,Adipimide,421.95,1.0,O=C1CCCCC(=O)N1,le15
6061,"Valeric acid, 5-cyano-",419.55,1.0,N#CCCCCC(=O)O,le15
6062,1-piperidin-1-ylethanone,370.15,1.0,CC(=O)N1CCCCC1,le15
6063,N-cyclohexylformamide,422.15,1.0,O=CNC1CCCCC1,le15
6064,"2H-Azepin-2-one, hexahydro-1-methyl- (8CI)(9CI)",376.45,1.0,CN1CCCCCC1=O,le15
6065,"2-Propenamide, N,N-diethyl- (9CI)",364.625,1.0,C=CC(=O)N(CC)CC,le15
6066,"2-Pyrrolidinone, 1-(1-methylethyl)-",366.15,1.0,CC(C)N1CCCC1=O,le15
6067,"Propanenitrile, 3-butoxy-",361.35,1.0,CCCCOCCC#N,le15
6068,"Piperidine, 5-ethyl-2-methyl-",317.35,1.0,CCC1CCC(C)NC1,le15
6069,1-butylpyrrolidine,309.25,1.0,CCCCN1CCCC1,le15
6070,cyclooctanamine,335.95,1.0,NC1CCCCCCC1,le15
6071,"Cyclohexanamine, N-ethyl-",316.0499999999999,1.0,CCNC1CCCCC1,le15
6072,1-propylpiperidine,312.95,1.0,CCCN1CCCCC1,le15
6073,4-propylpiperidine,321.5499999999999,1.0,CCCC1CCNCC1,le15
6074,"Cyclohexanemethylamine, N-methyl-",314.45,1.0,CNCC1CCCCC1,le15
6075,2-propylpiperidine,321.5499999999999,1.0,CCCC1CCCCN1,le15
6076,"Benzenamine, 2-chloro-",371.15,1.0,Nc1ccccc1Cl,le15
6077,"Benzenamine, 3-chloro-",397.05,1.0,Nc1cccc(Cl)c1,le15
6078,6-Chloro-2-methylpyridine,346.15,1.0,Cc1cccc(Cl)n1,le15
6079,"Benzenamine, 4-chloro-",333.85,1.0,Nc1ccc(Cl)cc1,le15
6080,2-chloro-4-methylpyridine,362.75,1.0,Cc1ccnc(Cl)c1,le15
6081,difluoro(methyl)arsane,279.04999999999995,1.0,C[As](F)F,le15
6082,"Acetamide, 2,2-dichloro-",377.45,1.0,NC(=O)C(Cl)Cl,le15
6083,"methyl 2,2,2-trifluoroacetate",266.15,1.0,COC(=O)C(F)(F)F,le15
6084,"2,4,6(1H,3H,5H)-Pyrimidinetrione",423.15,1.0,O=C1CC(=O)NC(=O)N1,le15
6085,"1,1,1-Trifluoro-2-methylpropan-2-ol",320.5499999999999,1.0,CC(C)(O)C(F)(F)F,le15
6086,"4,4,4-trifluorobutan-1-ol",306.95,1.0,OCCCC(F)(F)F,le15
6087,"1,4-Benzenedicarbonitrile",415.95,1.0,N#Cc1ccc(C#N)cc1,le15
6088,"6,8-Dioxabicyclo(3.2.1)octan-7-one",362.95,1.0,O=C1OC2CCCC1O2,le15
6089,"1,2-Benzenedicarbonitrile",426.45,1.0,N#Cc1ccccc1C#N,le15
6090,"2-Propenoic acid, oxiranylmethyl ester",349.25,1.0,C=CC(=O)OCC1CO1,le15
6091,"1,3-Benzenedicarbonitrile",416.15,1.0,N#Cc1cccc(C#N)c1,le15
6092,Cyclohexanecarboxylic acid,380.15,1.0,O=C(O)C1CCCCC1,le15
6093,"2-Propenoic acid, 2-methylpropyl ester",305.95,1.0,C=CC(=O)OCC(C)C,le15
6094,Acrylic acid butyl ester (8CI),312.5499999999999,1.0,C=CC(=O)OCCCC,le15
6095,hept-6-enoic acid,386.45,1.0,C=CCCCCC(=O)O,le15
6096,2-cyclopentylacetic acid,387.15,1.0,O=C(O)CC1CCCC1,le15
6097,"2-Buten-1-ol, 3-methyl-, acetate",322.15,1.0,CC(=O)OCC=C(C)C,le15
6098,"2-Oxepanone, methyl-",359.15,1.0,CC1CCCCOC1=O,le15
6099,"2-Propenoic acid, 2-methyl-, propyl ester",307.85,1.0,C=C(C)C(=O)OCCC,le15
6100,"3,3-dimethylpentane-2,4-dione",330.15,1.0,CC(=O)C(C)(C)C(C)=O,le15
6101,ethenyl pentanoate,311.5499999999999,1.0,C=COC(=O)CCCC,le15
6102,cyclohexyl formate,326.45,1.0,O=COC1CCCCC1,le15
6103,"3-methylhexane-2,5-dione",344.15,1.0,CC(=O)CC(C)C(C)=O,le15
6104,"2-Propenoic acid, 2-methyl-, 1-methylethyl ester",304.15,1.0,C=C(C)C(=O)OC(C)C,le15
6105,"Crotonic acid, 2-methyl-, ethyl ester, (E)- (8CI)",317.15,1.0,C/C=C(\C)C(=O)OCC,le15
6106,"3,5-Heptanedione",336.5499999999999,1.0,CCC(=O)CC(=O)CC,le15
6107,"3,3-diethoxyprop-1-yne",305.35,1.0,C#CC(OCC)OCC,le15
6108,"2,3-Hexanedione, 5-methyl-",306.15,1.0,CC(=O)C(=O)CC(C)C,le15
6109,ethyl cyclobutanecarboxylate,316.35,1.0,CCOC(=O)C1CCC1,le15
6110,"3,4-Dihydro-2H-pyran-2-yl ethyl ether",297.5499999999999,1.0,CCOC1CCC=CO1,le15
6111,"2-Butenoic acid, 3-methyl-, ethyl ester",307.0499999999999,1.0,CCOC(=O)C=C(C)C,le15
6112,"4H-Pyran-4-one, tetrahydro-2,6-dimethyl-",338.65,1.0,CC1CC(=O)CC(C)O1,le15
6113,"3-ethylpentane-2,4-dione",333.35,1.0,CCC(C(C)=O)C(C)=O,le15
6114,"Acrylic acid, tert-butyl ester (8CI)",304.75,1.0,C=CC(=O)OC(C)(C)C,le15
6115,"Butanoic acid, 2-propenyl ester",314.85,1.0,C=CCOC(=O)CCC,le15
6116,(E)-hept-2-enoic acid,406.55,1.0,CCCC/C=C/C(=O)O,le15
6117,butyl2propenoat,310.0,1.0,C=CC(=O)OCCCC,le15
6118,"1H-Azepine, hexahydro-1-nitroso-",376.35,1.0,O=NN1CCCCCC1,le15
6119,"2(1H)-Pyrimidinone, tetrahydro-1,3-dimethyl-",358.45,1.0,CN1CCCN(C)C1=O,le15
6120,octan-3-one,319.15,1.0,CCCCCC(=O)CC,le15
6121,"2-(2,2-dimethylpropyl)-2-methyloxirane",301.15,1.0,CC(C)(C)CC1(C)CO1,le15
6122,"Hexanal, 2-ethyl-",323.15,1.0,CCCCC(C=O)CC,le15
6123,6-methylheptan-2-one,317.75,1.0,CC(=O)CCCC(C)C,le15
6124,"Cyclohexanemethanol, alpha-methyl-",346.15,1.0,CC(O)C1CCCCC1,le15
6125,6-methylhept-5-en-2-ol,340.95,1.0,CC(C)=CCCC(C)O,le15
6126,3-methylheptan-2-one,317.75,1.0,CCCCC(C)C(C)=O,le15
6127,"Oxirane, hexyl- (9CI)",310.35,1.0,CCCCCCC1CO1,le15
6128,"2,2,4,4-tetramethyloxolane",297.45,1.0,CC1(C)COC(C)(C)C1,le15
6129,Oct-1-ene-3-ol,334.25,1.0,C=CC(O)CCCCC,le15
6130,1-methylcycloheptan-1-ol,344.75,1.0,CC1(O)CCCCCC1,le15
6131,"Ethanol, 2-cyclohexyl-",359.85,1.0,OCCC1CCCCC1,le15
6132,1-ethenoxyhexane,282.95,1.0,C=COCCCCCC,le15
6133,"3,5-dimethylcyclohexan-1-ol",346.45,1.0,CC1CC(C)CC(O)C1,le15
6134,"3,4-dimethylcyclohexan-1-ol",351.45,1.0,CC1CCC(O)CC1C,le15
6135,2-methylheptan-3-one,317.35,1.0,CCCCC(=O)C(C)C,le15
6136,"Furan, tetrahydro-2,2,5,5-tetramethyl-",277.04999999999995,1.0,CC1(C)CCC(C)(C)O1,le15
6137,3-methylheptan-4-one,317.75,1.0,CCCC(=O)C(C)CC,le15
6138,"3,4-dimethylhexan-2-one",307.35,1.0,CCC(C)C(C)C(C)=O,le15
6139,"3,3-dimethylhexan-2-one",307.5499999999999,1.0,CCCC(C)(C)C(C)=O,le15
6140,"2,5-dimethylhexan-3-one",307.35,1.0,CC(C)CC(=O)C(C)C,le15
6141,1-ethylcyclohexan-1-ol,341.35,1.0,CCC1(O)CCCCC1,le15
6142,"3,5-dimethylhex-1-en-3-ol",313.25,1.0,C=CC(C)(O)CC(C)C,le15
6143,tert-Butyl propyl ketone,307.5499999999999,1.0,CCCC(=O)C(C)(C)C,le15
6144,3octanone,326.0,1.0,CCCCCC(=O)CC,le15
6145,5methyl3heptanone,316.0,1.0,CCC(=O)CC(C)CC,le15
6146,"1,2,4-trimethylpiperazine",304.25,1.0,CC1CN(C)CCN1C,le15
6147,"Piperazine, 1-(1-methylethyl)- (9CI)",329.5499999999999,1.0,CC(C)N1CCNCC1,le15
6148,1-ethylpiperidin-3-amine,333.75,1.0,CCN1CCCC(N)C1,le15
6149,"2,3,4-trimethylhexane",301.15,1.0,CCC(C)C(C)C(C)C,le15
6150,"3,4-dimethylheptane",333.15,1.0,CCCC(C)C(C)CC,le15
6151,"3,5-dimethylheptane",328.0499999999999,1.0,CCC(C)CC(C)CC,le15
6152,"3,3-diethylpentane",305.95,1.0,CCC(CC)(CC)CC,le15
6153,"2,2,4,4-tetramethylpentane",292.45,1.0,CC(C)(C)CC(C)(C)C,le15
6154,"2,2-dimethylheptane",297.5499999999999,1.0,CCCCCC(C)(C)C,le15
6155,"2,6-dimethylheptane",326.25,1.0,CC(C)CCCC(C)C,le15
6156,"2,2,3,4-tetramethylpentane",298.65,1.0,CC(C)C(C)C(C)(C)C,le15
6157,"2,5-dimethylheptane",327.35,1.0,CCC(C)CCC(C)C,le15
6158,4-ethylheptane,297.15,1.0,CCCC(CC)CCC,le15
6159,3-methyloctane,298.45,1.0,CCCCCC(C)CC,le15
6160,"Heptane, 2,3-dimethyl-",333.25,1.0,CCCCC(C)C(C)C,le15
6161,3-ethyl-3-methylhexane,302.35,1.0,CCCC(C)(CC)CC,le15
6162,"3,3-dimethylheptane",300.35,1.0,CCCCC(C)(C)CC,le15
6163,"2,2,3,3-tetramethylpentane",302.15,1.0,CCC(C)(C)C(C)(C)C,le15
6164,3-ethylheptane,298.25,1.0,CCCCC(CC)CC,le15
6165,"2,2,3-trimethylhexane",298.5499999999999,1.0,CCCC(C)C(C)(C)C,le15
6166,"2,2,4-trimethylhexane",294.0499999999999,1.0,CCC(C)CC(C)(C)C,le15
6167,"2,3,3-trimethylhexane",300.85,1.0,CCCC(C)(C)C(C)C,le15
6168,"2,4,4-trimethylhexane",296.25,1.0,CCC(C)(C)CC(C)C,le15
6169,"2,3,3,4-tetramethylpentane",302.65,1.0,CC(C)C(C)(C)C(C)C,le15
6170,3-ethyl-2-methylhexane,330.45,1.0,CCCC(CC)C(C)C,le15
6171,4-methyloctane,297.35,1.0,CCCCC(C)CCC,le15
6172,4-ethyl-2-methylhexane,325.35,1.0,CCC(CC)CC(C)C,le15
6173,2-methyloctane,298.35,1.0,CCCCCCC(C)C,le15
6174,"3,3,4-trimethylhexane",301.75,1.0,CCC(C)C(C)(C)CC,le15
6175,3methyl4ethylhexane,297.0,1.0,CCC(C)C(CC)CC,le15
6176,"Phenol, 3-chloro-",350.04999999999984,1.0,Oc1cccc(Cl)c1,le15
6177,"Phenol, 2-chloro-",337.0499999999999,1.0,Oc1ccccc1Cl,le15
6178,4chlorophenol,388.0,1.0,Oc1ccc(Cl)cc1,le15
6179,ethanesulfonyl chloride,326.45,1.0,CCS(=O)(=O)Cl,le15
6180,chloromethyl carbonochloridate,298.65,1.0,O=C(Cl)OCCl,le15
6181,"s-Triazine-2,4,6(1H,3H,5H)-trione (8CI)",706.75,1.0,O=c1[nH]c(=O)[nH]c(=O)[nH]1,le15
6182,"Benzenamine, 2,4-difluoro-",335.15,1.0,Nc1ccc(F)cc1F,le15
6183,"Benzenamine, 3,4-difluoro-",358.15,1.0,Nc1ccc(F)c(F)c1,le15
6184,"Proline, 5-oxo-, L-",500.95,1.0,O=C1CC[C@@H](C(=O)O)N1,le15
6185,"Urea, N-nitroso-N-2-propenyl- (9CI)",349.15,1.0,C=CCN(N=O)C(N)=O,le15
6186,2-nitrothiophene,367.05,1.0,O=[N+]([O-])c1cccs1,le15
6187,3-nitrothiophene,363.65,1.0,O=[N+]([O-])c1ccsc1,le15
6188,Quinoline,374.15,1.0,c1ccc2ncccc2c1,le15
6189,Isoquinoline,374.25,1.0,c1ccc2cnccc2c1,le15
6190,(E)-3-phenylprop-2-enenitrile,378.35,1.0,N#C/C=C/c1ccccc1,le15
6191,1-Aminocyclopentane-1-carboxylic acid,381.85,1.0,NC1(C(=O)O)CCCC1,le15
6192,nitrocyclohexane,354.35,1.0,O=[N+]([O-])C1CCCCC1,le15
6193,"Morpholine, 4-acetyl-",395.15,1.0,CC(=O)N1CCOCC1,le15
6194,"Butanamide, N,N-dimethyl-3-oxo-",355.54999999999984,1.0,CC(=O)CC(=O)N(C)C,le15
6195,"2-Pyrrolidinone, 1-(2-hydroxyethyl)-",373.15,1.0,O=C1CCCN1CCO,le15
6196,"3-Hexene, 3-nitro-",338.75,1.0,CCC=C(CC)[N+](=O)[O-],le15
6197,N-acetyl-N-ethylacetamide,347.54999999999984,1.0,CCN(C(C)=O)C(C)=O,le15
6198,2-piperidin-4-ylethanol,374.85,1.0,OCCC1CCNCC1,le15
6199,"N-(2,4-dimethylpentan-3-ylidene)hydroxylamine",371.95,1.0,CC(C)C(=NO)C(C)C,le15
6200,"N,N-diethylpropanamide",346.75,1.0,CCC(=O)N(CC)CC,le15
6201,2-piperidin-2-ylethanol,375.35,1.0,OCCC1CCCCN1,le15
6202,"Oxiranemethanamine, N,N-diethyl- (9CI)",314.25,1.0,CCN(CC)CC1CO1,le15
6203,"2-Heptanone, oxime",613.8499999999998,1.0,CCCCCC(C)=NO,le15
6204,(1-methylpiperidin-3-yl)methanol,367.55,1.0,CN1CCCC(CO)C1,le15
6205,1-Piperidineethanol,364.35,1.0,OCCN1CCCCC1,le15
6206,"1,3,5-trimethyl-1,3,5-triazinane",322.5499999999999,1.0,CN1CN(C)CN(C)C1,le15
6207,"Piperazine, 1-(2-aminoethyl)-",366.15,1.0,NCCN1CCNCC1,le15
6208,Neopentyl isothiocyanate,327.503,1.0,CC(C)(C)CN=C=S,le15
6209,Pentyl isothiocyanate,338.35,1.0,CCCCCN=C=S,le15
6210,"1-Hexanamine, 2-ethyl-",325.35,1.0,CCCCC(CC)CN,le15
6211,"Butylamine, 1,1,3,3-tetramethyl- (6CI,7CI,8CI)",305.15,1.0,CC(C)(C)CC(C)(C)N,le15
6212,"1-Propanamine, 2-methyl-N-(2-methylpropyl)-",302.5499999999999,1.0,CC(C)CNCC(C)C,le15
6213,N-butan-2-ylbutan-2-amine,293.75,1.0,CCC(C)NC(C)CC,le15
6214,"Heptylamine, 1-methyl-",335.95,1.0,CCCCCCC(C)N,le15
6215,"1-Butanamine, N,N-diethyl-",299.95,1.0,CCCCN(CC)CC,le15
6216,N-ethyl-N-propan-2-ylpropan-2-amine,283.75,1.0,CCN(C(C)C)C(C)C,le15
6217,"1-Butanamine, N-butyl-",314.25,1.0,CCCCNCCCC,le15
6218,2ethyl1hexanamine,323.0,1.0,CCCCC(CC)CN,le15
6219,"Methane, bromochloro-",284.15,1.0,ClCBr,le15
6220,5-Chloropyridin-2-ol,402.75,1.0,Oc1ccc(Cl)cn1,le15
6221,"3-Pyridinol, 2-chloro-",418.15,1.0,Oc1cccnc1Cl,le15
6222,"Methane, dichloronitro-",296.35,1.0,O=[N+]([O-])C(Cl)Cl,le15
6223,"2,4(1H,3H)-Pyrimidinedione, 5-fluoro-",469.65,1.0,O=c1[nH]cc(F)c(=O)[nH]1,le15
6224,2-methylidenebutanedioic acid,471.85,1.0,C=C(CC(=O)O)C(=O)O,le15
6225,"Propiolaldehyde, phenyl- (8CI)",367.55,1.0,O=CC#Cc1ccccc1,le15
6226,Quinoxaline,371.15,1.0,c1ccc2nccnc2c1,le15
6227,"Hexanedial, 2-hydroxy-",380.75,1.0,O=CCCCC(O)C=O,le15
6228,"Butanoic acid, 3-oxo-, ethyl ester",340.15,1.0,CCOC(=O)CC(C)=O,le15
6229,"3,3-dimethyl-2-oxobutanoic acid",351.54999999999984,1.0,CC(C)(C)C(=O)C(=O)O,le15
6230,"2-Propenoic acid, 2-methyl-, 2-hydroxyethyl ester",370.37199999999996,1.0,C=C(C)C(=O)OCCO,le15
6231,"2-Propenoic acid, 2-hydroxypropyl ester (9CI)",353.04999999999984,1.0,C=CC(=O)OCC(C)O,le15
6232,"Oxirane, 2,2'-(oxybis(methylene))bis-",343.75,1.0,C(OCC1CO1)C1CO1,le15
6233,"Acrylic acid, 2-methoxyethyl ester (8CI)",333.15,1.0,C=CC(=O)OCCOC,le15
6234,quinazoline,379.817,1.0,c1ccc2ncncc2c1,le15
6235,"2,5-dimethoxy-2,5-dihydrofuran",320.35,1.0,COC1C=CC(OC)O1,le15
6236,"Butanoic acid, 4-oxo-, ethyl ester",341.65,1.0,CCOC(=O)CCC=O,le15
6237,methyl 2-methyl-3-oxobutanoate,505.55,1.0,COC(=O)C(C)C(C)=O,le15
6238,ethyl3oxobutanoat,343.0,1.0,CCOC(=O)CC(C)=O,le15
6239,PropionicAnhydride,336.0,1.0,CCC(=O)OC(=O)CC,le15
6240,1-nitropiperidine,391.25,1.0,O=[N+]([O-])N1CCCCC1,le15
6241,"Naphthalene, 1,2-dihydro-",343.5,1.0,C1=Cc2ccccc2CC1,le15
6242,"1,4-dihydronaphthalene",343.85,1.0,C1=CCc2ccccc2C1,le15
6243,4-methyl-1H-indene,347.85,1.0,Cc1cccc2c1C=CC2,le15
6244,7-methyl-1H-indene,348.04999999999984,1.0,Cc1cccc2c1CC=C2,le15
6245,6-methyl-1H-indene,346.45,1.0,Cc1ccc2c(c1)CC=C2,le15
6246,"1,3-bis(ethenyl)benzene",347.75,1.0,C=Cc1cccc(C=C)c1,le15
6247,"Butanoic acid, propyl ester",312.0499999999999,1.0,CCCOC(=O)CCC,le15
6248,"Hexanoic acid, methyl ester",315.15,1.0,CCCCCC(=O)OC,le15
6249,"2-Pentanone, 4-methoxy-4-methyl-",314.45,1.0,COC(C)(C)CC(C)=O,le15
6250,"Butyric acid, 3-methyl-, ethyl ester (6CI,7CI,8CI)",299.15,1.0,CCOC(=O)CC(C)C,le15
6251,"1-Butanol, 3-methyl-, acetate",298.15,1.0,CC(=O)OCCC(C)C,le15
6252,"Valeric acid, ethyl ester (8CI)",312.0499999999999,1.0,CCCCC(=O)OCC,le15
6253,"Propanoic acid, 2-methylpropyl ester",299.15,1.0,CCC(=O)OCC(C)C,le15
6254,"Propanoic acid, butyl ester",311.15,1.0,CCCCOC(=O)CC,le15
6255,butan-2-yl propanoate,306.5499999999999,1.0,CCC(=O)OC(C)CC,le15
6256,2-methylbutyl acetate,308.15,1.0,CCC(C)COC(C)=O,le15
6257,"Formic acid, hexyl ester",320.95,1.0,CCCCCCOC=O,le15
6258,propan-2-yl butanoate,303.15,1.0,CCCC(=O)OC(C)C,le15
6259,propyl 2-methylpropanoate,306.5499999999999,1.0,CCCOC(=O)C(C)C,le15
6260,"ethyl 2,2-dimethylpropanoate",289.15,1.0,CCOC(=O)C(C)(C)C,le15
6261,2-methylhexanoic acid,330.15,1.0,CCCCC(C)C(=O)O,le15
6262,"Thiocyanic acid, methylene ester",399.45,1.0,N#CSCSC#N,le15
6263,"Butyric acid, 2-methyl-, ethyl ester (8CI)",306.5499999999999,1.0,CCOC(=O)C(C)CC,le15
6264,"Butanoic acid, 2-ethyl-2-methyl-",365.15,1.0,CCC(C)(CC)C(=O)O,le15
6265,"Propanoic acid, 1,1-dimethylethyl ester",298.5499999999999,1.0,CCC(=O)OC(C)(C)C,le15
6266,"2,2-dimethylpentanoic acid",365.15,1.0,CCCC(C)(C)C(=O)O,le15
6267,"Propane, 1-butoxy-2,3-epoxy-",328.75,1.0,CCCCOCC1CO1,le15
6268,"Oxirane, ((1,1-dimethylethoxy)methyl)-",316.45,1.0,CC(C)(C)OCC1CO1,le15
6269,2pentylacetate,305.0,1.0,CCCCCCC(=O)[O-],le15
6270,tertButylPropionate,293.0,1.0,CCC(=O)OC(C)(C)C,le15
6271,N-(2-Hydroxyethyl)piperazine,375.05,1.0,OCCN1CCNCC1,le15
6272,6-aminohexanamide,414.35,1.0,NCCCCCC(N)=O,le15
6273,"tert-Butylamine, N-ethyl-N-nitroso-",346.75,1.0,CCN(N=O)C(C)(C)C,le15
6274,"Morpholine, 4-(2-aminoethyl)-",448.15,1.0,NCCN1CCOCC1,le15
6275,"1-Butanamine, N-ethyl-N-nitroso- (9CI)",355.75,1.0,CCCCN(CC)N=O,le15
6276,"1-Hexanol, 2-ethyl-",350.35,1.0,CCCCC(CC)CO,le15
6277,"1-Pentanol, 2,2,4-trimethyl-",329.75,1.0,CC(C)CC(C)(C)CO,le15
6278,"Butane, 1,1'-oxybis-",298.15,1.0,CCCCOCCCC,le15
6279,octan-4-ol,344.25,1.0,CCCCC(O)CCC,le15
6280,3-ethylhexan-3-ol,333.75,1.0,CCCC(O)(CC)CC,le15
6281,4-methylheptan-4-ol,333.75,1.0,CCCC(C)(O)CCC,le15
6282,"1-Heptanol, 6-methyl-",344.25,1.0,CC(C)CCCCCO,le15
6283,"1-Hexanol, 2,2-dimethyl-",333.75,1.0,CCCCC(C)(C)CO,le15
6284,"2,2-dimethylhexan-3-ol",329.75,1.0,CCCC(O)C(C)(C)C,le15
6285,6-methylheptan-2-ol,340.35,1.0,CC(C)CCCC(C)O,le15
6286,"2,2,4-trimethylpentan-3-ol",323.15,1.0,CC(C)C(O)C(C)(C)C,le15
6287,"3-Heptanol, 3-methyl- (8CI)(9CI)",333.75,1.0,CCCCC(C)(O)CC,le15
6288,1-ethoxyhexane,304.35,1.0,CCCCCCOCC,le15
6289,1-(2-methylpropoxy)butane,295.95,1.0,CCCCOCC(C)C,le15
6290,"2,3-dimethylhexan-2-ol",329.75,1.0,CCCC(C)C(C)(C)O,le15
6291,"3,4-dimethylhexan-2-ol",332.35,1.0,CCC(C)C(C)C(C)O,le15
6292,2-Methylheptan-4-ol,337.35,1.0,CCCC(O)CC(C)C,le15
6293,"2-Heptanol, 3-methyl- (8CI)(9CI)",337.35,1.0,CCCCC(C)C(C)O,le15
6294,"1-Pentanol, 2-propyl-",344.85,1.0,CCCC(CO)CCC,le15
6295,3-ethyl-2-methylpentan-3-ol,329.75,1.0,CCC(O)(CC)C(C)C,le15
6296,"2,3,4-trimethylpentan-2-ol",323.15,1.0,CC(C)C(C)C(C)(C)O,le15
6297,"2,5-dimethylhexan-2-ol",329.75,1.0,CC(C)CCC(C)(C)O,le15
6298,"3-Heptanol, 5-methyl-",337.35,1.0,CCC(C)CC(O)CC,le15
6299,2ethylhexanol,346.0,1.0,CCCCC(CC)CO,le15
6300,3octanol,338.0,1.0,CCCCCC(O)CC,le15
6301,"1,3-Propanediamine, N,N,N',N'-tetramethyl-",304.85,1.0,CN(C)CCCN(C)C,le15