,compound,flashpoint,pure substance,smiles,source
3916,"Benzeneacetic acid, 4-methoxy-",397.45,1,COc1ccc(CC(=O)O)cc1,le15
3917,"Benzaldehyde, 3,4-dimethoxy-",383.55,1,COc1ccc(C=O)cc1OC,le15
3918,ethyl 4-hydroxybenzoate,393.45,1,CCOC(=O)c1ccc(O)cc1,le15
3919,"Benzaldehyde, 3-ethoxy-4-hydroxy-",392.15,1,CCOc1cc(C=O)ccc1O,le15
3920,"Benzoic acid, 4-methoxy-, methyl ester",371.25,1,COC(=O)c1ccc(OC)cc1,le15
3921,"Salicylaldehyde, 3-ethoxy- (8CI)",371.05,1,CCOc1cccc(C=O)c1O,le15
3922,"Ethanone, 1-(4-hydroxy-3-methoxyphenyl)-",398.65,1,COc1cc(C(C)=O)ccc1O,le15
3923,"Ethanone, 1-(2-hydroxy-4-methoxyphenyl)- (9CI)",395.45,1,COc1ccc(C(C)=O)c(O)c1,le15
3924,"Benzaldehyde, 2,4-dimethoxy-",397.85,1,COc1ccc(C=O)c(OC)c1,le15
3925,2-phenoxypropanoic acid,359.15,1,CC(Oc1ccccc1)C(=O)O,le15
3926,alpha-methoxy-alpha-phenylacetic acid,389.25,1,COC(C(=O)O)c1ccccc1,le15
3927,"Acetic acid, phenoxy-, methyl ester",361.85,1,COC(=O)COc1ccccc1,le15
3928,methyl 2-hydroxy-4-methylbenzoate,370.95,1,COC(=O)c1ccc(C)cc1O,le15
3929,methyl 3-methoxybenzoate,366.95,1,COC(=O)c1cccc(OC)c1,le15
3930,"Benzenemethanol, 4-(acetyloxy)-",399.25,1,CC(=O)Oc1ccc(CO)cc1,le15
3931,methyl 2-hydroxy-5-methylbenzoate,371.65,1,COC(=O)c1cc(C)ccc1O,le15
3932,"Benzoic acid, 2-hydroxy-3-methyl-, methyl ester",368.65,1,COC(=O)c1cccc(C)c1O,le15
3933,"Benzoic acid, 2-hydroxy-, ethyl ester",380.15,1,CCOC(=O)c1ccccc1O,le15
3934,3-phenoxypropanoic acid,357.15,1,O=C(O)CCOc1ccccc1,le15
3935,"N,N-dimethyl-3-nitroaniline",390.15,1,CN(C)c1cccc([N+](=O)[O-])c1,le15
3936,"Benzo(b)thiophene 1,1-dioxide",517.15,1,O=S1(=O)C=Cc2ccccc21,le15
3937,"1,3,2-Dioxathiane, 5,5-dimethyl-, 2,2-dioxide",368.15,1,CC1(C)COS(=O)(=O)OC1,le15
3938,"1,2-Benzenediol, 4-(1,1-dimethylethyl)-",408.65,1,CC(C)(C)c1ccc(O)c(O)c1,le15
3939,"Phenol, p-butoxy- (8CI)",405.55,1,CCCCOc1ccc(O)cc1,le15
3940,"1,4-diethoxybenzene",361.35,1,CCOc1ccc(OCC)cc1,le15
3941,"1,4-Benzenediol, 2-(1,1-dimethylethyl)-",411.85,1,CC(C)(C)c1cc(O)ccc1O,le15
3942,"1,3-diethoxybenzene",360.25,1,CCOc1cccc(OCC)c1,le15
3943,"1,2-diethoxybenzene",346.95,1,CCOc1ccccc1OCC,le15
3944,"Phenol, 2-methoxy-4-propyl-",386.15,1,CCCc1ccc(O)c(OC)c1,le15
3945,1-(furan-3-yl)-4-methylpentan-1-one,369.95,1,CC(C)CCC(=O)c1ccoc1,le15
3946,1-Methyl-1-phenylthiourea,388.45,1,CN(C(N)=S)c1ccccc1,le15
3947,"Isonicotinimidic acid, 2-ethylthio-",406.35,1,CCc1cc(C(=N)S)ccn1,le15
3948,"Bicyclo(3.1.1)hept-2-ene-2-ethanol, 6,6-dimethyl-",372.05,1,CC1(C)C2CC=C(CCO)C1C2,le15
3949,"2-Cyclopenten-1-one, 3-methyl-2-pentyl-",383.15,1,CCCCCC1=C(C)CCC1=O,le15
3950,"4,7-Methanoindan, hexahydro-1,8-diamino-",399.75,1,NC1CCC2C3CCC(C3N)C12,le15
3951,trimethyl(phenoxy)silane,315.906,1,C[Si](C)(C)Oc1ccccc1,le15
3952,dodec-1-yne,352.55,1,C#CCCCCCCCCCC,le15
3953,"dodeca-1,11-diene",342.45,1,C=CCCCCCCCCC=C,le15
3954,cyclohexylcyclohexane,365.35,1,C1CCC(C2CCCCC2)CC1,le15
3955,(E)-3-phenylprop-2-enoyl chloride,385.65,1,O=C(Cl)/C=C/c1ccccc1,le15
3956,"Benzimidazole, 5-chloro-2-methyl- (8CI)",485.35,1,Cc1nc2ccc(Cl)cc2[nH]1,le15
3957,2-iodoacetonitrile,359.25,1,N#CCI,le15
3958,"Butyric acid, 2-bromo- (8CI)",357.95,1,CCC(Br)C(=O)O,le15
3959,2-bromoethyl acetate,344.25,1,CC(=O)OCCBr,le15
3960,"Butanoic acid, 4-bromo-",384.45,1,O=C(O)CCCBr,le15
3961,"Propionic acid, 3-bromo-, methyl ester (8CI)",348.15,1,COC(=O)CCBr,le15
3962,"Acetic acid, 2-bromo-, ethyl ester",320.95,1,CCOC(=O)CBr,le15
3963,"3-Bromo-2,2-dimethyl-1-propanol",348.75,1,CC(C)(CO)CBr,le15
3964,"Benzoic acid, 4-nitro-",439.65,1,O=C(O)c1ccc([N+](=O)[O-])cc1,le15
3965,"Benzoic acid, 3-nitro-",430.65,1,O=C(O)c1cccc([N+](=O)[O-])c1,le15
3966,"2,6-Pyridinedicarboxylic acid",507.35,1,O=C(O)c1cccc(C(=O)O)n1,le15
3967,"Benzoic acid, 2-nitro-",430.65,1,O=C(O)c1ccccc1[N+](=O)[O-],le15
3968,4-Hydroxy-3-nitrobenzaldehyde,397.45,1,O=Cc1ccc(O)c([N+](=O)[O-])c1,le15
3969,"Benzaldehyde, 2-hydroxy-3-nitro-",372.35,1,O=Cc1cccc([N+](=O)[O-])c1O,le15
3970,"Salicylaldehyde, 5-nitro- (6CI,7CI,8CI)",410.45,1,O=Cc1cc([N+](=O)[O-])ccc1O,le15
3971,"2,5-Pyridinedicarboxylic acid",493.65,1,O=C(O)c1ccc(C(=O)O)nc1,le15
3972,5-Nitrofuran-2-acrylaldehyde,414.85,1,O=CC=Cc1ccc([N+](=O)[O-])o1,le15
3973,"Phenethyl alcohol, p-nitro-",417.65,1,O=[N+]([O-])c1ccc(CCO)cc1,le15
3974,"Phenetole, m-nitro- (8CI)",401.25,1,CCOc1cccc([N+](=O)[O-])c1,le15
3975,4-methoxy-1-methyl-2-nitrobenzene,400.35,1,COc1ccc(C)c([N+](=O)[O-])c1,le15
3976,9H-Carbazole,433.15,1,c1ccc2c(c1)[nH]c1ccccc12,le15
3977,"6H-Purine-6-thione, 2-amino-1,7-dihydro-",562.85,1,Nc1nc2nc[nH]c2c(=S)[nH]1,le15
3978,2-naphthalen-2-ylacetonitrile,453.45,1,N#CCc1ccc2ccccc2c1,le15
3979,"Cyclohexanol, 1-ethynyl-, carbamate",404.15,1,C#CC1(OC(N)=O)CCCCC1,le15
3980,"Benzenemethanol, 3-hydroxy-alpha-((methylamino)methyl)-, (R)- (9CI)",436.55,1,CNC[C@H](O)c1cccc(O)c1,le15
3981,"2-Pyrrolidinone, 1-cyclohexyl-",418.15,1,O=C1CCCN1C1CCCCC1,le15
3982,"1H-Benzimidazol-2-amine, 5-chloro-",470.45,1,Nc1nc2cc(Cl)ccc2[nH]1,le15
3983,3iodo1propene,291.0,1,C=CCI,le15
3984,2-bromo-2-nitropropane,334.25,1,CC(C)(Br)[N+](=O)[O-],le15
3985,"2-Propanol, 1,1,1,3,3,3-hexafluoro-",277.55,1,OC(C(F)(F)F)C(F)(F)F,le15
3986,"Benzene, pentafluoro-",287.05,1,Fc1cc(F)c(F)c(F)c1F,le15
3987,"Benzeneacetic acid, 3,4-dihydroxy- (9CI)",494.15,1,O=C(O)Cc1ccc(O)c(O)c1,le15
3988,"Benzoic acid, 4-hydroxy-3-methoxy-",422.55,1,COc1cc(C(=O)O)ccc1O,le15
3989,"2H-Pyran-2,4(3H)-dione, 3-acetyl-6-methyl-",423.75,1,CC(=O)C1C(=O)C=C(C)OC1=O,le15
3990,"Benzoic acid, 3,5-dihydroxy-, methyl ester",420.75,1,COC(=O)c1cc(O)cc(O)c1,le15
3991,"Benzoic acid, 2,4-dihydroxy-, methyl ester",421.95,1,COC(=O)c1ccc(O)cc1O,le15
3992,"Benzenamine, 4-methoxy-2-nitro-",431.55,1,COc1ccc(N)c([N+](=O)[O-])c1,le15
3993,"Benzenamine, 2-methoxy-4-nitro-",447.15,1,COc1cc([N+](=O)[O-])ccc1N,le15
3994,"Benzenamine, 2-methoxy-5-nitro-",439.75,1,COc1ccc([N+](=O)[O-])cc1N,le15
3995,ethyl 4-fluorobenzoate,354.15,1,CCOC(=O)c1ccc(F)cc1,le15
3996,"6-Hydroxy-1,3-benzoxathiol-2-one",455.45,1,O=c1oc2cc(O)ccc2s1,le15
3997,"Acetic acid, fluoro-, phenylhydrazone (8CI)",362.75,1,OC(CF)=NNc1ccccc1,le15
3998,Dibenzofuran,403.15,1,c1ccc2c(c1)oc1ccccc12,le15
3999,"(3,4-dimethoxyphenyl)methanol",394.85,1,COc1ccc(CO)cc1OC,le15
4000,"9H-Pyrido(3,4-b)indole",455.25,1,c1ccc2c(c1)[nH]c1cnccc12,le15
4001,"3-phenoxypropane-1,2-diol",429.55,1,OCC(O)COc1ccccc1,le15
4002,butyl furan-2-carboxylate,367.05,1,CCCCOC(=O)c1ccco1,le15
4003,"1,3,5-trimethoxybenzene",358.75,1,COc1cc(OC)cc(OC)c1,le15
4004,"1H-Pyrrolo(3,2-h)quinoline",454.05,1,c1cnc2c(c1)ccc1cc[nH]c12,le15
4005,"1,2,3-trimethoxybenzene",343.55,1,COc1cccc(OC)c1OC,le15
4006,"Isocyanic acid, hexamethylene ester (8CI)",413.15,1,O=C=NCCCCCCN=C=O,le15
4007,"Phosphonothioic acid, methyl-, O,S-diethyl ester",352.75,1,CCOP(C)(=O)SCC,le15
4008,"Phosphonothioic acid, ethyl-, O-ethyl S-methyl ester",352.75,1,CCOP(=O)(CC)SC,le15
4009,Phenyl vinyl sulphone,451.75,1,C=CS(=O)(=O)c1ccccc1,le15
4010,"Benzene, 1,1'-methylenebis-",378.05,1,c1ccc(Cc2ccccc2)cc1,le15
4011,1-methyl-2-phenylbenzene,380.15,1,Cc1ccccc1-c1ccccc1,le15
4012,1-methyl-3-phenylbenzene,386.95,1,Cc1cccc(-c2ccccc2)c1,le15
4013,1-prop-2-enylnaphthalene,392.65,1,C=CCc1cccc2ccccc12,le15
4014,"1,1'-Biphenyl, 4-methyl-",383.15,1,Cc1ccc(-c2ccccc2)cc1,le15
4015,Diphenylmethane,400.0,1,c1ccc(Cc2ccccc2)cc1,le15
4016,"7-Oxabicyclo(4.1.0)heptane, 1-methyl-4-(2-methyloxiranyl)-",373.55,1,CC1(C2CCC3(C)OC3C2)CO1,le15
4017,"2-Nonynoic acid, methyl ester",373.75,1,CCCCCCC#CC(=O)OC,le15
4018,"2,6-Octadienoic acid, 3,7-dimethyl-",474.25,1,CC(C)=CCCC(C)=CC(=O)O,le15
4019,"2,3-Dioxabicyclo(2.2.2)oct-5-ene, 1-methyl-4-(1-methylethyl)- (9CI)",329.05,1,CC(C)C12C=CC(C)(CC1)OO2,le15
4020,"2,7-Octadien-1-ol, acetate",360.85,1,C=CCCCC=CCOC(C)=O,le15
4021,cyclohexyl 2-methylprop-2-enoate,355.15,1,C=C(C)C(=O)OC1CCCCC1,le15
4022,"Phenol, 3,5-dimethyl-4-(methylthio)-",403.95,1,CSc1c(C)cc(O)cc1C,le15
4023,10-Undecen-1-al,349.15,1,C=CCCCCCCCCC=O,le15
4024,"Hexane, 1-cyclohexyl- (8CI)",353.35,1,CCCCCCC1CCCCC1,le15
4025,"3-Heptene, 2,2,4,6,6-pentamethyl-",320.25,1,CC(=CC(C)(C)C)CC(C)(C)C,le15
4026,Cyclododecane,360.75,1,C1CCCCCCCCCCC1,le15
4027,1dodecene,350.0,1,C=CCCCCCCCCCC,le15
4028,"2-Benzoxazolamine, 5-chloro- (9CI)",418.55,1,Nc1nc2cc(Cl)ccc2o1,le15
4029,3-Phenylpropionyl chloride,381.15,1,O=C(Cl)CCc1ccccc1,le15
4030,2-(4-Chlorophenyl)-2-methyloxirane,370.05,1,CC1(c2ccc(Cl)cc2)CO1,le15
4031,(1-chloro-2-methylpropan-2-yl)benzene,365.35,1,CC(C)(CCl)c1ccccc1,le15
4032,1-tert-butyl-4-chlorobenzene,358.15,1,CC(C)(C)c1ccc(Cl)cc1,le15
4033,2-chloro-1-methyl-4-propan-2-ylbenzene,358.35,1,Cc1ccc(C(C)C)cc1Cl,le15
4034,"2-Butenoic acid, 2,3-dichloro-4-oxo-, (Z)- (9CI)",459.15,1,O=C/C(Cl)=C(/Cl)C(=O)O,le15
4035,"3,4-Dichloro-5-hydroxyfuran-2(5H)-one",373.15,1,O=C1OC(O)C(Cl)=C1Cl,le15
4036,"Glutaryl chloride (7CI,8CI)",379.85,1,O=C(Cl)CCCC(=O)Cl,le15
4037,"2-bromo-1,1-dimethoxyethane",327.05,1,COC(CBr)OC,le15
4038,"Glycine, N-(phosphonomethyl)-",508.65,1,O=C(O)CNCP(=O)(O)O,le15
4039,"1,1-dichloroheptane",339.15,1,CCCCCCC(Cl)Cl,le15
4040,1-isocyanatonaphthalene,408.15,1,O=C=Nc1cccc2ccccc12,le15
4041,"1,2,4-Benzenetriol, 5-(2-aminoethyl)-",472.45,1,NCCc1cc(O)c(O)cc1O,le15
4042,"Pyridine, 2-(phenylmethyl)-",398.15,1,c1ccc(Cc2ccccn2)cc1,le15
4043,"Benzenamine, N-phenyl-",425.95,1,c1ccc(Nc2ccccc2)cc1,le15
4044,3-Benzylpyridine,391.75,1,c1ccc(Cc2cccnc2)cc1,le15
4045,"(1,1'-Biphenyl)-3-amine (9CI)",450.15,1,Nc1cccc(-c2ccccc2)c1,le15
4046,ethyl 2-cyano-2-ethylbutanoate,363.35,1,CCOC(=O)C(C#N)(CC)CC,le15
4047,"[(1R,9aR)-2,3,4,6,7,8,9,9a-octahydro-1H-quinolizin-1-yl]methanol",372.25,1,OC[C@@H]1CCCN2CCCC[C@H]12,le15
4048,"Morpholine, 4-cyclohexyl-",342.75,1,C1CCC(N2CCOCC2)CC1,le15
4049,"2(3H)-Benzoxazolone, 5-chloro-",430.65,1,O=c1[nH]c2cc(Cl)ccc2o1,le15
4050,N-methyl-N-phenylcarbamoyl chloride,396.25,1,CN(C(=O)Cl)c1ccccc1,le15
4051,1-chloro-4-isothiocyanatobenzene,378.25,1,S=C=Nc1ccc(Cl)cc1,le15
4052,1-chloro-3-isothiocyanatobenzene,390.55,1,S=C=Nc1cccc(Cl)c1,le15
4053,"2-chloro-1,3-benzothiazole",376.95,1,Clc1nc2ccccc2s1,le15
4054,acetyl iodide,290.75,1,CC(=O)I,le15
4055,"Propane, 2-iodo-",315.15,1,CC(C)I,le15
4056,"Propane, 1-iodo-",307.15,1,CCCI,le15
4057,"Benzoic acid, 3,4,5-trihydroxy-",544.15,1,O=C(O)c1cc(O)c(O)c(O)c1,le15
4058,"2,5-Hexadienoic acid, 3-methoxy-5-methyl-4-oxo-",386.65,1,C=C(C)C(=O)C(=CC(=O)O)OC,le15
4059,"(1,1'-Biphenyl)-2-ol",396.15,1,Oc1ccccc1-c1ccccc1,le15
4060,"(1,1'-Biphenyl)-4-ol",420.35,1,Oc1ccc(-c2ccccc2)cc1,le15
4061,"Ethanone, 1-(2-naphthalenyl)-",441.15,1,CC(=O)c1ccc2ccccc2c1,le15
4062,"Methacrylic acid, tetrahydrofurfuryl ester (8CI)",364.15,1,C=C(C)C(=O)OCC1CCCO1,le15
4063,2-(diethoxymethyl)furan,337.15,1,CCOC(OCC)c1ccco1,le15
4064,Cyclo(L-leucylglycyl),480.55,1,CC(C)C[C@@H]1NC(=O)CNC1=O,le15
4065,(Ethylsulphonyl)benzene,448.25,1,CCS(=O)(=O)c1ccccc1,le15
4066,"4(1H)-Pyrimidinone, 2,3-dihydro-6-propyl-2-thioxo-",441.75,1,CCCc1cc(=O)[nH]c(=S)[nH]1,le15
4067,1-propylnaphthalene,392.05,1,CCCc1cccc2ccccc12,le15
4068,"Naphthalene, 2-(1-methylethyl)-",382.85,1,CC(C)c1ccc2ccccc2c1,le15
4069,"Naphthalene, 1,6,7-trimethyl- (8CI)(9CI)",400.95,1,Cc1cc2cccc(C)c2cc1C,le15
4070,"Hexanoic acid, 2-ethyl-, ethenyl ester",338.15,1,C=COC(=O)C(CC)CCCC,le15
4071,"Methacrylic acid, hexyl ester (8CI)",345.25,1,C=C(C)C(=O)OCCCCCC,le15
4072,"Heptanoic acid, 2-propenyl ester",355.35,1,C=CCOC(=O)CCCCCC,le15
4073,"6-Octenoic acid, 3,7-dimethyl-",436.35,1,CC(C)=CCCC(C)CC(=O)O,le15
4074,"2H-Pyran-2-one, tetrahydro-6-pentyl-",379.25,1,CCCCCC1CCCC(=O)O1,le15
4075,"2(3H)-Furanone, 5-hexyldihydro-",419.15,1,CCCCCCC1CCC(=O)O1,le15
4076,cyclohexyl 2-methylpropanoate,348.05,1,CC(C)C(=O)OC1CCCCC1,le15
4077,"Butanoic acid, cyclohexyl ester",351.15,1,CCCC(=O)OC1CCCCC1,le15
4078,"1-Octen-3-ol, acetate",347.05,1,C=CC(CCCCC)OC(C)=O,le15
4079,"2-Propenoic acid, heptyl ester",341.05,1,C=CC(=O)OCCCCCCC,le15
4080,10-Undecen-1-ol,366.45,1,C=CCCCCCCCCCO,le15
4081,1-Undecanal,369.25,1,CCCCCCCCCCC=O,le15
4082,undecan-3-one,346.35,1,CCCCCCCCC(=O)CC,le15
4083,undecan-5-one,345.95,1,CCCCCCC(=O)CCCC,le15
4084,"Furan, tetrahydro-2-heptyl-",347.05,1,CCCCCCCC1CCCO1,le15
4085,2undecanone,362.0,1,CCCCCCCCCC(C)=O,le15
4086,6undecanone,361.0,1,CCCCCC(=O)CCCCC,le15
4087,"Cyclohexanemethanamine, 4-amino-alpha,alpha,4-trimethyl-",366.45,1,CC1(N)CCC(C(C)(C)N)CC1,le15
4088,"Cyclohexanemethanamine, 5-amino-1,3,3-trimethyl-",371.85,1,CC1(C)CC(N)CC(C)(CN)C1,le15
4089,3-methylundecane,334.95,1,CCCCCCCCC(C)CC,le15
4090,"Heptane, 2,2,4,6,6-pentamethyl-",331.55,1,CC(CC(C)(C)C)CC(C)(C)C,le15
4091,trimethyl(2-trimethylsilylethynyl)silane,290.25,1,C[Si](C)(C)C#C[Si](C)(C)C,le15
4092,4-methoxybenzoyl chloride,360.95,1,COc1ccc(C(=O)Cl)cc1,le15
4093,"Benzoic acid, p-chloro-, methyl ester (8CI)",379.85,1,COC(=O)c1ccc(Cl)cc1,le15
4094,"Benzeneacetic acid, 2-chloro- (9CI)",404.85,1,O=C(O)Cc1ccccc1Cl,le15
4095,methyl 3-chlorobenzoate,377.15,1,COC(=O)c1cccc(Cl)c1,le15
4096,"Acetophenone, 2-chloro-4'-hydroxy- (6CI,7CI)",430.85,1,O=C(CCl)c1ccc(O)cc1,le15
4097,"Carbonochloridic acid, phenylmethyl ester",280.15,1,O=C(Cl)OCc1ccccc1,le15
4098,"Acetic acid, (p-chlorophenyl)-",404.85,1,O=C(O)Cc1ccc(Cl)cc1,le15
4099,"Urea, (p-chlorophenyl)- (8CI)",391.25,1,NC(=O)Nc1ccc(Cl)cc1,le15
4100,3-chloropropoxybenzene,448.35,1,ClCCCOc1ccccc1,le15
4101,(2-chloroacetyl) 2-chloroacetate,355.95,1,O=C(CCl)OC(=O)CCl,le15
4102,"propan-2-yl 2,2-dichloroacetate",333.25,1,CC(C)OC(=O)C(Cl)Cl,le15
4103,"Benzene, 1-bromo-2-methyl-",351.15,1,Cc1ccccc1Br,le15
4104,"Benzene, (bromomethyl)-",359.81699999999995,1,BrCc1ccccc1,le15
4105,"Benzene, 1-bromo-3-methyl-",333.15,1,Cc1cccc(Br)c1,le15
4106,Benzylbromide,352.0,1,BrCc1ccccc1,le15
4107,"Ether, bis(2-chloro-1-methylethyl)",309.55,1,CC(CCl)OC(C)CCl,le15
4108,"alpha,alpha,alpha-Trifluoro-m-toluonitrile",345.35,1,N#Cc1cccc(C(F)(F)F)c1,le15
4109,"alpha,alpha,alpha-Trifluoro-2-toluonitrile",363.15,1,N#Cc1ccccc1C(F)(F)F,le15
4110,"2-Furancarboximidamide, N-hydroxy-5-nitro-",465.35,1,N=C(NO)c1ccc([N+](=O)[O-])o1,le15
4111,4-Fluoro-2-(methyloxy)-1-nitrobenzene,375.65,1,COc1cc(F)ccc1[N+](=O)[O-],le15
4112,"1H-Imidazole-1-ethanol, 2-methyl-5-nitro-",472.15,1,Cc1ncc([N+](=O)[O-])n1CCO,le15
4113,"Benzenesulfonamide, 2-methyl-",326.65,1,Cc1ccccc1S(N)(=O)=O,le15
4114,"1H-Carbazole, 2,3,4,9-tetrahydro- (9CI)",415.25,1,c1ccc2c3c([nH]c2c1)CCCC3,le15
4115,"2,4,6-trimethylquinoline",389.05,1,Cc1ccc2nc(C)cc(C)c2c1,le15
4116,"N,N-dimethylnaphthalen-2-amine",396.55,1,CN(C)c1ccc2ccccc2c1,le15
4117,N-ethylnaphthalen-2-amine,430.15,1,CCNc1ccc2ccccc2c1,le15
4118,"2-Propenoic acid, 2-(diethylamino)ethyl ester",347.05,1,C=CC(=O)OCCN(CC)CC,le15
4119,"Pentanamide, N,N-diethyl-4-oxo- (9CI)",383.85,1,CCN(CC)C(=O)CCC(C)=O,le15
4120,"3-(aminomethyl)-3,5,5-trimethylcyclohexan-1-ol",375.35,1,CC1(C)CC(O)CC(C)(CN)C1,le15
4121,"Piperazine, 1-(2-(dimethylamino)ethyl)-4-methyl-",347.65,1,CN(C)CCN1CCN(C)CC1,le15
4122,"4,5-dimethyl-2-(2-methylpropyl)-2,5-dihydro-1,3-thiazole",368.15,1,CC1=NC(CC(C)C)SC1C,le15
4123,1-Undecanamine,365.35,1,CCCCCCCCCCCN,le15
4124,2-bromopropanoyl chloride,324.15,1,CC(Br)C(=O)Cl,le15
4125,1-bromo-4-chlorobutane,333.15,1,ClCCCCBr,le15
4126,1-bromo-3-chloro-2-methylpropane,328.95,1,CC(CCl)CBr,le15
4127,1-chloro-4-methyl-2-nitrobenzene,387.05,1,Cc1ccc(Cl)c([N+](=O)[O-])c1,le15
4128,"Benzene, 1-(chloromethyl)-4-nitro-",403.85,1,O=[N+]([O-])c1ccc(CCl)cc1,le15
4129,2-chloro-1-methyl-4-nitrobenzene,382.25,1,Cc1ccc([N+](=O)[O-])cc1Cl,le15
4130,"Benzene, 1-(chloromethyl)-2-nitro- (9CI)",385.85,1,O=[N+]([O-])c1ccccc1CCl,le15
4131,"Benzene, 1-(chloromethyl)-3-nitro-",401.85,1,O=[N+]([O-])c1cccc(CCl)c1,le15
4132,1-chloro-2-methyl-4-nitrobenzene,383.75,1,Cc1cc([N+](=O)[O-])ccc1Cl,le15
4133,"Benzene, 1-chloro-2-methyl-3-nitro-",398.15,1,Cc1c(Cl)cccc1[N+](=O)[O-],le15
4134,"Toluene, 4-chloro-2-nitro- (8CI)",393.15,1,Cc1ccc(Cl)cc1[N+](=O)[O-],le15
4135,"Pyrimidine, 2-chloro-4-(dimethylamino)-6-methyl-",403.05,1,Cc1cc(N(C)C)nc(Cl)n1,le15
4136,"Ethanol, 2-iodo-",338.15,1,OCCI,le15
4137,"Benzonitrile, 2,6-dichloro-",399.95,1,N#Cc1c(Cl)cccc1Cl,le15
4138,"Benzenamine, 4-bromo-",363.55,1,Nc1ccc(Br)cc1,le15
4139,"Aniline, m-bromo- (8CI)",374.35,1,Nc1cccc(Br)c1,le15
4140,"Aniline, o-bromo- (8CI)",364.25,1,Nc1ccccc1Br,le15
4141,"1,4-Naphthalenedione, 2-methyl-",386.95,1,CC1=CC(=O)c2ccccc2C1=O,le15
4142,2-Naphthalenecarboxylic acid,424.45,1,O=C(O)c1ccc2ccccc2c1,le15
4143,"1-Naphthalenecarboxaldehyde, 2-hydroxy-",407.45,1,O=Cc1c(O)ccc2ccccc12,le15
4144,naphthalene-1-carboxylic acid,437.75,1,O=C(O)c1cccc2ccccc12,le15
4145,ethyl 2-acetyl-3-oxobutanoate,358.15,1,CCOC(=O)C(C(C)=O)C(C)=O,le15
4146,"1,2-Cyclohexanedicarboxylic acid, cis-",473.45,1,O=C(O)[C@H]1CCCC[C@H]1C(=O)O,le15
4147,"cyclohexane-1,4-dicarboxylic acid",508.15,1,O=C(O)C1CCC(C(=O)O)CC1,le15
4148,"2-Propene-1,1-diol, 2-methyl-, diacetate",356.45,1,C=C(C)C(OC(C)=O)OC(C)=O,le15
4149,DiethylFumarate,364.0,1,CC/C(C(=O)[O-])=C(/CC)C(=O)[O-],le15
4150,"1,1'-Biphenyl, 2-fluoro-",521.15,1,Fc1ccccc1-c1ccccc1,le15
4151,"Benzenesulfonic acid, methyl ester",416.15,1,COS(=O)(=O)c1ccccc1,le15
4152,"Benzenesulfonamide, 4-amino-",469.15,1,Nc1ccc(S(N)(=O)=O)cc1,le15
4153,Ethyl 2-naphthyl ether,400.15,1,CCOc1ccc2ccccc2c1,le15
4154,1-ethoxynaphthalene,382.55,1,CCOc1cccc2ccccc12,le15
4155,"3,5-dimethyl-1-phenylpyrazole",391.75,1,Cc1cc(C)n(-c2ccccc2)n1,le15
4156,ethyl 2-acetylpentanoate,355.55,1,CCCC(C(C)=O)C(=O)OCC,le15
4157,"Pentanoic acid, 4-oxo-, butyl ester",364.15,1,CCCCOC(=O)CCC(C)=O,le15
4158,2-methylpropyl 4-oxopentanoate,367.65,1,CC(=O)CCC(=O)OCC(C)C,le15
4159,"Acrylic acid, 2-butoxyethyl ester (8CI)",468.15,1,C=CC(=O)OCCOCCCC,le15
4160,ethyl 2-acetyl-3-methylbutanoate,352.05,1,CCOC(=O)C(C(C)=O)C(C)C,le15
4161,"Acetic acid, 2-ethylhexyl ester",344.55,1,CCCCC(CC)COC(C)=O,le15
4162,"Octanoic acid, ethyl ester",348.15,1,CCCCCCCC(=O)OCC,le15
4163,"1-Octanal, 3,7-dimethyl-7-hydroxy-",376.95,1,CC(CC=O)CCCC(C)(C)O,le15
4164,"Hexanoic acid, butyl ester",354.25,1,CCCCCC(=O)OCCCC,le15
4165,"Nonanoic acid, methyl ester",357.55,1,CCCCCCCCC(=O)OC,le15
4166,"Valeric acid, pentyl ester (8CI)",349.65,1,CCCCCOC(=O)CCCC,le15
4167,heptyl propanoate,352.95,1,CCCCCCCOC(=O)CC,le15
4168,"Propanoic acid, 2-methyl-, hexyl ester",346.45,1,CCCCCCOC(=O)C(C)C,le15
4169,"p-Menth-8-yl hydroperoxide (7CI,8CI)",326.15,1,CC1CCC(C(C)(C)OO)CC1,le15
4170,Decanoic acid,394.95,1,CCCCCCCCCC(=O)O,le15
4171,4-(2-hydroxypropan-2-yl)-1-methylcyclohexan-1-ol,392.15,1,CC1(O)CCC(C(C)(C)O)CC1,le15
4172,"Butanoic acid, 3-methyl-, 3-methylbutyl ester",339.85,1,CC(C)CCOC(=O)CC(C)C,le15
4173,"Butanoic acid, hexyl ester",354.25,1,CCCCCCOC(=O)CCC,le15
4174,"Nonylalcohol, formate (6CI)",360.65,1,CCCCCCCCCOC=O,le15
4175,propyl heptanoate,349.85,1,CCCCCCC(=O)OCCC,le15
4176,6-methylheptan-2-yl acetate,338.35,1,CC(=O)OC(C)CCCC(C)C,le15
4177,"1,1,3,3-tetraethylurea",360.15,1,CCN(CC)C(=O)N(CC)CC,le15
4178,Undecyl alcohol,386.15,1,CCCCCCCCCCCO,le15
4179,"Ether, decyl methyl",346.05,1,CCCCCCCCCCOC,le15
4180,undecan-6-ol,367.15,1,CCCCCC(O)CCCCC,le15
4181,undecan-5-ol,367.15,1,CCCCCCC(O)CCCC,le15
4182,2undecanol,380.0,1,CCCCCCCCCC(C)O,le15
4183,"N,N'-ditert-butylethane-1,2-diamine",349.85,1,CC(C)(C)NCCNC(C)(C)C,le15
4184,"Phosphorochloridic acid, diethyl ester",323.05,1,CCOP(=O)(Cl)OCC,le15
4185,"Benzoic acid, 5-chloro-2-hydroxy-",420.75,1,O=C(O)c1cc(Cl)ccc1O,le15
4186,"Benzenamine, 4-chloro-2-nitro-",413.65,1,Nc1ccc(Cl)cc1[N+](=O)[O-],le15
4187,"Benzenamine, 2-chloro-4-nitro-",424.25,1,Nc1ccc([N+](=O)[O-])cc1Cl,le15
4188,"Benzenamine, 4-chloro-3-nitro-",435.35,1,Nc1ccc(Cl)c([N+](=O)[O-])c1,le15
4189,"Benzenamine, 5-chloro-2-nitro- (9CI)",422.55,1,Nc1cc(Cl)ccc1[N+](=O)[O-],le15
4190,"Benzenamine, 2-chloro-5-nitro-",417.25,1,Nc1cc([N+](=O)[O-])ccc1Cl,le15
4191,"1-chloro-3,5-dimethoxybenzene",365.85,1,COc1cc(Cl)cc(OC)c1,le15
4192,"3-chloro-4,7,7-trimethylbicyclo[2.2.1]heptane",341.15,1,CC1(C)C2CCC1(C)C(Cl)C2,le15
4193,"Phenol, 2-bromo-",315.15,1,Oc1ccccc1Br,le15
4194,"Phenol, 4-bromo-",363.95,1,Oc1ccc(Br)cc1,le15
4195,"Phenol, 3-bromo-",364.25,1,Oc1cccc(Br)c1,le15
4196,5-Bromo-2-pyridylamine,366.55,1,Nc1ccc(Br)cn1,le15