,compound,flashpoint,pure substance,smiles,source
3064,(3-methylphenyl) acetate,358.35,1,CC(=O)Oc1cccc(C)c1,le15
3065,"Acetic acid, phenylmethyl ester",375.35,1,CC(=O)OCc1ccccc1,le15
3066,"Acetic acid, 4-methylphenyl ester",363.15,1,CC(=O)Oc1ccc(C)cc1,le15
3067,Hydrocinnamic acid (8CI),443.195,1,O=C(O)CCc1ccccc1,le15
3068,1-(3-methoxyphenyl)ethanone,364.35,1,COc1cccc(C(C)=O)c1,le15
3069,"2,4-dimethylbenzoic acid",404.45,1,Cc1ccc(C(=O)O)c(C)c1,le15
3070,2-ethoxybenzaldehyde,380.15,1,CCOc1ccccc1C=O,le15
3071,1-phenoxypropan-2-one,358.15,1,CC(=O)COc1ccccc1,le15
3072,(4-methylphenyl) acetate,446.65,1,CC(=O)Oc1ccc(C)cc1,le15
3073,"2,6-dimethylbenzoic acid",399.25,1,Cc1cccc(C)c1C(=O)O,le15
3074,"2,5-Cyclohexadiene-1,4-dione, 2,3,5-trimethyl-",350.45,1,CC1=CC(=O)C(C)=C(C)C1=O,le15
3075,"1,2-Benzenediol, 4-(2-propenyl)-",414.85,1,C=CCc1ccc(O)c(O)c1,le15
3076,1-(2-hydroxy-5-methylphenyl)ethanone,372.95,1,CC(=O)c1cc(C)ccc1O,le15
3077,2-methoxy-1-phenylethanone,368.05,1,COCC(=O)c1ccccc1,le15
3078,2-(4-methoxyphenyl)acetaldehyde,381.65,1,COc1ccc(CC=O)cc1,le15
3079,"Benzaldehyde, 4-ethoxy-",348.15,1,CCOc1ccc(C=O)cc1,le15
3080,3-ethoxybenzaldehyde,379.75,1,CCOc1cccc(C=O)c1,le15
3081,"Propane, 1,2-epoxy-3-phenoxy-",367.907,1,c1ccc(OCC2CO2)cc1,le15
3082,2-phenylpropanoic acid,421.15,1,CC(C(=O)O)c1ccccc1,le15
3083,(2-methylphenyl) acetate,357.15,1,CC(=O)Oc1ccccc1C,le15
3084,"Acetic acid, 2-phenylhydrazide",360.95,1,CC(=O)NNc1ccccc1,le15
3085,"Benzenamine, N,N-dimethyl-4-nitroso-",383.45,1,CN(C)c1ccc(N=O)cc1,le15
3086,"Urea, (phenylmethyl)- (9CI)",398.05,1,NC(=O)NCc1ccccc1,le15
3087,"Acetic acid, phenyl-, hydrazide (8CI)",447.65,1,NNC(=O)Cc1ccccc1,le15
3088,N-Methyl-N-nitroso-benzenemethanamine,407.25,1,CN(Cc1ccccc1)N=O,le15
3089,"Urea, N-methyl-N'-phenyl- (9CI)",372.05,1,CNC(=O)Nc1ccccc1,le15
3090,"Ethanol, 2,2'-(1,2-ethanediylbis(oxy))bis-",438.75,1,OCCOCCOCCO,le15
3091,"Benzothiazole, 2-amino-",412.95,1,Nc1nc2ccccc2s1,le15
3092,"Benzothiazole, 6-amino-",422.35,1,Nc1ccc2ncsc2c1,le15
3093,"2H-Benzimidazole-2-thione, 1,3-dihydro-",390.65,1,S=c1[nH]c2ccccc2[nH]1,le15
3094,"Butanoic acid, 2-hydroxy-4-(methylthio)-",418.35,1,CSCCC(O)C(=O)O,le15
3095,"Propionic acid, 2-methyl-2-(methylsulfinyl)-",441.35,1,CS(=O)C(C)(C)C(=O)O,le15
3096,"Phenol, 2-(1,1-dimethylethyl)-",383.15,1,CC(C)(C)c1ccccc1O,le15
3097,"Phenol, 2-(1-methylpropyl)-",385.15,1,CCC(C)c1ccccc1O,le15
3098,"Phenol, 5-methyl-2-(1-methylethyl)-",374.15,1,Cc1ccc(C(C)C)c(O)c1,le15
3099,"Phenol, 4-(1,1-dimethylethyl)-",384.05,1,CC(C)(C)c1ccc(O)cc1,le15
3100,"2-Cyclohexen-1-one, 2-methyl-5-(1-methylethenyl)-",362.05,1,C=C(C)C1CC=C(C)C(=O)C1,le15
3101,"Phenol, 4-(1-methylpropyl)-",388.75,1,CCC(C)c1ccc(O)cc1,le15
3102,"Phenethyl alcohol, alpha,alpha-dimethyl-",354.25,1,CC(C)(O)Cc1ccccc1,le15
3103,"Benzene, 1-methoxy-4-propyl-",363.15,1,CCCc1ccc(OC)cc1,le15
3104,"2,3,4,5-tetramethylphenol",389.75,1,Cc1cc(O)c(C)c(C)c1C,le15
3105,"p-Mentha-3,8-diene, 3,9-epoxy- (8CI)",348.65,1,Cc1coc2c1CCC(C)C2,le15
3106,"Phenol, 2-methyl-5-(1-methylethyl)-",379.85,1,Cc1ccc(C(C)C)cc1O,le15
3107,"2,3,5,6-tetramethylphenol",384.75,1,Cc1cc(C)c(C)c(O)c1C,le15
3108,"Benzenemethanol, 4-(1-methylethyl)-",379.15,1,CC(C)c1ccc(CO)cc1,le15
3109,3-(4-methylpent-3-enyl)furan,329.05,1,CC(C)=CCCc1ccoc1,le15
3110,"Bicyclo(3.1.1)hept-2-ene-2-carboxaldehyde, 6,6-dimethyl-",352.05,1,CC1(C)C2CC=C(C=O)C1C2,le15
3111,"Phenol, 3-(1,1-dimethylethyl)-",382.65,1,CC(C)(C)c1cccc(O)c1,le15
3112,"Tricyclo(3.3.1.13,7)decanone (9CI)",368.85,1,O=C1C2CC3CC(C2)CC1C3,le15
3113,n-Butyl phenyl ether,355.15,1,CCCCOc1ccccc1,le15
3114,"(1S,5S)-2,6,6-trimethylbicyclo[3.1.1]hept-2-en-4-one",358.15,1,CC1=CC(=O)[C@H]2C[C@@H]1C2(C)C,le15
3115,"Benzenemethanol, alpha-ethyl-alpha-methyl-",363.75,1,CCC(C)(O)c1ccccc1,le15
3116,1-ethoxy-4-ethylbenzene,355.45,1,CCOc1ccc(CC)cc1,le15
3117,2-methyl-4-propan-2-ylphenol,377.25,1,Cc1cc(C(C)C)ccc1O,le15
3118,4-prop-1-en-2-ylcyclohexene-1-carbaldehyde,368.75,1,C=C(C)C1CC=C(C=O)CC1,le15
3119,"2-Cyclohexen-1-one, 2-methyl-5-(1-methylethenyl)-, (5S)-",370.15,1,C=C(C)[C@H]1CC=C(C)C(=O)C1,le15
3120,"Benzenepropanol, gamma-methyl-",375.25,1,CC(CCO)c1ccccc1,le15
3121,3-methyl-4-propan-2-ylphenol,377.25,1,Cc1cc(O)ccc1C(C)C,le15
3122,2-methyl-6-propan-2-ylphenol,368.75,1,Cc1cccc(C(C)C)c1O,le15
3123,"2,3,4,6-tetramethylphenol",383.95,1,Cc1cc(C)c(O)c(C)c1C,le15
3124,"4,7-Methano-1H-inden-6-ol, 3a,4,5,6,7,7a-hexahydro-",363.35,1,OC1CC2CC1C1CC=CC21,le15
3125,4-methyl-2-propan-2-ylphenol,371.25,1,Cc1ccc(O)c(C(C)C)c1,le15
3126,"2-Cyclohexen-1-one, 2-methyl-5-(1-methylethenyl)-, (R)- (9CI)",361.15,1,C=C(C)[C@@H]1CC=C(C)C(=O)C1,le15
3127,butan-2-yloxybenzene,344.75,1,CCC(C)Oc1ccccc1,le15
3128,"Benzenemethanol, alpha,alpha,4-trimethyl-",375.85,1,Cc1ccc(C(C)(C)O)cc1,le15
3129,4-butylphenol,394.65,1,CCCCc1ccc(O)cc1,le15
3130,4-phenylbutan-2-ol,383.15,1,CC(O)CCc1ccccc1,le15
3131,3-methyl-5-propan-2-ylphenol,381.45,1,Cc1cc(O)cc(C(C)C)c1,le15
3132,"1-Butanol, 4-phenyl- (8CI)",387.45,1,OCCCCc1ccccc1,le15
3133,3-butylphenol,395.85,1,CCCCc1cccc(O)c1,le15
3134,"2,6,6-trimethylbicyclo[3.1.1]hept-2-en-4-one",358.15,1,CC1=CC(=O)C2CC1C2(C)C,le15
3135,2-methyl-5-propan-2-ylbicyclo[3.1.0]hex-2-en-4-one,358.35,1,CC1=CC(=O)C2(C(C)C)CC12,le15
3136,Carvacrol,379.0,1,Cc1ccc(C(C)C)cc1O,le15
3137,"Hydrazine, (1-methyl-2-phenylethyl)- (9CI)",421.15,1,CC(Cc1ccccc1)NN,le15
3138,"2,4-Mesitylenediamine (7CI,8CI)",431.55,1,Cc1cc(C)c(N)c(C)c1N,le15
3139,(Allylthio)benzene,351.968,1,C=CCSc1ccccc1,le15
3140,Propyl sulfone (8CI),398.95,1,CCCS(=O)(=O)CCC,le15
3141,"3H-1,2,4-Dithiazole-3-thione, 5-amino- (8CI)(9CI)",397.15,1,Nc1nc(=S)ss1,le15
3142,ethyl(trimethoxy)silane,297.35,1,CC[Si](OC)(OC)OC,le15
3143,trimethyl(phenyl)silane,317.15,1,C[Si](C)(C)c1ccccc1,le15
3144,Propyl disulfide (8CI),339.25,1,CCCSSCCC,le15
3145,"Hexane-1,6-dithiol",363.75,1,SCCCCCCS,le15
3146,"1,2-Bis(ethylthio)ethane",354.35,1,CCSCCSCC,le15
3147,Isopropyl disulfide (8CI),291.45,1,CC(C)SSC(C)C,le15
3148,"Acetic acid, chloro-, 1,1-dimethylethyl ester",314.55,1,CC(C)(C)OC(=O)CCl,le15
3149,butyl 2-chloroacetate,353.05,1,CCCCOC(=O)CCl,le15
3150,"Butyric acid, 4-chloro-, ethyl ester (8CI)",324.85,1,CCOC(=O)CCCCl,le15
3151,"Hexanoic acid, 6-chloro-",380.75,1,O=C(O)CCCCCCl,le15
3152,"1,3-Dioxolane, 4-(chloromethyl)-2,2-dimethyl-",327.65,1,CC1(C)OCC(CCl)O1,le15
3153,propan-2-yl 2-chloropropanoate,317.85,1,CC(C)OC(=O)C(C)Cl,le15
3154,butyl-chloro-dimethylsilane,303.25,1,CCCC[Si](C)(C)Cl,le15
3155,3-chloropropyl(trimethyl)silane,303.65,1,C[Si](C)(C)CCCCl,le15
3156,2-bromopentane,293.75,1,CCCC(C)Br,le15
3157,(2S)-1-bromo-2-methylbutane,295.35,1,CC[C@H](C)CBr,le15
3158,3-bromopentane,304.45,1,CCC(Br)CC,le15
3159,1-bromo-3-methylbutane,305.35,1,CC(C)CCBr,le15
3160,"Propane, 1-bromo-2,2-dimethyl-",279.85,1,CC(C)(C)CBr,le15
3161,"2,3,5,6-tetrafluoropyridine",303.75,1,Fc1cc(F)c(F)nc1F,le15
3162,"Benzaldehyde, 3-nitro-",401.75,1,O=Cc1cccc([N+](=O)[O-])c1,le15
3163,"Benzaldehyde, 4-nitro-",428.35,1,O=Cc1ccc([N+](=O)[O-])cc1,le15
3164,"Benzaldehyde, 2-nitro-",417.15,1,O=Cc1ccccc1[N+](=O)[O-],le15
3165,"1,3-Propanediol, 2-(hydroxymethyl)-2-nitro-",482.45,1,O=[N+]([O-])C(CO)(CO)CO,le15
3166,"Benzene, 1,3-dimethyl-2-nitro-",360.95,1,Cc1cccc(C)c1[N+](=O)[O-],le15
3167,"Benzene, 1,2-dimethyl-3-nitro-",380.95,1,Cc1cccc([N+](=O)[O-])c1C,le15
3168,"Benzene, 1,4-dimethyl-2-nitro-",373.15,1,Cc1ccc(C)c([N+](=O)[O-])c1,le15
3169,"m-Xylene, 4-nitro- (8CI)",394.15,1,Cc1ccc([N+](=O)[O-])c(C)c1,le15
3170,"o-Xylene, 4-nitro- (8CI)",394.65,1,Cc1ccc([N+](=O)[O-])cc1C,le15
3171,"Benzene, 1-ethyl-4-nitro-",380.85,1,CCc1ccc([N+](=O)[O-])cc1,le15
3172,"Acetamide, N-(4-hydroxyphenyl)-",461.55,1,CC(=O)Nc1ccc(O)cc1,le15
3173,"Acetamide, N-(3-hydroxyphenyl)-",458.35,1,CC(=O)Nc1cccc(O)c1,le15
3174,"Acetamide, 2-phenoxy-",474.05,1,NC(=O)COc1ccccc1,le15
3175,"Acetic acid, (p-aminophenyl)-",435.05,1,Nc1ccc(CC(=O)O)cc1,le15
3176,ethyl pyridine-4-carboxylate,362.15,1,CCOC(=O)c1ccncc1,le15
3177,"Acetamide, N-hydroxy-N-phenyl-",389.95,1,CC(=O)N(O)c1ccccc1,le15
3178,"Benzamide, 2-methoxy- (9CI)",428.85,1,COc1ccccc1C(N)=O,le15
3179,3-Amino-p-toluic acid,446.45,1,Cc1ccc(C(=O)O)c(N)c1,le15
3180,ethyl pyridine-2-carboxylate,380.35,1,CCOC(=O)c1ccccn1,le15
3181,4-methoxybenzamide,434.65,1,COc1ccc(C(N)=O)cc1,le15
3182,2-nitroethylbenzene,391.95,1,O=[N+]([O-])CCc1ccccc1,le15
3183,"m-Xylene, 5-nitro- (8CI)",384.55,1,Cc1cc(C)cc([N+](=O)[O-])c1,le15
3184,"Benzoic acid, 2-amino-, methyl ester",386.05,1,COC(=O)c1ccccc1N,le15
3185,ethyl pyridine-3-carboxylate,366.15,1,CCOC(=O)c1cccnc1,le15
3186,"Benzene, 1-ethoxy-4-nitroso-",388.25,1,CCOc1ccc(N=O)cc1,le15
3187,"1,2-Benzisothiazol-3(2H)-one",350.65,1,O=c1[nH]sc2ccccc12,le15
3188,"3H-1,3-benzothiazol-2-one",444.65,1,O=c1[nH]c2ccccc2s1,le15
3189,"Ethanol, 2-(methylphenylamino)-",399.85,1,CN(CCO)c1ccccc1,le15
3190,"Phenol, 3-(ethylamino)-4-methyl-",412.85,1,CCNc1cc(O)ccc1C,le15
3191,"2-methoxy-N,N-dimethylaniline",332.35,1,COc1ccccc1N(C)C,le15
3192,"Pyridine, 5-ethyl-2-hydroxyethyl-",383.85,1,CCc1ccc(CCO)nc1,le15
3193,"Tricyclo(3.3.1.1(sup 3,7))decan-1-amine",369.15,1,NC12CC3CC(CC(C3)C1)C2,le15
3194,"1,1,1-trichloro-2-fluoroethane",279.35,1,FCC(Cl)(Cl)Cl,le15
3195,"1,1,2-trichloro-2-fluoroethane",283.35,1,FC(Cl)C(Cl)Cl,le15
3196,"Acetonitrile, (p-chlorophenyl)-",406.15,1,N#CCc1ccc(Cl)cc1,le15
3197,2-(chloromethyl)benzonitrile,379.35,1,N#Cc1ccccc1CCl,le15
3198,4-(Chloromethyl)benzonitrile,393.35,1,N#Cc1ccc(CCl)cc1,le15
3199,2-(2-chlorophenyl)acetonitrile,380.85,1,N#CCc1ccccc1Cl,le15
3200,"Benzonitrile, 2-chloro-6-methyl-",383.25,1,Cc1cccc(Cl)c1C#N,le15
3201,"Propanamide, 2-bromo- (9CI)",377.15,1,CC(Br)C(N)=O,le15
3202,"7H-1,2,3-Triazolo(4,5-d)pyrimidin-7-one, 5-amino-1,4-dihydro- (9CI)",402.25,1,Nc1nc(=O)c2[nH]nnc2[nH]1,le15
3203,"Benzoxazole, 2-amino-5-fluoro-",398.05,1,Nc1nc2cc(F)ccc2o1,le15
3204,1-[ethoxy(methyl)phosphoryl]oxyethane,348.75,1,CCOP(C)(=O)OCC,le15
3205,"Phosphonic acid, ethyl-, ethyl methyl ester",353.15,1,CCOP(=O)(CC)OC,le15
3206,"Benzoic acid, 2-hydroxy-3-methyl-",418.55,1,Cc1cccc(C(=O)O)c1O,le15
3207,4-methoxybenzoic acid,388.61,1,COc1ccc(C(=O)O)cc1,le15
3208,"Benzoic acid, 2-hydroxy-, methyl ester",359.95,1,COC(=O)c1ccccc1O,le15
3209,"Benzaldehyde, 4-hydroxy-3-methoxy-",390.75,1,COc1cc(C=O)ccc1O,le15
3210,"Acetic acid, phenoxy-",388.25,1,O=C(O)COc1ccccc1,le15
3211,"m-Anisaldehyde, 2-hydroxy- (8CI)",367.15,1,COc1cccc(C=O)c1O,le15
3212,2-(2-hydroxyphenyl)acetic acid,435.75,1,O=C(O)Cc1ccccc1O,le15
3213,"p-Anisaldehyde, 3-hydroxy- (8CI)",393.05,1,COc1ccc(C=O)cc1O,le15
3214,2-hydroxy-5-methoxybenzaldehyde,381.25,1,COc1ccc(O)c(C=O)c1,le15
3215,methyl 3-hydroxybenzoate,399.85,1,COC(=O)c1cccc(O)c1,le15
3216,"Ethanone, 1-(2,4-dihydroxyphenyl)-",434.25,1,CC(=O)c1ccc(O)cc1O,le15
3217,Xylitol,535.05,1,OC[C@H](O)[C@@H](O)[C@H](O)CO,le15
3218,"Benzenamine, 4-methyl-2-nitro-",410.15,1,Cc1ccc(N)c([N+](=O)[O-])c1,le15
3219,"Benzenamine, 2-methyl-4-nitro-",430.35,1,Cc1cc([N+](=O)[O-])ccc1N,le15
3220,"Benzenamine, 4-methyl-3-nitro-",412.05,1,Cc1ccc(N)cc1[N+](=O)[O-],le15
3221,"Benzenamine, 2-methyl-6-nitro- (9CI)",409.25,1,Cc1cccc([N+](=O)[O-])c1N,le15
3222,5-Methyl-o-nitroaniline,415.95,1,Cc1ccc([N+](=O)[O-])c(N)c1,le15
3223,"Benzenamine, 2-methyl-3-nitro- (9CI)",411.25,1,Cc1c(N)cccc1[N+](=O)[O-],le15
3224,"Benzoic acid, 4-hydrazinyl-",455.05,1,NNc1ccc(C(=O)O)cc1,le15
3225,"Benzenamine, 2-methyl-5-nitro-",426.15,1,Cc1ccc([N+](=O)[O-])cc1N,le15
3226,"Aniline, N-methyl-p-nitro- (8CI)",402.65,1,CNc1ccc([N+](=O)[O-])cc1,le15
3227,"6H-Purine-6-thione, 1,7-dihydro- (9CI)",528.55,1,S=c1[nH]cnc2nc[nH]c12,le15
3228,"Hydroperoxide, alpha,alpha-dimethylbenzyl-",329.25,1,CC(C)(OO)c1ccccc1,le15
3229,"Ethanol, 2-(phenylmethoxy)-",383.15,1,OCCOCc1ccccc1,le15
3230,"1,4-Benzenediol, 2,3,5-trimethyl-",464.15,1,Cc1cc(O)c(C)c(C)c1O,le15
3231,4-ethyl-2-methoxyphenol,380.85,1,CCc1ccc(O)c(OC)c1,le15
3232,"Indan, 1,2:5,6-diepoxyhexahydro-",391.45,1,C1C2CC3OC3C2CC2OC12,le15
3233,"1,3-dimethoxy-5-methylbenzene",374.85,1,COc1cc(C)cc(OC)c1,le15
3234,"1,2-dimethoxy-3-methylbenzene",340.75,1,COc1cccc(C)c1OC,le15
3235,"2,6-Dimethoxytoluene",369.85,1,COc1cccc(OC)c1C,le15
3236,1-(2-methoxyphenyl)ethanol,383.95,1,COc1ccccc1C(C)O,le15
3237,"1,2-dimethoxy-4-methylbenzene",358.15,1,COc1ccc(C)cc1OC,le15
3238,"4-propan-2-ylbenzene-1,2-diol",402.35,1,CC(C)c1ccc(O)c(O)c1,le15
3239,"1-Propanol, 2-phenoxy-",377.55,1,CC(CO)Oc1ccccc1,le15
3240,2-propoxyphenol,370.35,1,CCCOc1ccccc1O,le15
3241,"4(1H)-Pyrimidinone, 6-methyl-2-(1-methylethyl)-",366.35,1,Cc1cc(=O)nc(C(C)C)[nH]1,le15
3242,"Toluene-2,5-diamine, 4-methoxy-",433.45,1,COc1cc(N)c(C)cc1N,le15
3243,"1,3-Benzenediamine, 4-ethoxy- (9CI)",439.55,1,CCOc1ccc(N)cc1N,le15
3244,"4-ethoxybenzene-1,2-diamine",436.95,1,CCOc1ccc(N)c(N)c1,le15
3245,"Urea, 1-phenyl-2-thio-",388.25,1,NC(=S)Nc1ccccc1,le15
3246,"Methanesulfonic acid, butyl ester",375.15,1,CCCCOS(C)(=O)=O,le15
3247,tetramethyl silicate,302.05,1,CO[Si](OC)(OC)OC,le15
3248,"Bicyclo(2.2.1)heptan-2-one, 1,7,7-trimethyl-",337.55,1,CC12CCC(CC1=O)C2(C)C,le15
3249,"2-Cyclohexen-1-one, 3-methyl-6-(1-methylethyl)-",364.05,1,CC1=CC(=O)C(C(C)C)CC1,le15
3250,"2-Cyclohexen-1-ol, 2-methyl-5-(1-methylethenyl)-",364.35,1,C=C(C)C1CC=C(C)C(O)C1,le15
3251,"Bicyclo(2.2.1)heptan-2-one, 1,7,7-trimethyl-, (1S,4S)-",337.55,1,CC1(C)[C@H]2CC[C@]1(C)C(=O)C2,le15
3252,"(1S,3R,5S)-2-methylidene-5-propan-2-ylbicyclo[3.1.0]hexan-3-ol",356.85,1,C=C1[C@H]2C[C@@]2(C(C)C)C[C@H]1O,le15
3253,"6,6-Dimethyl-2-(hydroxymethyl)bicyclo[3.1.1]hept-2-ene",362.55,1,CC1(C)C2CC=C(CO)C1C2,le15
3254,"Bicyclo(3.1.0)hexan-3-one, 4-methyl-1-(1-methylethyl)-, (1S,4R,5R)-",337.55,1,CC(C)[C@]12CC(=O)[C@H](C)[C@H]1C2,le15
3255,"Bicyclo(2.2.1)heptan-2-one, 1,3,3-trimethyl-",325.95,1,CC12CCC(C1)C(C)(C)C2=O,le15
3256,"2H-Pyran, 3,6-dihydro-4-methyl-2-(2-methylpropenyl)- (7CI)",343.95,1,CC(C)=CC1CC(C)=CCO1,le15
3257,"4,7,7-trimethyl-6-oxabicyclo[3.2.1]oct-3-ene",336.35,1,CC1=CCC2CC1OC2(C)C,le15
3258,"Cyclopentanone, 2-(3-methyl-2-buten-1-yl)-",353.65,1,CC(C)=CCC1CCCC1=O,le15
3259,"Bicyclo(2.2.1)heptan-2-one, 1,3,3-trimethyl-, (1S,4R)-",325.95,1,CC1(C)C(=O)[C@@]2(C)CC[C@@H]1C2,le15
3260,2-cyclopentylcyclopentan-1-one,363.45,1,O=C1CCCC1C1CCCC1,le15
3261,"Cyclohexanone, 2-methyl-5-(1-methylethenyl)-",354.25,1,C=C(C)C1CCC(C)C(=O)C1,le15
3262,"4,7,7-trimethylbicyclo[2.2.1]heptan-2-one",342.45,1,CC12CCC(C(=O)C1)C2(C)C,le15
3263,4-propan-2-ylcyclohexene-1-carbaldehyde,356.75,1,CC(C)C1CC=C(C=O)CC1,le15
3264,"2,6-Octadienal, 3,7-dimethyl-, (2E)-",374.85,1,CC(C)=CCC/C(C)=C/C=O,le15
3265,"1-Cyclohexene-1-methanol, 4-(1-methylethenyl)-",372.75,1,C=C(C)C1CC=C(CO)CC1,le15
3266,"Spiro(bicyclo(3.1.1)heptane-2,2'-oxirane), 6,6-dimethyl-",339.15,1,CC1(C)C2CCC3(CO3)C1C2,le15
3267,"(1R,4S,5S)-4,6,6-trimethylbicyclo[3.1.1]heptan-3-one",345.95,1,C[C@@H]1C(=O)C[C@H]2C[C@@H]1C2(C)C,le15
3268,Camphor,339.0,1,CC12CCC(CC1=O)C2(C)C,le15
3269,1-ethylsulfanyl-4-methylbenzene,359.15,1,CCSc1ccc(C)cc1,le15
3270,propan-2-ylsulfanylbenzene,356.35,1,CC(C)Sc1ccccc1,le15
3271,Spiro(5.5)undecane,344.95,1,C1CCC2(CC1)CCCCC2,le15
3272,undec-5-yne,338.75,1,CCCCC#CCCCCC,le15
3273,undec-4-yne,338.75,1,CCCC#CCCCCCC,le15
3274,1undecyne,338.0,1,C#CCCCCCCCCC,le15
3275,"Benzonitrile, 2-amino-5-chloro-",402.85,1,N#Cc1cc(Cl)ccc1N,le15
3276,"Benzene, 1-chloro-4-(1-methylethenyl)-",347.039,1,C=C(C)c1ccc(Cl)cc1,le15
3277,[(E)-3-chloroprop-2-enyl]benzene,562.05,1,Cl/C=C/Cc1ccccc1,le15
3278,"2-chloro-1,1-diethoxyethane",302.55,1,CCOC(CCl)OCC,le15
3279,"2-Butenedioyl dichloride, (2E)-",346.15,1,O=C(Cl)/C=C/C(=O)Cl,le15
3280,methyl 2-bromoacetate,335.95,1,COC(=O)CBr,le15
3281,"Propanoic acid, 3-bromo-",371.85,1,O=C(O)CCBr,le15
3282,2-bromopropanoic acid,349.45,1,CC(Br)C(=O)O,le15
3283,1-bromo-2-ethoxyethane,294.15,1,CCOCCBr,le15
3284,"2,5-dichlorothiophene",332.55,1,Clc1ccc(Cl)s1,le15
3285,"trans-1,2-Dichlorocyclohexane",339.25,1,Cl[C@@H]1CCCC[C@H]1Cl,le15
3286,"1,1-dichlorocyclohexane",339.15,1,ClC1(Cl)CCCCC1,le15
3287,"(1R,2S)-1,2-dichlorocyclohexane",339.25,1,Cl[C@H]1CCCC[C@H]1Cl,le15
3288,"Benzoic acid, 5-amino-2-hydroxy-",471.25,1,Nc1ccc(O)c(C(=O)O)c1,le15
3289,"Benzene, 1-methoxy-4-nitro-",407.75,1,COc1ccc([N+](=O)[O-])cc1,le15
3290,"Phenol, 4-methyl-2-nitro-",381.15,1,Cc1ccc(O)c([N+](=O)[O-])c1,le15
3291,"Anthranilic acid, 3-hydroxy- (8CI)",442.75,1,Nc1c(O)cccc1C(=O)O,le15
3292,"Benzenemethanol, 2-nitro- (9CI)",404.25,1,O=[N+]([O-])c1ccccc1CO,le15
3293,"Benzenemethanol, 3-nitro-",419.35,1,O=[N+]([O-])c1cccc(CO)c1,le15
3294,"Benzenemethanol, 4-nitro-",421.25,1,O=[N+]([O-])c1ccc(CO)cc1,le15
3295,"Phenol, 5-methyl-2-nitro-",382.15,1,Cc1ccc([N+](=O)[O-])c(O)c1,le15
3296,3-Nitro-p-cresol,398.35,1,Cc1ccc(O)cc1[N+](=O)[O-],le15
3297,"Phenol, 3-methyl-4-nitro-",383.15,1,Cc1cc(O)ccc1[N+](=O)[O-],le15
3298,"Phenol, 3-methyl-2-nitro- (9CI)",380.15,1,Cc1cccc(O)c1[N+](=O)[O-],le15
3299,"Phenol, 2-methyl-5-nitro-",407.35,1,Cc1ccc([N+](=O)[O-])cc1O,le15
3300,3-Nitro-o-cresol,394.95,1,Cc1c(O)cccc1[N+](=O)[O-],le15
3301,"Benzene, 1-methoxy-2-nitro-",415.15,1,COc1ccccc1[N+](=O)[O-],le15
3302,"1,2-Benzenediamine, 4-nitro-",481.65,1,Nc1ccc([N+](=O)[O-])cc1N,le15
3303,"Hydrazine, (4-nitrophenyl)-",434.95,1,NNc1ccc([N+](=O)[O-])cc1,le15
3304,"1,4-Benzenediamine, 2-nitro-",460.05,1,Nc1ccc(N)c([N+](=O)[O-])c1,le15
3305,"1,2-Benzenediamine, 3-nitro- (9CI)",450.55,1,Nc1cccc([N+](=O)[O-])c1N,le15
3306,"1,3-Benzenediamine, 4-nitro-",487.15,1,Nc1ccc([N+](=O)[O-])c(N)c1,le15
3307,"Acetamide, 2-fluoro-N-phenyl- (9CI)",418.25,1,O=C(CF)Nc1ccccc1,le15
3308,naphthalene-1-carbonitrile,413.85,1,N#Cc1cccc2ccccc12,le15
3309,1-fluoro-3-isothiocyanatobenzene,358.15,1,Fc1cccc(N=C=S)c1,le15
3310,1-fluoro-4-isothiocyanatobenzene,362.55,1,Fc1ccc(N=C=S)cc1,le15
3311,"2,5-dimethoxyaniline",403.25199999999995,1,COc1ccc(OC)c(N)c1,le15
3312,"Benzyl alcohol, alpha-(aminomethyl)-m-hydroxy-",445.15,1,NCC(O)c1cccc(O)c1,le15
3313,"2,4-Dimethoxyaniline hydrochloride",397.95,1,COc1ccc(N)c(OC)c1.Cl,le15
3314,"Benzenemethanol, alpha-(aminomethyl)-4-hydroxy-",445.15,1,NCC(O)c1ccc(O)cc1,le15
3315,9-methyl-9-azabicyclo[3.3.1]nonan-3-one,369.05,1,CN1C2CCCC1CC(=O)C2,le15
3316,decanenitrile,365.15,1,CCCCCCCCCC#N,le15
3317,"Isocyanic acid, m-chlorophenyl ester",355.15,1,O=C=Nc1cccc(Cl)c1,le15
3318,1-chloro-2-isocyanatobenzene,361.15,1,O=C=Nc1ccccc1Cl,le15
3319,"2-chloro-1,3-benzoxazole",358.15,1,Clc1nc2ccccc2o1,le15
3320,iodoethene,279.35,1,C=CI,le15
3321,"1,1,1-trifluoropentane-2,4-dione",299.25,1,CC(=O)CC(=O)C(F)(F)F,le15
3322,"Benzoic acid, 2,4-dihydroxy-",491.95,1,O=C(O)c1ccc(O)cc1O,le15
3323,"Benzoic acid, 3,4-dihydroxy- (9CI)",489.45,1,O=C(O)c1ccc(O)c(O)c1,le15
3324,"4,6-Dihydro-4-hydroxy-2H-furo(3,2-c)pyran-2-one",499.95,1,O=C1C=C2C(=CCOC2O)O1,le15
3325,"Benzoic acid, 2,5-dihydroxy-",487.15,1,O=C(O)c1cc(O)ccc1O,le15
3326,"Benzaldehyde, 2,3,4-trihydroxy-",423.75,1,O=Cc1ccc(O)c(O)c1O,le15
3327,"Benzaldehyde, 2,4,6-trihydroxy-",434.15,1,O=Cc1c(O)cc(O)cc1O,le15
3328,"Phenol, 2-amino-4-nitro-",449.55,1,Nc1cc([N+](=O)[O-])ccc1O,le15
3329,"Phenol, 4-amino-2-nitro-",429.25,1,Nc1ccc(O)c([N+](=O)[O-])c1,le15
3330,2-Amino-3-nitrophenol,417.95,1,Nc1c(O)cccc1[N+](=O)[O-],le15
3331,2-Nitro-6-aminophenol,396.45,1,Nc1cccc([N+](=O)[O-])c1O,le15
3332,"Phosphorodiamidic fluoride, tetramethyl-",321.85,1,CN(C)P(=O)(F)N(C)C,le15
3333,"Aniline, p-fluoro-N-methyl-N-nitroso-",391.25,1,CN(N=O)c1ccc(F)cc1,le15
3334,"Phenol, 2,6-dimethoxy-",373.05,1,COc1cccc(OC)c1O,le15
3335,"Benzenemethanol, 4-hydroxy-3-methoxy-",416.35,1,COc1cc(CO)ccc1O,le15
3336,"Phenol, 3,5-dimethoxy- (8CI)(9CI)",351.15,1,COc1cc(O)cc(OC)c1,le15
3337,furan-2-ylmethyl propanoate,354.85,1,CCC(=O)OCc1ccco1,le15
3338,"2-Butenoic acid, anhydride",383.75,1,CC=CC(=O)OC(=O)C=CC,le15
3339,"Propanedinitrile, (phenylmethylene)- (9CI)",411.15,1,N#CC(C#N)=Cc1ccccc1,le15
3340,"Cinchoninonitrile(6CI,7CI,8CI)",368.35,1,N#Cc1ccnc2ccccc12,le15
3341,"2-Propenamide, N,N'-methylenebis-",488.15,1,C=CC(=O)NCNC(=O)C=C,le15
3342,"Phosphonothioic acid, ethyl-, O-ethyl ester",354.05,1,CCOP([O-])(=S)CC,le15
3343,"1,3,5-Triazin-2-amine, 4-methoxy-N,6-dimethyl-",411.35,1,CNc1nc(C)nc(OC)n1,le15