,compound,flashpoint,pure substance,smiles,source
1823,"2-Propenoic acid, 2-methyl-, 1-methylethyl ester",304.15,1,C=C(C)C(=O)OC(C)C,le15
1824,"Crotonic acid, 2-methyl-, ethyl ester, (E)- (8CI)",317.15,1,C/C=C(\C)C(=O)OCC,le15
1825,"3,5-Heptanedione",336.55,1,CCC(=O)CC(=O)CC,le15
1826,"3,3-diethoxyprop-1-yne",305.35,1,C#CC(OCC)OCC,le15
1827,"2,3-Hexanedione, 5-methyl-",306.15,1,CC(=O)C(=O)CC(C)C,le15
1828,ethyl cyclobutanecarboxylate,316.35,1,CCOC(=O)C1CCC1,le15
1829,"3,4-Dihydro-2H-pyran-2-yl ethyl ether",297.55,1,CCOC1CCC=CO1,le15
1830,"2-Butenoic acid, 3-methyl-, ethyl ester",307.05,1,CCOC(=O)C=C(C)C,le15
1831,"4H-Pyran-4-one, tetrahydro-2,6-dimethyl-",338.65,1,CC1CC(=O)CC(C)O1,le15
1832,"3-ethylpentane-2,4-dione",333.35,1,CCC(C(C)=O)C(C)=O,le15
1833,"Acrylic acid, tert-butyl ester (8CI)",304.75,1,C=CC(=O)OC(C)(C)C,le15
1834,"Butanoic acid, 2-propenyl ester",314.85,1,C=CCOC(=O)CCC,le15
1835,(E)-hept-2-enoic acid,406.55,1,CCCC/C=C/C(=O)O,le15
1836,butyl2propenoat,310.0,1,C=CC(=O)OCCCC,le15
1837,"1H-Azepine, hexahydro-1-nitroso-",376.35,1,O=NN1CCCCCC1,le15
1838,"2(1H)-Pyrimidinone, tetrahydro-1,3-dimethyl-",358.45,1,CN1CCCN(C)C1=O,le15
1839,octan-3-one,319.15,1,CCCCCC(=O)CC,le15
1840,"2-(2,2-dimethylpropyl)-2-methyloxirane",301.15,1,CC(C)(C)CC1(C)CO1,le15
1841,"Hexanal, 2-ethyl-",323.15,1,CCCCC(C=O)CC,le15
1842,6-methylheptan-2-one,317.75,1,CC(=O)CCCC(C)C,le15
1843,"Cyclohexanemethanol, alpha-methyl-",346.15,1,CC(O)C1CCCCC1,le15
1844,6-methylhept-5-en-2-ol,340.95,1,CC(C)=CCCC(C)O,le15
1845,3-methylheptan-2-one,317.75,1,CCCCC(C)C(C)=O,le15
1846,"Oxirane, hexyl- (9CI)",310.35,1,CCCCCCC1CO1,le15
1847,"2,2,4,4-tetramethyloxolane",297.45,1,CC1(C)COC(C)(C)C1,le15
1848,Oct-1-ene-3-ol,334.25,1,C=CC(O)CCCCC,le15
1849,1-methylcycloheptan-1-ol,344.75,1,CC1(O)CCCCCC1,le15
1850,"Ethanol, 2-cyclohexyl-",359.85,1,OCCC1CCCCC1,le15
1851,1-ethenoxyhexane,282.95,1,C=COCCCCCC,le15
1852,"3,5-dimethylcyclohexan-1-ol",346.45,1,CC1CC(C)CC(O)C1,le15
1853,"3,4-dimethylcyclohexan-1-ol",351.45,1,CC1CCC(O)CC1C,le15
1854,2-methylheptan-3-one,317.35,1,CCCCC(=O)C(C)C,le15
1855,"Furan, tetrahydro-2,2,5,5-tetramethyl-",277.05,1,CC1(C)CCC(C)(C)O1,le15
1856,3-methylheptan-4-one,317.75,1,CCCC(=O)C(C)CC,le15
1857,"3,4-dimethylhexan-2-one",307.35,1,CCC(C)C(C)C(C)=O,le15
1858,"3,3-dimethylhexan-2-one",307.55,1,CCCC(C)(C)C(C)=O,le15
1859,"2,5-dimethylhexan-3-one",307.35,1,CC(C)CC(=O)C(C)C,le15
1860,1-ethylcyclohexan-1-ol,341.35,1,CCC1(O)CCCCC1,le15
1861,"3,5-dimethylhex-1-en-3-ol",313.25,1,C=CC(C)(O)CC(C)C,le15
1862,tert-Butyl propyl ketone,307.55,1,CCCC(=O)C(C)(C)C,le15
1863,3octanone,326.0,1,CCCCCC(=O)CC,le15
1864,5methyl3heptanone,316.0,1,CCC(=O)CC(C)CC,le15
1865,"1,2,4-trimethylpiperazine",304.25,1,CC1CN(C)CCN1C,le15
1866,"Piperazine, 1-(1-methylethyl)- (9CI)",329.55,1,CC(C)N1CCNCC1,le15
1867,1-ethylpiperidin-3-amine,333.75,1,CCN1CCCC(N)C1,le15
1868,"2,3,4-trimethylhexane",301.15,1,CCC(C)C(C)C(C)C,le15
1869,"3,4-dimethylheptane",333.15,1,CCCC(C)C(C)CC,le15
1870,"3,5-dimethylheptane",328.05,1,CCC(C)CC(C)CC,le15
1871,"3,3-diethylpentane",305.95,1,CCC(CC)(CC)CC,le15
1872,"2,2,4,4-tetramethylpentane",292.45,1,CC(C)(C)CC(C)(C)C,le15
1873,"2,2-dimethylheptane",297.55,1,CCCCCC(C)(C)C,le15
1874,"2,6-dimethylheptane",326.25,1,CC(C)CCCC(C)C,le15
1875,"2,2,3,4-tetramethylpentane",298.65,1,CC(C)C(C)C(C)(C)C,le15
1876,"2,5-dimethylheptane",327.35,1,CCC(C)CCC(C)C,le15
1877,4-ethylheptane,297.15,1,CCCC(CC)CCC,le15
1878,3-methyloctane,298.45,1,CCCCCC(C)CC,le15
1879,"Heptane, 2,3-dimethyl-",333.25,1,CCCCC(C)C(C)C,le15
1880,3-ethyl-3-methylhexane,302.35,1,CCCC(C)(CC)CC,le15
1881,"3,3-dimethylheptane",300.35,1,CCCCC(C)(C)CC,le15
1882,"2,2,3,3-tetramethylpentane",302.15,1,CCC(C)(C)C(C)(C)C,le15
1883,3-ethylheptane,298.25,1,CCCCC(CC)CC,le15
1884,"2,2,3-trimethylhexane",298.55,1,CCCC(C)C(C)(C)C,le15
1885,"2,2,4-trimethylhexane",294.05,1,CCC(C)CC(C)(C)C,le15
1886,"2,3,3-trimethylhexane",300.85,1,CCCC(C)(C)C(C)C,le15
1887,"2,4,4-trimethylhexane",296.25,1,CCC(C)(C)CC(C)C,le15
1888,"2,3,3,4-tetramethylpentane",302.65,1,CC(C)C(C)(C)C(C)C,le15
1889,3-ethyl-2-methylhexane,330.45,1,CCCC(CC)C(C)C,le15
1890,4-methyloctane,297.35,1,CCCCC(C)CCC,le15
1891,4-ethyl-2-methylhexane,325.35,1,CCC(CC)CC(C)C,le15
1892,2-methyloctane,298.35,1,CCCCCCC(C)C,le15
1893,"3,3,4-trimethylhexane",301.75,1,CCC(C)C(C)(C)CC,le15
1894,3methyl4ethylhexane,297.0,1,CCC(C)C(CC)CC,le15
1895,"Phenol, 3-chloro-",350.05,1,Oc1cccc(Cl)c1,le15
1896,"Phenol, 2-chloro-",337.05,1,Oc1ccccc1Cl,le15
1897,4chlorophenol,388.0,1,Oc1ccc(Cl)cc1,le15
1898,ethanesulfonyl chloride,326.45,1,CCS(=O)(=O)Cl,le15
1899,chloromethyl carbonochloridate,298.65,1,O=C(Cl)OCCl,le15
1900,"s-Triazine-2,4,6(1H,3H,5H)-trione (8CI)",706.75,1,O=c1[nH]c(=O)[nH]c(=O)[nH]1,le15
1901,"Benzenamine, 2,4-difluoro-",335.15,1,Nc1ccc(F)cc1F,le15
1902,"Benzenamine, 3,4-difluoro-",358.15,1,Nc1ccc(F)c(F)c1,le15
1903,"Proline, 5-oxo-, L-",500.95,1,O=C1CC[C@@H](C(=O)O)N1,le15
1904,"Urea, N-nitroso-N-2-propenyl- (9CI)",349.15,1,C=CCN(N=O)C(N)=O,le15
1905,2-nitrothiophene,367.05,1,O=[N+]([O-])c1cccs1,le15
1906,3-nitrothiophene,363.65,1,O=[N+]([O-])c1ccsc1,le15
1907,Quinoline,374.15,1,c1ccc2ncccc2c1,le15
1908,Isoquinoline,374.25,1,c1ccc2cnccc2c1,le15
1909,(E)-3-phenylprop-2-enenitrile,378.35,1,N#C/C=C/c1ccccc1,le15
1910,1-Aminocyclopentane-1-carboxylic acid,381.85,1,NC1(C(=O)O)CCCC1,le15
1911,nitrocyclohexane,354.35,1,O=[N+]([O-])C1CCCCC1,le15
1912,"Morpholine, 4-acetyl-",395.15,1,CC(=O)N1CCOCC1,le15
1913,"Butanamide, N,N-dimethyl-3-oxo-",355.55,1,CC(=O)CC(=O)N(C)C,le15
1914,"2-Pyrrolidinone, 1-(2-hydroxyethyl)-",373.15,1,O=C1CCCN1CCO,le15
1915,"3-Hexene, 3-nitro-",338.75,1,CCC=C(CC)[N+](=O)[O-],le15
1916,N-acetyl-N-ethylacetamide,347.55,1,CCN(C(C)=O)C(C)=O,le15
1917,2-piperidin-4-ylethanol,374.85,1,OCCC1CCNCC1,le15
1918,"N-(2,4-dimethylpentan-3-ylidene)hydroxylamine",371.95,1,CC(C)C(=NO)C(C)C,le15
1919,"N,N-diethylpropanamide",346.75,1,CCC(=O)N(CC)CC,le15
1920,2-piperidin-2-ylethanol,375.35,1,OCCC1CCCCN1,le15
1921,"Oxiranemethanamine, N,N-diethyl- (9CI)",314.25,1,CCN(CC)CC1CO1,le15
1922,"2-Heptanone, oxime",613.85,1,CCCCCC(C)=NO,le15
1923,(1-methylpiperidin-3-yl)methanol,367.55,1,CN1CCCC(CO)C1,le15
1924,1-Piperidineethanol,364.35,1,OCCN1CCCCC1,le15
1925,"1,3,5-trimethyl-1,3,5-triazinane",322.55,1,CN1CN(C)CN(C)C1,le15
1926,"Piperazine, 1-(2-aminoethyl)-",366.15,1,NCCN1CCNCC1,le15
1927,Neopentyl isothiocyanate,327.503,1,CC(C)(C)CN=C=S,le15
1928,Pentyl isothiocyanate,338.35,1,CCCCCN=C=S,le15
1929,"1-Hexanamine, 2-ethyl-",325.35,1,CCCCC(CC)CN,le15
1930,"Butylamine, 1,1,3,3-tetramethyl- (6CI,7CI,8CI)",305.15,1,CC(C)(C)CC(C)(C)N,le15
1931,"1-Propanamine, 2-methyl-N-(2-methylpropyl)-",302.55,1,CC(C)CNCC(C)C,le15
1932,N-butan-2-ylbutan-2-amine,293.75,1,CCC(C)NC(C)CC,le15
1933,"Heptylamine, 1-methyl-",335.95,1,CCCCCCC(C)N,le15
1934,"1-Butanamine, N,N-diethyl-",299.95,1,CCCCN(CC)CC,le15
1935,N-ethyl-N-propan-2-ylpropan-2-amine,283.75,1,CCN(C(C)C)C(C)C,le15
1936,"1-Butanamine, N-butyl-",314.25,1,CCCCNCCCC,le15
1937,2ethyl1hexanamine,323.0,1,CCCCC(CC)CN,le15
1938,"Methane, bromochloro-",284.15,1,ClCBr,le15
1939,5-Chloropyridin-2-ol,402.75,1,Oc1ccc(Cl)cn1,le15
1940,"3-Pyridinol, 2-chloro-",418.15,1,Oc1cccnc1Cl,le15
1941,"Methane, dichloronitro-",296.35,1,O=[N+]([O-])C(Cl)Cl,le15
1942,"2,4(1H,3H)-Pyrimidinedione, 5-fluoro-",469.65,1,O=c1[nH]cc(F)c(=O)[nH]1,le15
1943,2-methylidenebutanedioic acid,471.85,1,C=C(CC(=O)O)C(=O)O,le15
1944,"Propiolaldehyde, phenyl- (8CI)",367.55,1,O=CC#Cc1ccccc1,le15
1945,Quinoxaline,371.15,1,c1ccc2nccnc2c1,le15
1946,"Hexanedial, 2-hydroxy-",380.75,1,O=CCCCC(O)C=O,le15
1947,"Butanoic acid, 3-oxo-, ethyl ester",340.15,1,CCOC(=O)CC(C)=O,le15
1948,"3,3-dimethyl-2-oxobutanoic acid",351.55,1,CC(C)(C)C(=O)C(=O)O,le15
1949,"2-Propenoic acid, 2-methyl-, 2-hydroxyethyl ester",370.37199999999996,1,C=C(C)C(=O)OCCO,le15
1950,"2-Propenoic acid, 2-hydroxypropyl ester (9CI)",353.05,1,C=CC(=O)OCC(C)O,le15
1951,"Oxirane, 2,2'-(oxybis(methylene))bis-",343.75,1,C(OCC1CO1)C1CO1,le15
1952,"Acrylic acid, 2-methoxyethyl ester (8CI)",333.15,1,C=CC(=O)OCCOC,le15
1953,quinazoline,379.81699999999995,1,c1ccc2ncncc2c1,le15
1954,"2,5-dimethoxy-2,5-dihydrofuran",320.35,1,COC1C=CC(OC)O1,le15
1955,"Butanoic acid, 4-oxo-, ethyl ester",341.65,1,CCOC(=O)CCC=O,le15
1956,methyl 2-methyl-3-oxobutanoate,505.55,1,COC(=O)C(C)C(C)=O,le15
1957,ethyl3oxobutanoat,343.0,1,CCOC(=O)CC(C)=O,le15
1958,PropionicAnhydride,336.0,1,CCC(=O)OC(=O)CC,le15
1959,1-nitropiperidine,391.25,1,O=[N+]([O-])N1CCCCC1,le15
1960,"Naphthalene, 1,2-dihydro-",343.5,1,C1=Cc2ccccc2CC1,le15
1961,"1,4-dihydronaphthalene",343.85,1,C1=CCc2ccccc2C1,le15
1962,4-methyl-1H-indene,347.85,1,Cc1cccc2c1C=CC2,le15
1963,7-methyl-1H-indene,348.05,1,Cc1cccc2c1CC=C2,le15
1964,6-methyl-1H-indene,346.45,1,Cc1ccc2c(c1)CC=C2,le15
1965,"1,3-bis(ethenyl)benzene",347.75,1,C=Cc1cccc(C=C)c1,le15
1966,"Butanoic acid, propyl ester",312.05,1,CCCOC(=O)CCC,le15
1967,"Hexanoic acid, methyl ester",315.15,1,CCCCCC(=O)OC,le15
1968,"2-Pentanone, 4-methoxy-4-methyl-",314.45,1,COC(C)(C)CC(C)=O,le15
1969,"Butyric acid, 3-methyl-, ethyl ester (6CI,7CI,8CI)",299.15,1,CCOC(=O)CC(C)C,le15
1970,"1-Butanol, 3-methyl-, acetate",298.15,1,CC(=O)OCCC(C)C,le15
1971,"Valeric acid, ethyl ester (8CI)",312.05,1,CCCCC(=O)OCC,le15
1972,"Propanoic acid, 2-methylpropyl ester",299.15,1,CCC(=O)OCC(C)C,le15
1973,"Propanoic acid, butyl ester",311.15,1,CCCCOC(=O)CC,le15
1974,butan-2-yl propanoate,306.55,1,CCC(=O)OC(C)CC,le15
1975,2-methylbutyl acetate,308.15,1,CCC(C)COC(C)=O,le15
1976,"Formic acid, hexyl ester",320.95,1,CCCCCCOC=O,le15
1977,propan-2-yl butanoate,303.15,1,CCCC(=O)OC(C)C,le15
1978,propyl 2-methylpropanoate,306.55,1,CCCOC(=O)C(C)C,le15
1979,"ethyl 2,2-dimethylpropanoate",289.15,1,CCOC(=O)C(C)(C)C,le15
1980,2-methylhexanoic acid,330.15,1,CCCCC(C)C(=O)O,le15
1981,"Thiocyanic acid, methylene ester",399.45,1,N#CSCSC#N,le15
1982,"Butyric acid, 2-methyl-, ethyl ester (8CI)",306.55,1,CCOC(=O)C(C)CC,le15
1983,"Butanoic acid, 2-ethyl-2-methyl-",365.15,1,CCC(C)(CC)C(=O)O,le15
1984,"Propanoic acid, 1,1-dimethylethyl ester",298.55,1,CCC(=O)OC(C)(C)C,le15
1985,"2,2-dimethylpentanoic acid",365.15,1,CCCC(C)(C)C(=O)O,le15
1986,"Propane, 1-butoxy-2,3-epoxy-",328.75,1,CCCCOCC1CO1,le15
1987,"Oxirane, ((1,1-dimethylethoxy)methyl)-",316.45,1,CC(C)(C)OCC1CO1,le15
1988,2pentylacetate,305.0,1,CCCCCCC(=O)[O-],le15
1989,tertButylPropionate,293.0,1,CCC(=O)OC(C)(C)C,le15
1990,N-(2-Hydroxyethyl)piperazine,375.05,1,OCCN1CCNCC1,le15
1991,6-aminohexanamide,414.35,1,NCCCCCC(N)=O,le15
1992,"tert-Butylamine, N-ethyl-N-nitroso-",346.75,1,CCN(N=O)C(C)(C)C,le15
1993,"Morpholine, 4-(2-aminoethyl)-",448.15,1,NCCN1CCOCC1,le15
1994,"1-Butanamine, N-ethyl-N-nitroso- (9CI)",355.75,1,CCCCN(CC)N=O,le15
1995,"1-Hexanol, 2-ethyl-",350.35,1,CCCCC(CC)CO,le15
1996,"1-Pentanol, 2,2,4-trimethyl-",329.75,1,CC(C)CC(C)(C)CO,le15
1997,"Butane, 1,1'-oxybis-",298.15,1,CCCCOCCCC,le15
1998,octan-4-ol,344.25,1,CCCCC(O)CCC,le15
1999,3-ethylhexan-3-ol,333.75,1,CCCC(O)(CC)CC,le15
2000,4-methylheptan-4-ol,333.75,1,CCCC(C)(O)CCC,le15
2001,"1-Heptanol, 6-methyl-",344.25,1,CC(C)CCCCCO,le15
2002,"1-Hexanol, 2,2-dimethyl-",333.75,1,CCCCC(C)(C)CO,le15
2003,"2,2-dimethylhexan-3-ol",329.75,1,CCCC(O)C(C)(C)C,le15
2004,6-methylheptan-2-ol,340.35,1,CC(C)CCCC(C)O,le15
2005,"2,2,4-trimethylpentan-3-ol",323.15,1,CC(C)C(O)C(C)(C)C,le15
2006,"3-Heptanol, 3-methyl- (8CI)(9CI)",333.75,1,CCCCC(C)(O)CC,le15
2007,1-ethoxyhexane,304.35,1,CCCCCCOCC,le15
2008,1-(2-methylpropoxy)butane,295.95,1,CCCCOCC(C)C,le15
2009,"2,3-dimethylhexan-2-ol",329.75,1,CCCC(C)C(C)(C)O,le15
2010,"3,4-dimethylhexan-2-ol",332.35,1,CCC(C)C(C)C(C)O,le15
2011,2-Methylheptan-4-ol,337.35,1,CCCC(O)CC(C)C,le15
2012,"2-Heptanol, 3-methyl- (8CI)(9CI)",337.35,1,CCCCC(C)C(C)O,le15
2013,"1-Pentanol, 2-propyl-",344.85,1,CCCC(CO)CCC,le15
2014,3-ethyl-2-methylpentan-3-ol,329.75,1,CCC(O)(CC)C(C)C,le15
2015,"2,3,4-trimethylpentan-2-ol",323.15,1,CC(C)C(C)C(C)(C)O,le15
2016,"2,5-dimethylhexan-2-ol",329.75,1,CC(C)CCC(C)(C)O,le15
2017,"3-Heptanol, 5-methyl-",337.35,1,CCC(C)CC(O)CC,le15
2018,2ethylhexanol,346.0,1,CCCCC(CC)CO,le15
2019,3octanol,338.0,1,CCCCCC(O)CC,le15
2020,"1,3-Propanediamine, N,N,N',N'-tetramethyl-",304.85,1,CN(C)CCCN(C)C,le15
2021,"1,3-Propanediamine, N,N-diethyl-",326.15,1,CCN(CC)CCCN,le15
2022,"heptane-1,7-diamine",360.95,1,NCCCCCCCN,le15
2023,Butyltrimethylsilane,281.65,1,CCCC[Si](C)(C)C,le15
2024,"2-chloro-2,2-difluoroacetic acid",299.05,1,O=C(O)C(F)(F)Cl,le15
2025,furan-2-carbonyl chloride,330.25,1,O=C(Cl)c1ccco1,le15
2026,1-chloro-2-fluorobenzene,310.15,1,Fc1ccccc1Cl,le15
2027,1-chloro-4-fluorobenzene,302.15,1,Fc1ccc(Cl)cc1,le15
2028,1-chloro-2-fluorobenzene,293.15,1,Fc1ccccc1Cl,le15
2029,chlorosulfonyloxymethane,306.95,1,COS(=O)(=O)Cl,le15
2030,"5-Chloro-1,3-dimethyl-1H-pyrazole",335.85,1,Cc1cc(Cl)n(C)n1,le15
2031,dichloro(ethyl)phosphane,305.95,1,CCP(Cl)Cl,le15
2032,"1,2-dichloro-2-fluoropropane",276.75,1,CC(F)(Cl)CCl,le15
2033,"Glyoxylonitrile, phenyl- (8CI)",357.15,1,N#CC(=O)c1ccccc1,le15
2034,m-Formylbenzonitrile,354.45,1,N#Cc1cccc(C=O)c1,le15
2035,"Pentanoic acid, 5-amino-4-oxo-",407.45,1,NCC(=O)CCC(=O)O,le15
2036,"Pyrido(2,3-d)pyridazine",452.45,1,c1cnc2cnncc2c1,le15
2037,"Pyrido(3,4-d)pyridazine",467.05,1,c1cc2cnncc2cn1,le15
2038,"Urea, 1,1,3-trimethyl-3-nitroso-",316.85,1,CN(C)C(=O)N(C)N=O,le15
2039,2-methyl-1H-indole,385.65,1,Cc1cc2ccccc2[nH]1,le15
2040,5-methyl-1H-indole,387.85,1,Cc1ccc2[nH]ccc2c1,le15
2041,7-methyl-1H-indole,383.65,1,Cc1cccc2cc[nH]c12,le15
2042,2-(3-methylphenyl)acetonitrile,381.55,1,Cc1cccc(CC#N)c1,le15
2043,2-(4-methylphenyl)acetonitrile,379.25,1,Cc1ccc(CC#N)cc1,le15
2044,"Benzonitrile, 2,3-dimethyl-",373.15,1,Cc1cccc(C#N)c1C,le15
2045,2-(2-methylphenyl)acetonitrile,384.45,1,Cc1ccccc1CC#N,le15
2046,"1H-Indole, 3-methyl-",405.15,1,Cc1c[nH]c2ccccc12,le15
2047,"Benzeneacetonitrile, alpha-methyl-",367.05,1,CC(C#N)c1ccccc1,le15
2048,4-methyl-1H-indole,387.25,1,Cc1cccc2[nH]ccc12,le15
2049,"Carbamic acid, 1-methylbutyl ester",367.35,1,CCCC(C)OC(N)=O,le15
2050,2-Morpholinoethanol,372.55,1,OCCN1CCOCC1,le15
2051,"Hexane, 1-nitro-",345.15,1,CCCCCC[N+](=O)[O-],le15
2052,2-dimethylaminoethyl acetate,529.95,1,CC(=O)OCCN(C)C,le15
2053,"Hexanoic acid, 6-amino-",381.55,1,NCCCCCC(=O)O,le15
2054,"Hydrazinecarbothioamide, 2-(1-methylethylidene)-",356.25,1,CC(C)=NNC(N)=S,le15
2055,3butoxypropylamine,336.0,1,CCCCOCCCN,le15
2056,"1,3-Propanediamine, N-(3-aminopropyl)-",391.15,1,NCCCNCCCN,le15
2057,"1,1,2-Trichloroethylene",285.25,1,ClC=C(Cl)Cl,le15
2058,"2,2,3,3-tetrafluoropropan-1-ol",316.15,1,OCC(F)(F)C(F)F,le15
2059,"1,2,4-trifluorobenzene",277.15,1,Fc1ccc(F)c(F)c1,le15
2060,"1,3,5-trifluorobenzene",333.65,1,Fc1cc(F)cc(F)c1,le15
2061,"Propanedioic acid, dimethyl ester",363.15,1,COC(=O)CC(=O)OC,le15
2062,Pentanedioic acid,424.35,1,O=C(O)CCCC(=O)O,le15
2063,"2,3-dihydroinden-1-one",384.85,1,O=C1CCc2ccccc21,le15
2064,2-methyl-1-benzofuran,340.15,1,Cc1cc2ccccc2o1,le15
2065,"2-Propenal, 3-phenyl-, (E)- (9CI)",344.15,1,O=C/C=C/c1ccccc1,le15
2066,7-methyl-1-benzofuran,344.55,1,Cc1cccc2ccoc12,le15
2067,5-methyl-1-benzofuran,362.55,1,Cc1ccc2occc2c1,le15
2068,3-methyl-1-benzofuran,346.35,1,Cc1coc2ccccc12,le15
2069,Cinnamaldehyde,344.0,1,O=CC=Cc1ccccc1,le15
2070,ethyl 2-hydroxy-2-methylpropanoate,317.15,1,CCOC(=O)C(C)(C)O,le15
2071,"Ethaneperoxoic acid, 1,1-dimethylethyl ester",312.95,1,CC(=O)OOC(C)(C)C,le15
2072,"Acetic acid, 2-methoxy-1-methylethyl ester",321.05,1,COCC(C)OC(C)=O,le15
2073,"Ethanol, 2-ethoxy-, acetate",323.75,1,CCOCCOC(C)=O,le15
2074,"1,3,5-Trioxane, 2,4,6-trimethyl-",312.35,1,CC1OC(C)OC(C)O1,le15
2075,"2,5-dimethoxyoxolane",308.15,1,COC1CCC(OC)O1,le15
2076,ethyl 2-ethoxyacetate,321.45,1,CCOCC(=O)OCC,le15
2077,"Ethanol, 2-(2-(ethenyloxy)ethoxy)- (9CI)",351.55,1,C=COCCOCCO,le15
2078,6-hydroxyhexanoic acid,406.05,1,O=C(O)CCCCCO,le15
2079,"Acetic acid, butoxy-",370.65,1,CCCCOCC(=O)O,le15
2080,4-Aminophenylacetonitrile,409.45,1,N#CCc1ccc(N)cc1,le15
2081,"Butanoic acid, 3-hydroxy-, ethyl ester",337.15,1,CCOC(=O)CC(C)O,le15
2082,"1,3-Dioxolane-4-methanol, 2,2-dimethyl-",353.15,1,CC1(C)OCC(CO)O1,le15
2083,[5-(hydroxymethyl)oxolan-2-yl]methanol,385.15,1,OCC1CCC(CO)O1,le15
2084,propan-2-yl 2-hydroxypropanoate,330.35,1,CC(C)OC(=O)C(C)O,le15
2085,"4,7-Methano-1H-indene, 3a,4,7,7a-tetrahydro-",319.949,1,C1=CC2C3C=CC(C3)C2C1,le15
2086,"Naphthalene, 1,2,3,4-tetrahydro-",350.15,1,c1ccc2c(c1)CCCC2,le15
2087,but-3-enylbenzene,333.15,1,C=CCCc1ccccc1,le15
2088,[(E)-but-1-enyl]benzene,336.75,1,CC/C=C/c1ccccc1,le15
2089,1-methyl-3-prop-1-en-2-ylbenzene,331.35,1,C=C(C)c1cccc(C)c1,le15
2090,[(E)-but-2-enyl]benzene,329.35,1,C/C=C/Cc1ccccc1,le15
2091,1-ethenyl-4-ethylbenzene,335.25,1,C=Cc1ccc(CC)cc1,le15
2092,1-methyl-2-prop-1-en-2-ylbenzene,328.75,1,C=C(C)c1ccccc1C,le15
2093,1-methyl-4-prop-1-en-2-ylbenzene,332.55,1,C=C(C)c1ccc(C)cc1,le15
2094,1-methyl-2-prop-2-enylbenzene,330.45,1,C=CCc1ccccc1C,le15
2095,but-1-en-2-ylbenzene,330.25,1,C=C(CC)c1ccccc1,le15
2096,"1,3-Propanediol, 2,2-diethyl-",374.25,1,CCC(CC)(CO)CO,le15
2097,1-(propoxymethoxy)propane,298.55,1,CCCOCOCCC,le15
2098,"heptane-1,7-diol",394.05,1,OCCCCCCCO,le15
2099,"1,1-diethoxypropane",285.95,1,CCOC(CC)OCC,le15
2100,"2-Propanol, 1-butoxy-",327.65,1,CCCCOCC(C)O,le15
2101,"2,2-diethoxypropane",275.15,1,CCOC(C)(C)OCC,le15
2102,1-fluorooctane,337.25,1,CCCCCCCCF,le15
2103,"Urea, 1,3-diethyl-2-thio-",329.35,1,CCNC(=S)NCC,le15
2104,"Urea, 1-butyl-2-thio-",349.25,1,CCCCNC(N)=S,le15
2105,"Acetic acid, (trimethylsilyl)-",334.65,1,C[Si](C)(C)CC(=O)O,le15
2106,"Urea, 1,1,3,3-tetramethyl-2-thio-",463.15,1,CN(C)C(=S)N(C)C,le15
2107,triethyl(hydroxy)silane,330.37199999999996,1,CC[Si](O)(CC)CC,le15
2108,3-trimethylsilylpropan-1-ol,325.95,1,C[Si](C)(C)CCCO,le15
2109,"3-chlorofuran-2,5-dione",368.65,1,O=C1C=C(Cl)C(=O)O1,le15
2110,"2,4,6-Trifluoropyridine",300.65,1,Fc1cc(F)nc(F)c1,le15
2111,"2-methyl-1,3-benzoxazole",348.15,1,Cc1nc2ccccc2o1,le15
2112,"2,3-dihydroisoindol-1-one",493.35,1,O=C1NCc2ccccc21,le15
2113,"Isocyanic acid, p-tolyl ester (7CI,8CI)",337.05,1,Cc1ccc(N=C=O)cc1,le15
2114,p-Cyanobenzyl alcohol,406.75,1,N#Cc1ccc(CO)cc1,le15
2115,m-Anisonitrile (8CI),378.15,1,COc1cccc(C#N)c1,le15
2116,"Benzeneacetonitrile, 4-hydroxy- (9CI)",410.35,1,N#CCc1ccc(O)cc1,le15
2117,"Isocyanic acid, o-tolyl ester (7CI,8CI)",365.15,1,Cc1ccccc1N=C=O,le15
2118,p-Anisonitrile (8CI),529.65,1,COc1ccc(C#N)cc1,le15
2119,1H-Indol-5-ol (9CI),434.55,1,Oc1ccc2[nH]ccc2c1,le15
2120,2-methoxybenzonitrile,376.55,1,COc1ccccc1C#N,le15
2121,"1H-Benzotriazole, 5-methyl-",410.55,1,Cc1ccc2[nH]nnc2c1,le15
2122,pentyl nitrate,329.95,1,CCCCCO[N+](=O)[O-],le15
2123,"Propanamide, 2-hydroxy-N-(2-hydroxyethyl)-",456.95,1,CC(O)C(=O)NCCO,le15
2124,1-methylbenzotriazole,390.55,1,Cn1nnc2ccccc21,le15
2125,1H-Benzimidazol-2-amine,477.75,1,Nc1nc2ccccc2[nH]1,le15
2126,3-Nitropentan-2-ol,363.75,1,CCC(C(C)O)[N+](=O)[O-],le15
2127,"Acetamide, 2-fluoro-N-isobutyl-",367.65,1,CC(C)CNC(=O)CF,le15
2128,4-Thiazolidinecarboxylic acid,438.85,1,O=C(O)C1CSCN1,le15
2129,"4-Thiazolidinone, 2-thioxo-",358.85,1,O=C1CSC(=S)N1,le15
2130,"Benzenamine, N-2-propenyl-",362.55,1,C=CCNc1ccccc1,le15
2131,"1,2,3,4-tetrahydroquinoline",373.75,1,c1ccc2c(c1)CCCN2,le15
2132,"Pyridine, 2-ethenyl-5-ethyl- (9CI)",349.35,1,C=Cc1ccc(CC)cn1,le15
2133,"5,6,7,8-tetrahydroquinoline",359.26099999999997,1,c1cnc2c(c1)CCCC2,le15
2134,"2,3-dihydro-1H-inden-5-amine",383.15,1,Nc1ccc2c(c1)CCC2,le15
2135,"Isoquinoline, 1,2,3,4-tetrahydro-",372.05,1,c1ccc2c(c1)CCNC2,le15
2136,"5,6,7,8-tetrahydroisoquinoline",373.15,1,c1cc2c(cn1)CCCC2,le15
2137,"Ethanol, 2,2'-(ethylimino)bis-",397.05,1,CCN(CCO)CCO,le15
2138,"2,2-diethoxyethanamine",318.15,1,CCOC(CN)OCC,le15
2139,"Ethanol, 2-(2-(dimethylamino)ethoxy)-",344.75,1,CN(C)CCOCCO,le15
2140,"1,3,4-Thiadiazole-2(3H)-thione, 5-amino-",373.45,1,Nc1n[nH]c(=S)s1,le15
2141,"Propionaldehyde, 2-methyl-2-(methylthio)-, oxime",354.25,1,CSC(C)(C)C=NO,le15
2142,"1-chloropyrrolidine-2,5-dione",348.25,1,O=C1CCC(=O)N1Cl,le15
2143,"2,4,6-trifluoropyrimidine",308.85,1,Fc1cc(F)nc(F)n1,le15