,compound,flashpoint,pure substance,smiles,source
10891,"Acetamide, N-9H-fluoren-2-yl-2,2,2-trifluoro- (9CI)",475.15,1.0,O=C(Nc1ccc2c(c1)Cc1ccccc1-2)C(F)(F)F,le15
10892,"Phosphorothioic acid, O-ethyl O-methyl O-(4-nitrophenyl) ester (9CI)",438.05,1.0,CCOP(=S)(OC)Oc1ccc([N+](=O)[O-])cc1,le15
10893,"1H-Purine, 6-((1-methyl-4-nitro-1H-imidazol-5-yl)thio)-",641.65,1.0,Cn1cnc([N+](=O)[O-])c1Sc1[nH]cnc2ncnc1-2,le15
10894,1-bromotetradecane,400.45,1.0,CCCCCCCCCCCCCCBr,le15
10895,"Phenol, 4,4'-(2-pyridinylmethylene)bis- (9CI)",506.45,1.0,Oc1ccc(C(c2ccc(O)cc2)c2ccccn2)cc1,le15
10896,bis[[chloro(dimethyl)silyl]oxy]-dimethylsilane,326.45,1.0,C[Si](C)(Cl)O[Si](C)(C)O[Si](C)(C)Cl,le15
10897,"Phenol, 2,6-bis(1,1-dimethylethyl)-4-methyl-, methylcarbamate (9CI)",429.15,1.0,CNC(=O)Oc1c(C(C)(C)C)cc(C)cc1C(C)(C)C,le15
10898,10-chloro-5H-phenarsazinine,469.85,1.0,Cl[As]1c2ccccc2Nc2ccccc21,le15
10899,"Ethanone, 2-bromo-1-(4-bromophenyl)-",387.25,1.0,O=C(CBr)c1ccc(Br)cc1,le15
10900,"Phthalic acid, bis(2,3-epoxypropyl) ester",446.05,1.0,O=C(OCC1CO1)c1ccccc1C(=O)OCC1CO1,le15
10901,"Glycine, N-(2-(bis(carboxymethyl)amino)ethyl)-N-(2-hydroxyethyl)-",573.15,1.0,O=C(O)CN(CCO)CCN(CC(=O)O)CC(=O)O,le15
10902,"Phosphine oxide, triphenyl-",506.95,1.0,O=P(c1ccccc1)(c1ccccc1)c1ccccc1,le15
10903,"2-Naphthalenol, 1-((2-methoxyphenyl)azo)-",495.35,1.0,COc1ccccc1N=Nc1c(O)ccc2ccccc12,le15
10904,"1H-Indene, 2,3-dihydro-1,1,3,3,5-pentamethyl-4,6-dinitro-",418.45,1.0,Cc1c([N+](=O)[O-])cc2c(c1[N+](=O)[O-])C(C)(C)CC2(C)C,le15
10905,"Threitol, 1,4-dimethanesulfonate, (2S,3S)- (8CI)",594.05,1.0,CS(=O)(=O)OC[C@H](O)[C@@H](O)COS(C)(=O)=O,le15
10906,"1H-Purine-2,6-dione, 3,7-dihydro-3,7-dimethyl-1-(5-oxohexyl)-",548.25,1.0,CC(=O)CCCCn1c(=O)c2c(ncn2C)n(C)c1=O,le15
10907,"Dibenz(a,h)anthracene",537.65,1.0,c1ccc2c(c1)ccc1cc3c(ccc4ccccc43)cc12,le15
10908,Benzo(c)chrysene,537.65,1.0,c1ccc2c(c1)ccc1c2ccc2ccc3ccccc3c21,le15
10909,Benzo(a)chrysene,537.65,1.0,c1ccc2c(c1)ccc1c2ccc2c3ccccc3ccc21,le15
10910,"Dibenz(a,j)anthracene",537.65,1.0,c1ccc2c(c1)ccc1cc3ccc4ccccc4c3cc12,le15
10911,"Benzenesulfonamide, 4-amino-N-(4,6-dimethyl-2-pyrimidinyl)-",545.25,1.0,Cc1cc(C)nc(NS(=O)(=O)c2ccc(N)cc2)n1,le15
10912,"1,2-Benzenedicarboxylic acid, bis(2-methylpropyl) ester",427.05,1.0,CC(C)COC(=O)c1ccccc1C(=O)OCC(C)C,le15
10913,"1,4-Benzenedicarboxylic acid, dibutyl ester",453.35,1.0,CCCCOC(=O)c1ccc(C(=O)OCCCC)cc1,le15
10914,"1,2-Benzenedicarboxylic acid, mono(2-ethylhexyl) ester (9CI)",417.25,1.0,CCCCC(CC)COC(=O)c1ccccc1C(=O)[O-],le15
10915,"1,2-Benzenedicarboxylic acid, dibutyl ester",450.55,1.0,CCCCOC(=O)c1ccccc1C(=O)OCCCC,le15
10916,"Pyridine, 2-(1-(4-methylphenyl)-3-(1-pyrrolidinyl)-1-propenyl)-, (E)-",490.25,1.0,Cc1ccc(/C(=C\CN2CCCC2)c2ccccn2)cc1,le15
10917,"Benzene, 1,1',1''-(chloromethylidyne)tris-",451.05,1.0,ClC(c1ccccc1)(c1ccccc1)c1ccccc1,le15
10918,"1H-Indene-1-carboxylic acid, 6-chloro-5-cyclohexyl-2,3-dihydro- (9CI)",483.65,1.0,O=C(O)C1CCc2cc(C3CCCCC3)c(Cl)cc21,le15
10919,"1,2-dichloro-1,1,2-trifluoro-2-iodoethane",289.0499999999999,1.0,FC(F)(Cl)C(F)(Cl)I,le15
10920,"Dibenz(a,j)acridine",513.45,1.0,c1ccc2c(c1)ccc1nc3ccc4ccccc4c3cc12,le15
10921,"Dibenz(c,h)acridine",513.45,1.0,c1ccc2c(c1)ccc1cc3ccc4ccccc4c3nc12,le15
10922,"Dibenz(a,h)acridine",513.45,1.0,c1ccc2c(c1)ccc1nc3c(ccc4ccccc43)cc12,le15
10923,"Salicylaldehyde, 3,5-dibromo- (6CI,7CI,8CI)",384.85,1.0,O=Cc1cc(Br)cc(Br)c1O,le15
10924,"3,5-Dibromo-4-hydroxybenzaldehyde",392.25,1.0,O=Cc1cc(Br)c(O)c(Br)c1,le15
10925,1-iodo-4-phenylbenzene,418.95,1.0,Ic1ccc(-c2ccccc2)cc1,le15
10926,"Benzophenone, 2',5-dichloro-2-methylamino-",499.55,1.0,CNc1ccc(Cl)cc1C(=O)c1ccccc1Cl,le15
10927,"Benzenesulfonamide, 4-amino-N-(3-methoxypyrazinyl)-",522.45,1.0,COc1nccnc1NS(=O)(=O)c1ccc(N)cc1,le15
10928,"2H-1-Benzopyran-2-one, 4-hydroxy-3-(1-phenylpropyl)-",424.95,1.0,CCC(c1ccccc1)c1c(O)c2ccccc2oc1=O,le15
10929,"Benzenesulfonamide, 4-amino-N-(6-methoxy-4-pyrimidinyl)-",537.3499999999998,1.0,COc1cc(NS(=O)(=O)c2ccc(N)cc2)ncn1,le15
10930,"Acetamide, N,N'-9H-fluorene-2,7-diylbis- (9CI)",520.05,1.0,CC(=O)Nc1ccc2c(c1)Cc1cc(NC(C)=O)ccc1-2,le15
10931,"4(3H)-Quinazolinone, 3-(p-ethoxyphenyl)-2-methyl-",504.05,1.0,CCOc1ccc(-n2c(C)nc3ccccc3c2=O)cc1,le15
10932,"6-Ethenyl-6-(methoxyethoxy)-2,5,7,10-tetraoxa-6-silaundecane (9CI)",377.95,1.0,C=C[Si](OCCOC)(OCCOC)OCCOC,le15
10933,"5H-Dibenz(b,f)azepine-5-propanamine, 10,11-dihydro-N,N-dimethyl- (9CI)",452.85,1.0,CN(C)CCCN1c2ccccc2CCc2ccccc21,le15
10934,"9,12-Octadecadienoic acid, (9E,12E)-",546.15,1.0,CCCCC/C=C/C/C=C/CCCCCCCC(=O)O,le15
10935,tetradecylcyclohexane,437.85,1.0,CCCCCCCCCCCCCCC1CCCCC1,le15
10936,"Acetaldehyde, tribromo-",338.15,1.0,O=CC(Br)(Br)Br,le15
10937,"1,2,2-tribromopropane",344.85,1.0,CC(Br)(Br)CBr,le15
10938,"1,1,2-tribromopropane",344.95,1.0,CC(Br)C(Br)Br,le15
10939,"Propane, 1,2,3-tribromo-",366.15,1.0,BrCC(Br)CBr,le15
10940,"Phosphonodithioic acid, ethyl-, S-(4-chlorophenyl) O-ethyl ester",441.25,1.0,CCOP(=S)(CC)Sc1ccc(Cl)cc1,le15
10941,"1,4-Dibromo-2-nitrobenzene",388.05,1.0,O=[N+]([O-])c1cc(Br)ccc1Br,le15
10942,"Benzeneacetic acid, 4-chloro-alpha-(4-chlorophenyl)- (9CI)",475.75,1.0,O=C(O)C(c1ccc(Cl)cc1)c1ccc(Cl)cc1,le15
10943,"Anthranilic acid, N-(alpha,alpha,alpha-trifluoro-m-tolyl)-",453.05,1.0,O=C(O)c1ccccc1Nc1cccc(C(F)(F)F)c1,le15
10944,"2H-1,4-Benzodiazepin-2-one, 1,3-dihydro-7-nitro-5-phenyl-",527.55,1.0,O=C1CN=C(c2ccccc2)c2cc([N+](=O)[O-])ccc2N1,le15
10945,"Adenosine, N-methyl- (8CI)(9CI)",619.45,1.0,CNc1ncnc2c1ncn2[C@@H]1O[C@H](CO)[C@@H](O)[C@H]1O,le15
10946,"Benzenamine, 4-methyl-2,6-dinitro-N,N-dipropyl- (9CI)",475.55,1.0,CCCN(CCC)c1c([N+](=O)[O-])cc(C)cc1[N+](=O)[O-],le15
10947,"Benzenamine, N-(1-ethylpropyl)-3,4-dimethyl-2,6-dinitro- (9CI)",481.55,1.0,CCC(CC)Nc1c([N+](=O)[O-])cc(C)c(C)c1[N+](=O)[O-],le15
10948,"4H-Dibenzo(de,g)quinolin-2-ol, 5,6,6a,7-tetrahydro-1-methoxy-6-methyl-",499.95,1.0,COc1c(O)cc2c3c1-c1ccccc1CC3N(C)CC2,le15
10949,"Morpholine, 4-cyclododecyl-2,6-dimethyl-",382.85,1.0,CC1CN(C2CCCCCCCCCCC2)CC(C)O1,le15
10950,"1,1-diiodoethane",345.65,1.0,CC(I)I,le15
10951,"1,2-diiodoethane",374.05,1.0,ICCI,le15
10952,"2-Pentenedioic acid, 3-((dimethoxyphosphinyl)oxy)-, dimethyl ester",439.95,1.0,COC(=O)C=C(CC(=O)OC)OP(=O)(OC)OC,le15
10953,"2-Anthraquinonecarboxaldehyde, 3-hydroxy-1-methoxy-",478.05,1.0,COc1c(C=O)c(O)cc2c1C(=O)c1ccccc1C2=O,le15
10954,"Phthalic acid, bis(2-methoxyethyl) ester (8CI)",404.75,1.0,COCCOC(=O)c1ccccc1C(=O)OCCOC,le15
10955,"9H-Fluorene-9-carboxylic acid, 9-hydroxy-, butyl ester",405.95,1.0,CCCCOC(=O)C1(O)c2ccccc2-c2ccccc21,le15
10956,"Benzoic acid, 3,4,5-trihydroxy-, octyl ester",450.25,1.0,CCCCCCCCOC(=O)c1cc(O)c(O)c(O)c1,le15
10957,"3,6,9,12,15-Pentaoxaheptadecane-1,17-diol",383.15,1.0,OCCOCCOCCOCCOCCOCCO,le15
10958,"Benzenethiol, 2,3,4,5,6-pentachloro-",417.75,1.0,Sc1c(Cl)c(Cl)c(Cl)c(Cl)c1Cl,le15
10959,"Butanedioic acid, dicyclohexyl ester (9CI)",455.35,1.0,O=C(CCC(=O)OC1CCCCC1)OC1CCCCC1,le15
10960,"(1,1'-Biphenyl)-4-ol, 3,5-bis(1,1-dimethylethyl)-",441.05,1.0,CC(C)(C)c1cc(-c2ccccc2)cc(C(C)(C)C)c1O,le15
10961,"1,4-Benzenediamine, N-(1,4-dimethylpentyl)-N'-phenyl-",525.8499999999998,1.0,CC(C)CCC(C)Nc1ccc(Nc2ccccc2)cc1,le15
10962,"Ethanol, 2,2,2-tribromo-",372.85,1.0,OCC(Br)(Br)Br,le15
10963,1-bromo-2-iodobenzene,377.95,1.0,Brc1ccccc1I,le15
10964,1-bromo-4-iodobenzene,375.05,1.0,Brc1ccc(I)cc1,le15
10965,1-bromo-3-iodobenzene,378.45,1.0,Brc1cccc(I)c1,le15
10966,"Adenine, N-hydroxy-9-ribofuranosyl-",652.55,1.0,OC[C@H]1OC(n2cnc3c(NO)ncnc32)[C@H](O)[C@@H]1O,le15
10967,"Morphinan-3-ol, 17-(2-propenyl)-",487.35,1.0,C=CCN1CC[C@]23CCCC[C@H]2[C@H]1Cc1ccc(O)cc13,le15
10968,"Phosphoric acid, 2-chloroethyl 2,2-dichloroethenyl ethyl ester",397.65,1.0,CCOP(=O)(OC=C(Cl)Cl)OCCCl,le15
10969,Octadecanamide,480.65,1.0,CCCCCCCCCCCCCCCCCC(N)=O,le15
10970,"Benzene, 2,4-dichloro-1-(4-nitrophenoxy)-",445.05,1.0,O=[N+]([O-])c1ccc(Oc2ccc(Cl)cc2Cl)cc1,le15
10971,"Isoflavone, 5,7-dihydroxy-4'-methoxy- (8CI)",471.35,1.0,COc1ccc(-c2coc3cc(O)cc(O)c3c2=O)cc1,le15
10972,"9,10-Anthracenedione, 1,8-dihydroxy-3-methoxy-6-methyl- (9CI)",488.55,1.0,COc1cc(O)c2c(c1)C(=O)c1cc(C)cc(O)c1C2=O,le15
10973,"9H-Purine-6(1H)-thione, 9-beta-D-ribofuranosyl- (8CI)",659.15,1.0,OC[C@H]1O[C@@H](n2cnc3c(=S)[nH]cnc32)[C@H](O)[C@@H]1O,le15
10974,"7H-Benzimidazo(2,1-a)benz(de)isoquinolin-7-one, 10-methyl-",599.3499999999998,1.0,Cc1ccc2nc3c4cccc5cccc(c(=O)n3c2c1)c54,le15
10975,"Acetanilide, 4',4'''-oxybis- (8CI)",562.25,1.0,CC(=O)Nc1ccc(Oc2ccc(NC(C)=O)cc2)cc1,le15
10976,4'-Phenylchalcone,478.65,1.0,O=C(C=Cc1ccccc1)c1ccc(-c2ccccc2)cc1,le15
10977,"1,2-Dihydro-3-methylbenz(j)aceanthrylen- 1-ol",479.95,1.0,Cc1ccc2cc3c(ccc4ccccc43)c3c2c1CC3O,le15
10978,"Benzeneacetamide, N-ethyl-alpha-(hydroxymethyl)-N-(4-pyridinylmethyl)-",524.95,1.0,CCN(Cc1ccncc1)C(=O)C(CO)c1ccccc1,le15
10979,"2-Propenoic acid, 3-phenyl-, 1-ethenyl-1,5-dimethyl-4-hexenyl ester",489.25,1.0,C=CC(C)(CCC=C(C)C)OC(=O)C=Cc1ccccc1,le15
10980,"10H-Phenothiazine-10-propanamine, N,N-dimethyl- (9CI)",476.55,1.0,CN(C)CCCN1c2ccccc2Sc2ccccc21,le15
10981,"Heptadecanoic acid, 16-methyl-",498.75,1.0,CC(C)CCCCCCCCCCCCCCC(=O)O,le15
10982,octadecanoic acid,435.55,1.0,CCCCCCCCCCCCCCCCCC(=O)O,le15
10983,"Myristic acid, butyl ester (8CI)",431.65,1.0,CCCCCCCCCCCCCC(=O)OCCCC,le15
10984,"Urea, tetrabutyl-",405.15,1.0,CCCCN(CCCC)C(=O)N(CCCC)CCCC,le15
10985,"Benzene, hexachloro-",424.25,1.0,Clc1c(Cl)c(Cl)c(Cl)c(Cl)c1Cl,le15
10986,"2H-1,4-Benzodiazepin-2-one, 7-chloro-1,3-dihydro-1-methyl-5-phenyl-",527.75,1.0,CN1C(=O)CN=C(c2ccccc2)c2cc(Cl)ccc21,le15
10987,"1,1,1,2,2,3,3-heptachloropropane",376.05,1.0,ClC(Cl)C(Cl)(Cl)C(Cl)(Cl)Cl,le15
10988,"1,1,1,2,3,3,3-heptachloropropane",372.75,1.0,ClC(C(Cl)(Cl)Cl)C(Cl)(Cl)Cl,le15
10989,"Benzamide, N-9H-fluoren-2-yl- (9CI)",518.65,1.0,O=C(Nc1ccc2c(c1)Cc1ccccc1-2)c1ccccc1,le15
10990,"Morphinan-6-one, 4,5alpha-epoxy-3-hydroxy-17-methyl- (8CI)",514.55,1.0,CN1CC[C@]23c4c5ccc(O)c4O[C@H]2C(=O)CC[C@H]3[C@H]1C5,le15
10991,"Benzoic acid, 4-((dipropylamino)sulfonyl)-",491.85,1.0,CCCN(CCC)S(=O)(=O)c1ccc(C(=O)O)cc1,le15
10992,"Ethanol, 2-chloro-, phosphate (3:1)",505.35,1.0,O=P(O)(O)O.OCCCl.OCCCl.OCCCl,le15
10993,"Dodecanoic acid, 2-thiocyanatoethyl ester (9CI)",465.15,1.0,CCCCCCCCCCCC(=O)OCCSC#N,le15
10994,"Ethanol, 2-(bis(2-ethylhexyl)amino)-",413.05,1.0,CCCCC(CC)CN(CCO)CC(CC)CCCC,le15
10995,"1,3-Isobenzofurandione, 4,5,6,7-tetrachloro-",434.75,1.0,O=C1OC(=O)c2c(Cl)c(Cl)c(Cl)c(Cl)c21,le15
10996,"2,4-Imidazolidinedione, 1,3-dibromo-5,5-dimethyl-",378.25,1.0,CC1(C)C(=O)N(Br)C(=O)N1Br,le15
10997,"1,4-dibromonaphthalene",454.55,1.0,Brc1ccc(Br)c2ccccc12,le15
10998,"9,10-Anthracenedione, 1,4,5,8-tetrahydroxy-2-methyl- (9CI)",591.65,1.0,Cc1cc(O)c2c(c1O)C(=O)c1c(O)ccc(O)c1C2=O,le15
10999,"Anthraquinone, 1,4,5,7-tetrahydroxy-2-methyl- (8CI)",621.75,1.0,Cc1cc(O)c2c(c1O)C(=O)c1cc(O)cc(O)c1C2=O,le15
11000,"9,10-Anthracenedione, 1,3,8-trihydroxy-6-(hydroxymethyl)-",647.55,1.0,O=C1c2cc(O)cc(O)c2C(=O)c2c(O)cc(CO)cc21,le15
11001,"4H-1-Benzopyran-4-one, 3,5,7-trihydroxy-2-(4-hydroxyphenyl)-",499.25,1.0,O=c1c(O)c(-c2ccc(O)cc2)oc2cc(O)cc(O)c12,le15
11002,"Xanthen-9-one, 1,3,7-trimethoxy-",477.55,1.0,COc1cc(OC)c2c(=O)c3cc(OC)ccc3oc2c1,le15
11003,"5,5'-Methylenedianthranilic acid",575.55,1.0,Nc1ccc(Cc2ccc(N)c(C(=O)O)c2)cc1C(=O)O,le15
11004,"Phosphoric acid, dibutyl phenyl ester",442.25,1.0,CCCCOP(=O)(OCCCC)Oc1ccccc1,le15
11005,"Azoxybenzene, 4,4'-diethoxy- (8CI)",493.05,1.0,CCOc1ccc(N=[N+]([O-])c2ccc(OCC)cc2)cc1,le15
11006,bis(2-ethylhexyl) carbonate,404.45,1.0,CCCCC(CC)COC(=O)OCC(CC)CCCC,le15
11007,1-Octadecanethiol,458.15,1.0,CCCCCCCCCCCCCCCCCCS,le15
11008,"Propane, 2,2-difluoro-1,1,1,3,3,3-hexachloro-",352.95,1.0,FC(F)(C(Cl)(Cl)Cl)C(Cl)(Cl)Cl,le15
11009,tribromo(chloro)methane,325.95,1.0,ClC(Br)(Br)Br,le15
11010,4-Bromochalcone,352.75,1.0,O=C(C=Cc1ccc(Br)cc1)c1ccccc1,le15
11011,"2-Propen-1-one, 1-(4-bromophenyl)-3-phenyl-",355.54999999999984,1.0,O=C(C=Cc1ccccc1)c1ccc(Br)cc1,le15
11012,"Benzene, 1,1'-sulfonylbis(4-chloro-",484.35,1.0,O=S(=O)(c1ccc(Cl)cc1)c1ccc(Cl)cc1,le15
11013,Bis(2-hydroxy-5-chlorophenyl)sulfide,478.95,1.0,Oc1ccc(Cl)cc1Sc1cc(Cl)ccc1O,le15
11014,"Benzenamine, N-methyl-N,2,4,6-tetranitro-",531.55,1.0,CN(c1c([N+](=O)[O-])cc([N+](=O)[O-])cc1[N+](=O)[O-])[N+](=O)[O-],le15
11015,"2,2,3-trichloro-1,1,1,3,4,4,4-heptafluorobutane",295.95,1.0,FC(F)(F)C(F)(Cl)C(Cl)(Cl)C(F)(F)F,le15
11016,"Piperidine, 4-(5H-dibenzo(a,d)cyclohepten-5-ylidene)-1-methyl-",467.65,1.0,CN1CCC(=C2c3ccccc3C=Cc3ccccc32)CC1,le15
11017,"N,N-dibenzyl-1-phenylmethanamine",476.15,1.0,c1ccc(CN(Cc2ccccc2)Cc2ccccc2)cc1,le15
11018,Tribenzylamine,476.0,1.0,c1ccc(CN(Cc2ccccc2)Cc2ccccc2)cc1,le15
11019,"7,12-Dihydroxymethylbenz(a)anthracene",556.65,1.0,OCc1c2ccccc2c(CO)c2c1ccc1ccccc12,le15
11020,"Estra-1,3,5(10)-triene-3,16,17-triol, (16alpha,17beta)-",493.95,1.0,C[C@]12CC[C@@H]3c4ccc(O)cc4CC[C@H]3[C@@H]1C[C@@H](O)[C@@H]2O,le15
11021,"Phosphonodithioic acid, ethyl-, S-(p-tert-butylphenyl) O-methyl ester",444.35,1.0,CCP(=S)(OC)Sc1ccc(C(C)(C)C)cc1,le15
11022,"2-Cyclopenten-1-one, 2,3,4,4,5,5-hexachloro-",375.35,1.0,O=C1C(Cl)=C(Cl)C(Cl)(Cl)C1(Cl)Cl,le15
11023,1-chlorooctadecane,457.15,1.0,CCCCCCCCCCCCCCCCCCCl,le15
11024,"Phosphoramidodithioic acid, butyl-, O-ethyl S-phenyl ester",451.75,1.0,CCCCNP(=S)(OCC)Sc1ccccc1,le15
11025,"Cyclopentanecarboxylic acid, 1-phenyl-, 2-(diethylamino)ethyl ester",397.95,1.0,CCN(CC)CCOC(=O)C1(c2ccccc2)CCCC1,le15
11026,"Benzimidazole, 4,5,6-trichloro-2-(trifluoromethyl)-",451.45,1.0,FC(F)(F)c1nc2cc(Cl)c(Cl)c(Cl)c2[nH]1,le15
11027,"Benzonitrile, 4-hydroxy-3-iodo-5-nitro-",396.35,1.0,N#Cc1cc(I)c(O)c([N+](=O)[O-])c1,le15
11028,"Pyrophosphoric acid, tetraethyl ester",398.75,1.0,CCOP(=O)(OCC)OP(=O)(OCC)OCC,le15
11029,"2,4-Pyrimidinediamine, 5-((3,4,5-trimethoxyphenyl)methyl)-",545.05,1.0,COc1cc(Cc2cnc(N)nc2N)cc(OC)c1OC,le15
11030,"Acetamide, N-(4-((4-aminophenyl)sulfonyl)phenyl)- (9CI)",583.45,1.0,CC(=O)Nc1ccc(S(=O)(=O)c2ccc(N)cc2)cc1,le15
11031,"Phosphorothioic acid, O,O-diethyl S-(2-(ethylsulfonyl)ethyl) ester",478.75,1.0,CCOP(=O)(OCC)SCCS(=O)(=O)CC,le15
11032,"Phosphorodithioic acid, O,O-diethyl S-((ethylsulfinyl)ethyl) ester",474.15,1.0,CCOP(=S)(OCC)SCCS(=O)CC,le15
11033,"1,6,10,14-Hexadecatetraen-3-ol, 3,7,11,15-tetramethyl-, (6E,10E)-",433.15,1.0,C=CC(C)(O)CC/C=C(\C)CC/C=C(\C)CCC=C(C)C,le15
11034,"Urea, 3-(p-(p-chlorophenoxy)phenyl)-1,1-dimethyl-",504.75,1.0,CN(C)C(=O)Nc1ccc(Oc2ccc(Cl)cc2)cc1,le15
11035,"Phosphorothioic acid, O,O-diethyl O-(4-nitrophenyl) ester",446.65,1.0,CCOP(=S)(OCC)Oc1ccc([N+](=O)[O-])cc1,le15
11036,"Phosphorothioic acid, O,S-diethyl O-(4-nitrophenyl) ester (9CI)",466.25,1.0,CCOP(=O)(Oc1ccc([N+](=O)[O-])cc1)SCC,le15
11037,"Benzoic acid, 2-((1-naphthalenylamino)carbonyl)- (9CI)",499.55,1.0,O=C(O)c1ccccc1C(=O)Nc1cccc2ccccc12,le15
11038,1-bromopentadecane,406.85,1.0,CCCCCCCCCCCCCCCBr,le15
11039,"2-Pyrazolin-5-one, 4-dimethylaminomethylene-1,3-diphenyl-",467.65,1.0,CN(C)C=C1C(=O)N(c2ccccc2)N=C1c1ccccc1,le15
11040,"11H-Dibenz(b,e)azepine, 6-(4-methyl-1-piperazinyl)-",491.25,1.0,CN1CCN(C2=Nc3ccccc3Cc3ccccc32)CC1,le15
11041,"Phosphoric acid, dimethyl 1,2,2,2-tetrachloroethyl ester",384.35,1.0,COP(=O)(OC)OC(Cl)C(Cl)(Cl)Cl,le15
11042,"1,1'-Biphenyl, 2,2',4,4'-tetrachloro-",433.45,1.0,Clc1ccc(-c2ccc(Cl)cc2Cl)c(Cl)c1,le15
11043,"Glycine, N,N'-1,2-ethanediylbis(N-(carboxymethyl)-",598.3499999999998,1.0,O=C(O)CN(CCN(CC(=O)O)CC(=O)O)CC(=O)O,le15
11044,"2-Naphthalenamine, 1-(2-(4-nitrophenyl)diazenyl)-",558.95,1.0,Nc1ccc2ccccc2c1N=Nc1ccc([N+](=O)[O-])cc1,le15
11045,"Benzenamine, 4,4'-(1,3-phenylenebis(oxy))bis-",544.05,1.0,Nc1ccc(Oc2cccc(Oc3ccc(N)cc3)c2)cc1,le15
11046,"Phosphorodithioic acid, O,O-diethyl S-((ethylsulfonyl)methyl) ester",467.25,1.0,CCOP(=S)(OCC)SCS(=O)(=O)CC,le15
11047,"1H-Indene-2-ethanamine, N,N-dimethyl-3-(1-(2-pyridinyl)ethyl)- (9CI)",478.75,1.0,CC(C1=C(CCN(C)C)Cc2ccccc21)c1ccccn1,le15
11048,"2-Propanol, 1,1',1'',1'''-(1,2-ethanediyldinitrilo)tetrakis-",373.15,1.0,CC(O)CN(CCN(CC(C)O)CC(C)O)CC(C)O,le15
11049,"Cyclotetrasilazane, 2,2,4,4,6,6,8,8-octamethyl-",339.15,1.0,C[Si]1(C)N[Si](C)(C)N[Si](C)(C)N[Si](C)(C)N1,le15
11050,"Propionic acid, 2-methyl-2-phenoxy-, 2-morpholinoethyl ester (8CI)",473.75,1.0,CC(C)(Oc1ccccc1)C(=O)OCCN1CCOCC1,le15
11051,"Piperidine, 1-methyl-4-(9H-thioxanthen-9-ylidene)- (9CI)",492.85,1.0,CN1CCC(=C2c3ccccc3Sc3ccccc32)CC1,le15
11052,"1,2,3,4,5-pentafluoro-6-iodobenzene",334.45,1.0,Fc1c(F)c(F)c(I)c(F)c1F,le15
11053,"1-Iodo-2,4-dinitrobenzene",439.75,1.0,O=[N+]([O-])c1ccc(I)c([N+](=O)[O-])c1,le15
11054,"Ethanone, 1-(4-(1,1-dimethylethyl)-2,6-dimethyl-3,5-dinitrophenyl)-",426.35,1.0,CC(=O)c1c(C)c([N+](=O)[O-])c(C(C)(C)C)c([N+](=O)[O-])c1C,le15
11055,"3,5-Pyrazolidinedione, 1,2-diphenyl-4-propyl-",444.45,1.0,CCCC1C(=O)N(c2ccccc2)N(c2ccccc2)C1=O,le15
11056,"Benzo(b)thiophene-6-carboximidamide, 2-(4-(aminoiminomethyl)phenyl)-",541.65,1.0,N=C(N)c1ccc2cc(-c3ccc(C=NN)cc3)sc2c1,le15
11057,"Linoleic acid, methyl ester (8CI)",370.15,1.0,CCCCC/C=C\C/C=C\CCCCCCCC(=O)OC,le15
11058,"1,2,2-tribromobutane",357.04999999999984,1.0,CCC(Br)(Br)CBr,le15
11059,"2,2,3-tribromobutane",350.35,1.0,CC(Br)C(C)(Br)Br,le15
11060,"1,2-dichloro-3,3,4,4,5,5,6,6-octafluorocyclohexene",306.75,1.0,FC1(F)C(Cl)=C(Cl)C(F)(F)C(F)(F)C1(F)F,le15
11061,"Benzeneacetonitrile, alpha-(beta-D-glucopyranosyloxy)- (9CI)",545.65,1.0,N#CC(O[C@@H]1O[C@H](CO)[C@@H](O)[C@H](O)[C@H]1O)c1ccccc1,le15
11062,"2H-1,4-Benzodiazepin-2-one, 1,3-dihydro-1-methyl-7-nitro-5-phenyl-",553.8499999999998,1.0,CN1C(=O)CN=C(c2ccccc2)c2cc([N+](=O)[O-])ccc21,le15
11063,"Dibenz(a,j)acridine, 7-oxide",572.8499999999998,1.0,[O-][n+]1c2ccc3ccccc3c2cc2c3ccccc3ccc21,le15
11064,"4H-Dibenzo(de,g)quinoline, 5,6,6a,7-tetrahydro-1,2-dimethoxy-6-methyl-",425.05,1.0,COc1cc2c3c(c1OC)-c1ccccc1CC3N(C)CC2,le15
11065,1-isocyanatooctadecane,418.05,1.0,CCCCCCCCCCCCCCCCCCN=C=O,le15
11066,"2H-1,2,4-Benzothiadiazine-7-sulfonamide, 6-chloro-, 1,1-dioxide",595.15,1.0,NS(=O)(=O)c1cc2c(cc1Cl)N=CNS2(=O)=O,le15
11067,"Benzenamine, 2,4-dibromo-6-nitro-",425.65,1.0,Nc1c(Br)cc(Br)cc1[N+](=O)[O-],le15
11068,"1,1,1,2,2,3,3-heptafluoro-3-iodopropane",276.54999999999995,1.0,FC(F)(F)C(F)(F)C(F)(F)I,le15
11069,"1,1,1,2,3,3,3-heptafluoro-2-iodopropane",277.85,1.0,FC(F)(F)C(F)(I)C(F)(F)F,le15
11070,"Pentanedioic acid, hexafluoro-, diethyl ester",360.04999999999984,1.0,CCOC(=O)C(F)(F)C(F)(F)C(F)(F)C(=O)OCC,le15
11071,"1,3,5,7-Tetrazocine, octahydro-1,3,5,7-tetranitro-",774.95,1.0,O=[N+]([O-])N1CN([N+](=O)[O-])CN([N+](=O)[O-])CN([N+](=O)[O-])C1,le15
11072,1-iodododecane,386.65,1.0,CCCCCCCCCCCCI,le15
11073,"1H-Imidazole, 2,4,5-triphenyl-",545.75,1.0,c1ccc(-c2nc(-c3ccccc3)c(-c3ccccc3)[nH]2)cc1,le15
11074,"5H-Dibenz(b,f)azepin-2-ol, 10,11-dihydro-5-(3-(dimethylamino)propyl)-",512.65,1.0,CN(C)CCCN1c2ccccc2CCc2cc(O)ccc21,le15
11075,"10H-Phenothiazine, 10-((1-methyl-3-pyrrolidinyl)methyl)-",487.25,1.0,CN1CCC(CN2c3ccccc3Sc3ccccc32)C1,le15
11076,"1H-Isoindole-1,3(2H)-dione, 2-((trichloromethyl)thio)-",428.85,1.0,O=C1c2ccccc2C(=O)N1SC(Cl)(Cl)Cl,le15
11077,henicosane,386.15,1.0,CCCCCCCCCCCCCCCCCCCCC,le15
11078,"Cyclotetrasiloxane, octamethyl-",336.35,1.0,C[Si]1(C)O[Si](C)(C)O[Si](C)(C)O[Si](C)(C)O1,le15
11079,"Acetic acid, 2,2,2-tribromo-",370.15,1.0,O=C(O)C(Br)(Br)Br,le15
11080,bis(trichloromethyl) carbonate,326.45,1.0,O=C(OC(Cl)(Cl)Cl)OC(Cl)(Cl)Cl,le15
11081,"Phenol, 2,6-dibromo-4-nitro-",407.05,1.0,O=[N+]([O-])c1cc(Br)c(O)c(Br)c1,le15
11082,"2-Anthracenecarboxylic acid, 9,10-dihydro-1-nitro-9,10-dioxo- (9CI)",525.45,1.0,O=C1c2ccccc2C(=O)c2c1ccc(C(=O)O)c2[N+](=O)[O-],le15
11083,"Benzene, 1-(1,1-dimethylethyl)-3,5-dimethyl-2,4,6-trinitro-",447.35,1.0,Cc1c([N+](=O)[O-])c(C)c([N+](=O)[O-])c(C(C)(C)C)c1[N+](=O)[O-],le15
11084,"1,3,5-Triazine-2,4,6(1H,3H,5H)-trione, 1,3,5-tris(oxiranylmethyl)-",530.05,1.0,O=c1n(CC2CO2)c(=O)n(CC2CO2)c(=O)n1CC1CO1,le15
11085,"1,3,5-Triazine, 2,4,6-tris(oxiranylmethoxy)- (9CI)",453.05,1.0,C(Oc1nc(OCC2CO2)nc(OCC2CO2)n1)C1CO1,le15
11086,"Benzenesulfonamide, N-(5-tert-butyl-1,3,4-thiadiazol-2-yl)-",498.75,1.0,CC(C)(C)c1nnc(NS(=O)(=O)c2ccccc2)s1,le15