,smiles,compound,flashpoint,source,pure substance
2285,CC(C(=O)O)CCCC,2-methylhexanoicacid,378.0,carroll11,1
2286,CC(CC(=O)O)CCC,3-methylhexanoicacid,376.0,carroll11,1
2287,CC(CCC(=O)O)CC,4-methylhexanoicacid,376.0,carroll11,1
2288,C(C)(=O)OC(C)=O,aceticanhydride,322.0,carroll11,1
2289,C(CCC)(=O)OC(CCC)=O,butanoicanhydride,355.0,carroll11,1
2290,C(CCCC)(=O)OC(CCCC)=O,pentanoicanhydride,374.0,carroll11,1
2291,C(CCCCC)(=O)OC(CCCCC)=O,hexanoicanhydride,386.0,carroll11,1
2292,C(CCCCCC)(=O)OC(CCCCCC)=O,heptanoicanhydride,403.0,carroll11,1
2293,C(C(C)C)(=O)OC(C(C)C)=O,isobutanoicanhydride,340.0,carroll11,1
2294,C(C(C)(C)C)(=O)OC(C(C)(C)C)=O,pivalicanhydride,336.0,carroll11,1
2295,CC(CC(=O)OC(CC(C)C)=O)C,3-methylbutanoicanhydride,364.0,carroll11,1
2296,C(C)(C)N,isopropylamine,241.0,carroll11,1
2297,C(C)(C)(C)N,tert-butylamine,235.0,carroll11,1
2298,C(CC)N,propylamine,243.0,carroll11,1
2299,C1(CC1)N,cyclopropylamine,248.0,carroll11,1
2300,CNC(C)C,N-methylisopropylamine,253.0,carroll11,1
2301,C(C)NCC,diethylamine,250.0,carroll11,1
2302,C(C)(CC)N,sec-butylamine,254.0,carroll11,1
2303,C(C=C)CN,allylmethylamine,265.0,carroll11,1
2304,C(C(C)C)N,isobutylamine,263.0,carroll11,1
2305,C(CCC)N,butylamine,266.0,carroll11,1
2306,C1(CCC1)N,cyclobutylamine,269.0,carroll11,1
2307,C(C)(C)NC(C)C,diisopropylamine,266.0,carroll11,1
2308,CCC(CC)N,3-pentanamine,275.0,carroll11,1
2309,CNCCCC,N-methylbutylamine,275.0,carroll11,1
2310,C(CCCC)N,pentylamine,277.0,carroll11,1
2311,C1(CCCC1)N,cyclopentylamine,285.0,carroll11,1
2312,C(CC)NCCC,dipropylamine,280.0,carroll11,1
2313,C(CCCCC)N,hexylamine,300.0,carroll11,1
2314,C(C(C)C)NCC(C)C,diisobutylamine,303.0,carroll11,1
2315,C(CCCCCC)N,heptylamine,317.0,carroll11,1
2316,C(CCC)NCCCC,dibutylamine,320.0,carroll11,1
2317,C(C)C(CN)CCCC,2-ethyl-1-hexanamine,323.0,carroll11,1
2318,C(CCCCCCC)N,octylamine,333.0,carroll11,1
2319,C(CCCCCCCC)N,nonylamine,347.0,carroll11,1
2320,C(CCCCCCCCC)N,1-decanamine,358.0,carroll11,1
2321,C(C)NC1CCCCC1,N-ethylcyclohexanamine,318.0,carroll11,1
2322,C(C)(CC)NC(C)CC,di-sec-butylamine,297.0,carroll11,1
2323,NCC1CCCCC1,(aminomethyl)cyclohexane,316.0,carroll11,1
2324,C(C)N(CC)C,N-ethyl-N-methylethanamine,250.0,carroll11,1
2325,C(C)N(CC)CC,triethylamine,264.0,carroll11,1
2326,C(CC)N(CCC)CCC,tripropylamine,308.0,carroll11,1
2327,C(CCC)N(CCCC)CCCC,tributylamine,344.0,carroll11,1
2328,C(C)N(C)C,N-ethyldimethylamine,237.0,carroll11,1
2329,C(C)N1CCCCC1,1-ethylpiperidine,291.0,carroll11,1
2330,NCCNCCN,diethylenetriamine,363.0,carroll11,1
2331,CN(C)C1CCCCC1,"N,N-dimethylcyclohexylamine",314.0,carroll11,1
2332,C(CN)N,"1,2-ethanediamine",307.0,carroll11,1
2333,C(CCN)N,"1,3-propanediamine",321.0,carroll11,1
2334,CN(CCCN)C,"N,N-dimethyl-1,3-propanediamine",305.0,carroll11,1
2335,CN(C=O)C,"N,N-dimethylformamide",330.0,carroll11,1
2336,CN(C(C)=O)C,"N,N-dimethylacetamide",339.0,carroll11,1
2337,C(C)N(C=O)CC,"N,N-diethylformamide",338.0,carroll11,1
2338,C(C)N(C(C)=O)CC,"N,N-diethylacetamide",349.0,carroll11,1
2339,C(C)NC=O,N-ethylformamide,359.0,carroll11,1
2340,CNC=O,N-methylformamide,371.0,carroll11,1
2341,C(C)NC(C)=O,N-ethylacetamide,379.0,carroll11,1
2342,C(CCC)NC(C)=O,N-butylacetamide,388.0,carroll11,1
2343,C(C)(C)N(C=O)C(C)C,"N,N-diisopropylformamide",348.0,carroll11,1
2344,C(C)#N,acetonitrile,275.0,carroll11,1
2345,C(CC)#N,propionitrile,279.0,carroll11,1
2346,C(CCC)#N,butyronitrile,291.0,carroll11,1
2347,C(CCCC)#N,pentanenitrile,305.0,carroll11,1
2348,C(CCCCC)#N,hexanenitrile,320.0,carroll11,1
2349,C(CCCCCC)#N,heptanenitrile,331.0,carroll11,1
2350,C(CCCCCCC)#N,octanenitrile,347.0,carroll11,1
2351,C(CCCCCCCC)#N,nonanenitrile,355.0,carroll11,1
2352,C(CCCCCCCCC)#N,decanenitrile,365.0,carroll11,1
2353,CC(C#N)(C)C,"2,2-dimethylpropanenitrile",277.0,carroll11,1
2354,C(C(C)C)#N,isobutyronitrile,281.0,carroll11,1
2355,C1(CC1)C#N,cyclopropanecarbonitrile,305.0,carroll11,1
2356,CC(CC#N)C,3-methylbutanenitrile,301.0,carroll11,1
2357,C(#N)CCCCC#N,"1,4-dicyanobutane",432.0,carroll11,1
2358,C(CC)S,1-propanethiol,259.0,carroll11,1
2359,C(CCC)S,1-butanethiol,275.0,carroll11,1
2360,C(CCCC)S,1-pentanethiol,291.0,carroll11,1
2361,C(CCCCC)S,1-hexanethiol,303.0,carroll11,1
2362,C(CCCCCC)S,1-heptanethiol,319.0,carroll11,1
2363,C(CCCCCCC)S,1-octanethiol,341.0,carroll11,1
2364,C(CCCCCCCC)S,1-nonanethiol,352.0,carroll11,1
2365,C(CCCCCCCCC)S,1-decanethiol,372.0,carroll11,1
2366,C(CCCCCCCCCC)S,1-undecanethiol,382.0,carroll11,1
2367,CC(CC)S,2-butanethiol,250.0,carroll11,1
2368,CC(CCC)S,2-pentanethiol,288.0,carroll11,1
2369,CC(C)(C)S,2-methyl-2-propanethiol,249.0,carroll11,1
2370,CC(CS)CC,2-methyl-1-butanethiol,292.0,carroll11,1
2371,CC(C(C)S)C,3-methyl-2-butanethiol,282.0,carroll11,1
2372,C1(CCCC1)S,cyclopentanethiol,298.0,carroll11,1
2373,C1(CCCCC1)S,cyclohexanethiol,314.0,carroll11,1
2374,C(C)C(CC)(CC)S,3-ethyl-3-pentanethiol,307.0,carroll11,1
2375,CC(C)(CCC)S,2-methyl-2-pentanethiol,293.0,carroll11,1
2376,CCC(CCC)S,3-hexanethiol,303.0,carroll11,1
2377,CSC,dimethylsulfide,237.0,carroll11,1
2378,C(C)SCC,diethylsulfide,263.0,carroll11,1
2379,C(CC)SCCC,dipropylsulfide,301.0,carroll11,1
2380,C(CCC)SCCCC,dibutylsulfide,333.0,carroll11,1
2381,C(C)SC,ethylmethylsulfide,255.0,carroll11,1
2382,C(C)(C)(C)SC,tert-butylmethylsulfide,270.0,carroll11,1
2383,S1CCCC1,thiacyclopentane,286.0,carroll11,1
2384,S1CCCCC1,thiacyclohexane,294.0,carroll11,1
2385,C(C)(C)(C)SC(C)(C)C,di-tert-butylsulfide,300.0,carroll11,1
2386,C(C)(CC)SC(C)CC,di-sec-butylsulfide,312.0,carroll11,1
2387,C(CC(C)C)SCCC(C)C,diisopentylsulfide,350.0,carroll11,1
2388,C(C=C)SCC=C,diallylsulfide,296.0,carroll11,1
2389,C(C=C)SCC,allylethylsulfide,289.0,carroll11,1
2390,C(C=C)SCCC,allylpropylsulfide,302.0,carroll11,1
2391,ClCCCCCC,1-chlorohexane,299.0,carroll11,1
2392,ClCCCCCCC,1-chloroheptane,314.0,carroll11,1
2393,ClCCCCCCCC,1-chlorooctane,331.0,carroll11,1
2394,ClCCCCCCCCC,1-chlorononane,347.0,carroll11,1
2395,ClCCCCCCCCCC,1-chlorodecane,356.0,carroll11,1
2396,ClC(C)C,2-chloropropane,241.0,carroll11,1
2397,ClC(C)CC,2-chlorobutane,258.0,carroll11,1
2398,ClC(C)CCC,2-chloropentane,274.0,carroll11,1
2399,ClCC=C,3-chloropropene,245.0,carroll11,1
2400,ClC(C)(C)C,2-chloro-2-methylpropane,250.0,carroll11,1
2401,ClCC(C)C,1-chloro-2-methylpropane,256.0,carroll11,1
2402,ClC1CCCC1,chlorocyclopentane,288.0,carroll11,1
2403,ClC1CCCCC1,chlorocyclohexane,301.0,carroll11,1
2404,ClC(CC)Cl,"1,1-dichloropropane",280.0,carroll11,1
2405,ClC(C)Cl,"1,1-dichloroethane",263.0,carroll11,1
2406,ClCCCl,"1,2-dichloroethane",286.0,carroll11,1
2407,ClCC(C)Cl,"1,2-dichloropropane",286.0,carroll11,1
2408,ClCCCCl,"1,3-dichloropropane",294.0,carroll11,1
2409,BrCC,bromoethane,253.0,carroll11,1
2410,BrCCC,1-bromopropane,269.0,carroll11,1
2411,BrCCCC,1-bromobutane,283.0,carroll11,1
2412,BrCCCCC,1-bromopentane,303.0,carroll11,1
2413,BrCCCCCC,1-bromohexane,320.0,carroll11,1
2414,BrCCCCCCC,1-bromoheptane,334.0,carroll11,1
2415,BrCCCCCCCC,1-bromooctane,351.0,carroll11,1
2416,BrC(C)CCC,2-bromopentane,294.0,carroll11,1
2417,BrC(C)CCCC,2-bromohexane,313.0,carroll11,1
2418,BrC(CC)CC,3-bromopentane,292.0,carroll11,1
2419,BrC1CCCC1,bromocyclopentane,308.0,carroll11,1
2420,BrC(CC)CCC,3-bromohexane,313.0,carroll11,1
2421,BrC1CCCCC1,bromocyclohexane,335.0,carroll11,1
2422,ICC,iodoethane,268.0,carroll11,1
2423,IC(C)CC,2-iodobutane,297.0,carroll11,1
2424,ICCCC,1-iodobutane,306.0,carroll11,1
2425,IC(C)CCC,2-iodopentane,318.0,carroll11,1
2426,IC1CCCC1,iodocyclopentane,325.0,carroll11,1
2427,IC(CC)CCC,3-iodohexane,328.0,carroll11,1
2428,ICCCCCC,1-iodohexane,334.0,carroll11,1
2429,ICCCCCCC,1-iodoheptane,352.0,carroll11,1
2430,ICCCCCCCC,1-iodooctane,368.0,carroll11,1
2431,CSSC,dimethyldisulfide,283.0,carroll11,1
2432,C(C)SSCC,diethyldisulfide,312.0,carroll11,1
2433,C(CC)SSCCC,dipropyldisulfide,339.0,carroll11,1
2434,C(C)(C)(C)SSC(C)(C)C,di-tert-butyldisulfide,340.0,carroll11,1
2435,C(CCC)SSCCCC,dibutyldisulfide,366.0,carroll11,1
2436,C(C)SSCCC,ethylpropyldisulfide,330.0,carroll11,1
2437,[N+](=O)([O-])C1CCCCC1,nitrocyclohexane,354.0,carroll11,1
2438,[N+](=O)([O-])C1CCCC1,nitrocyclopentane,340.0,carroll11,1
2439,[N+](=O)([O-])CC,nitroethane,301.0,carroll11,1
2440,[N+](=O)([O-])C(C)C,2-nitropropane,301.0,carroll11,1
2441,[N+](=O)([O-])CCC,1-nitropropane,307.0,carroll11,1
2442,[N+](=O)([O-])CCCC,1-nitrobutane,320.0,carroll11,1
2443,[N+](=O)([O-])CCCCC,1-nitropentane,334.0,carroll11,1
2444,[N+](=O)([O-])CCCCCC,1-nitrohexane,345.0,carroll11,1
2445,[N+](=O)([O-])C(C)CCC,2-nitropentane,319.0,carroll11,1
2446,C(C)OC=C,ethylvinylether,228.0,carroll11,1
2447,C(C=C)N,allylamine,245.0,carroll11,1
2448,C(=O)C=C,acrolein,254.0,carroll11,1
2449,O1CCC=C1,"2,3-dihydrofuran",249.0,carroll11,1
2450,C(CC)OC=C,propylvinylether,251.0,carroll11,1
2451,C(C=C)OCC,allylethylether,253.0,carroll11,1
2452,C(C)(C)(C)OC=C,tert-butylvinylether,256.0,carroll11,1
2453,CC(C=O)=C,2-methyl-2-propenal,258.0,carroll11,1
2454,ClCC(=C)C,3-chloro-2-methyl-1-propene,261.0,carroll11,1
2455,CC1=CCCO1,"2,3-dihydro-5-methylfuran",261.0,carroll11,1
2456,C(C(C)C)OC=C,isobutylvinylether,264.0,carroll11,1
2457,C(C=C)OCC=C,diallylether,266.0,carroll11,1
2458,C(C=C)OCCC,allylpropylether,268.0,carroll11,1
2459,C(C=C)#N,acrylonitrile,268.0,carroll11,1
2460,COC(C=C)=O,methylacrylate,270.0,carroll11,1
2461,C(C)OC(C=C)=O,ethylacrylate,281.0,carroll11,1
2462,BrCCC=C,4-bromo-1-butene,282.0,carroll11,1
2463,C(C)OC(C(=C)C)=O,ethylmethacrylate,292.0,carroll11,1
2464,COC(C(=C)C)=O,methylmethacrylate,283.0,carroll11,1
2465,C(CCC)OC(C(=C)C)=O,butylmethacrylate,322.0,carroll11,1
2466,C(C(C)C)OC(C(=C)C)=O,isobutylmethacrylate,314.0,carroll11,1
2467,C(=C)(C)CC(=O)[O-],isopropenylacetate,283.0,carroll11,1
2468,C(C=C)C(=O)[O-],allylformate,279.0,carroll11,1
2469,C(C=C)CC(=O)[O-],allylacetate,284.0,carroll11,1
2470,C(C=C)OC(CC)=O,allylpropanoate,298.0,carroll11,1
2471,C(C=C)OC(CCC)=O,allylbutanoate,315.0,carroll11,1
2472,C(\C=C\C)=O,trans-2-butenal,282.0,carroll11,1
2473,ICC=C,3-iodo-1-propene,289.0,carroll11,1
2474,CC(C=C)O,3-buten-2-ol,293.0,carroll11,1
2475,C(=C)CC(=O)[O-],vinylacetate,265.0,carroll11,1
2476,C(=C)OC(CC)=O,vinylpropanoate,279.0,carroll11,1
2477,C(=C)OC(CCC)=O,vinylbutanoate,293.0,carroll11,1
2478,C(C=CC)#N,2-butenenitrile,290.0,carroll11,1
2479,C(C=C)SSCC=C,diallyldisulfide,335.0,carroll11,1
2480,C(CCC=C)O,4-penten-1-ol,316.0,carroll11,1
2481,C(CC=C)#N,3-butenenitrile,294.0,carroll11,1
2482,C(CC)OC(C=C)=O,propylacrylate,297.0,carroll11,1
2483,C1(=C(C(=CC(=C1)C)C)OC1=C(C=C(C=C1C)C)C)C,mesityloxide,298.0,carroll11,1
2484,C=CC1=CC=CC=C1,styrene,304.0,carroll11,1
2485,C(CC)OC(C(=C)C)=O,propylmethacrylate,308.0,carroll11,1
2486,C(CC=C)O,3-buten-1-ol,305.0,carroll11,1
2487,CC(CO)=C,2-methyl-2-propen-1-ol,306.0,carroll11,1
2488,C(CCC)OC(C=C)=O,butylacrylate,310.0,carroll11,1
2489,CC1=CC=C(C=C)C=C1,4-methylstyrene,319.0,carroll11,1
2490,C(CCC=C)CC(=O)[O-],4-pentenylacetate,318.0,carroll11,1
2491,C(CCCC=C)O,5-hexen-1-ol,320.0,carroll11,1
2492,CC=1C=C(C=C)C=CC1,3-methylstyrene,321.0,carroll11,1
2493,C(C=C)(=O)O,acrylicacid,327.0,carroll11,1
2494,C1(C=CCCC1)=O,2-cyclohexen-1-one,329.0,carroll11,1
2495,C(=C\CCCC)/CC(=O)[O-],trans-2-hexenylacetate,331.0,carroll11,1
2496,C(=C)N(C(C)=O)C,N-vinyl-N-methylacetamide,336.0,carroll11,1
2497,CC(CC=O)CCC=C(C)C,"3,7-dimethyl-6-octenal",351.0,carroll11,1
2498,O=C1C=C(CC(C)(C)C1)C,isophorone,357.0,carroll11,1
2499,C(C)C(COC(C=C)=O)CCCC,2-ethylhexylacrylate,359.0,carroll11,1
2500,C(\C=C\CC)(=O)O,trans-2-pentenoicacid,375.0,carroll11,1
2501,C(CC(C)CCC=C(C)C)CC(=O)[O-],citronellylacetate,376.0,carroll11,1
2502,C(CCCCCCCC=C)O,9-decen-1-ol,392.0,carroll11,1
2503,ClCCCC#C,5-chloro-1-pentyne,288.0,carroll11,1
2504,C(C#C)O,2-propyn-1-ol,309.0,carroll11,1
2505,COC(C#CCCCCC)=O,methyl2-octynoate,362.0,carroll11,1
2506,ClC(=C)Cl,"1,1-dichloroethene",248.0,carroll11,1
2507,FC1=CC=CC=C1,fluorobenzene,258.0,carroll11,1
2508,ClC(C)(C)Cl,"2,2-dichloropropane",268.0,carroll11,1
2509,FC1=CC=C(C)C=C1,4-fluorotoluene,285.0,carroll11,1
2510,FC1=CC=C(C=C)C=C1,4-fluorostyrene,308.0,carroll11,1
2511,C(C)C1=CC=C(C=C1)F,1-ethyl-4-fluorobenzene,303.0,carroll11,1
2512,CC1=C(C=C(C=C1)F)C,"1,2-dimethyl-4-fluorobenzene",313.0,carroll11,1
2513,FC1=CC(=CC(=C1)C)C,"1-fluoro-3,5-dimethylbenzene",308.0,carroll11,1
2514,CC(C(C)=O)=O,"2,3-butanedione",283.0,carroll11,1
2515,FC1=C(C)C=CC=C1,2-fluorotoluene,285.0,carroll11,1
2516,FC=1C=C(C)C=CC1,3-fluorotoluene,285.0,carroll11,1
2517,C(C)OC(CC)OCC,"1,1-diethoxypropane",286.0,carroll11,1
2518,CN1CCOCC1,N-methylmorpholine,287.0,carroll11,1
2519,CN1C=CC=C1,1-methylpyrrole,288.0,carroll11,1
2520,N1=CC=CC=C1,pyridine,290.0,carroll11,1
2521,ClCSC,chloromethylmethylsulfide,290.0,carroll11,1
2522,N1=C(C=CC=C1)C,2-picoline,299.0,carroll11,1
2523,ClCC(CC)Cl,"1,2-dichlorobutane",300.0,carroll11,1
2524,ClC1=CC=CC=C1,chlorobenzene,301.0,carroll11,1
2525,COCCCN,3-methoxypropylamine,296.0,carroll11,1
2526,N1C=CC=C1,pyrrole,306.0,carroll11,1
2527,C(C(C)N)N,"1,2-propanediamine",306.0,carroll11,1
2528,ClCCC(C)Cl,"1,3-dichlorobutane",304.0,carroll11,1
2529,N1CCOCC1,morpholine,304.0,carroll11,1
2530,N1=CC(=CC=C1)C,3-picoline,309.0,carroll11,1
2531,N1=CC=C(C=C1)C,4-picoline,311.0,carroll11,1
2532,CC(CC(C)=O)=O,"2,4-pentanedione",311.0,carroll11,1
2533,C(C)OC(CCl)=O,ethylchloroacetate,326.0,carroll11,1
2534,ClCCCCCl,"1,4-dichlorobutane",316.0,carroll11,1
2535,ClC1=C(C)C=CC=C1,2-chlorotoluene,320.0,carroll11,1
2536,ClCCCS,3-chloro-1-propanethiol,316.0,carroll11,1
2537,COCCOC(C)=O,2-methoxyethylacetate,316.0,carroll11,1
2538,CC1=NC=CC(=C1)C,"2,4-dimethylpyridine",320.0,carroll11,1
2539,ClC1=CC=C(C)C=C1,4-chlorotoluene,319.0,carroll11,1
2540,ClC=1C=C(C)C=CC1,3-chlorotoluene,323.0,carroll11,1
2541,C1(=CC=CC=C1)S,benzenethiol,324.0,carroll11,1
2542,BrC1=CC=CC=C1,bromobenzene,324.0,carroll11,1
2543,C(C)OCCOC(C)=O,2-ethoxyethylacetate,324.0,carroll11,1
2544,CC1=C(C=CC=C1)OC,2-methylanisole,324.0,carroll11,1
2545,CC=1C=C(C=CC1)OC,3-methylanisole,325.0,carroll11,1
2546,ClC(CO)C,2-chloro-1-propanol,324.0,carroll11,1
2547,CC1=CC=C(C=C1)OC,4-methylanisole,326.0,carroll11,1
2548,C(C1=CC=CC=C1)OC,benzylmethylether,326.0,carroll11,1
2549,ClCCO,2-chloroethanol,328.0,carroll11,1
2550,CC1=NC(=CC(=C1)C)C,"2,4,6-trimethylpyridine",327.0,carroll11,1
2551,C(CCSC)=O,4-thiapentanal,334.0,carroll11,1
2552,C(C1=CC=CC=C1)OCC,benzylethylether,332.0,carroll11,1
2553,C(C1=CC=CC=C1)Cl,benzylchloride,333.0,carroll11,1
2554,C(C1=CC=CC=C1)=O,benzaldehyde,335.0,carroll11,1
2555,BrC1=CC(=CC=C1)CC,1-bromo-3-ethylbenzene,344.0,carroll11,1
2556,ClCCCCCCl,"1,5-dichloropentane",336.0,carroll11,1
2557,ClC1=CC=C(C=C1)CC,1-chloro-4-ethylbenzene,335.0,carroll11,1
2558,C(C1=CC=CC=C1)N,benzylamine,338.0,carroll11,1
2559,SCCO,2-mercaptoethanol,341.0,carroll11,1
2560,NC1=CC=CC=C1,aniline,343.0,carroll11,1
2561,C(C)C1=C(N)C(=CC=C1)C,2-ethyl-6-methylaniline,375.0,carroll11,1
2562,C(C1=CC=CC=C1)#N,benzonitrile,343.0,carroll11,1
2563,C(C1=CC=CC=C1)S,benzylmercaptan,343.0,carroll11,1
2564,C(C)OC(CC(=O)C)=O,ethylacetoacetate,343.0,carroll11,1
2565,C(CCC)OCCOC(C)=O,2-butoxyethylacetate,344.0,carroll11,1
2566,C(C1=CC=CC=C1)SC,benzylmethylsulfide,346.0,carroll11,1
2567,ClCCCO,3-chloro-1-propanol,346.0,carroll11,1
2568,C(C)(C)(C)OC(CC(=O)C)=O,tert-butylacetoacetate,349.0,carroll11,1
2569,IC1=CC=CC=C1,iodobenzene,347.0,carroll11,1
2570,BrC=1C=C(C)C=CC1,3-bromotoluene,348.0,carroll11,1
2571,CN(C1=CC=CC=C1)C,"N,N-dimethylaniline",348.0,carroll11,1
2572,BrC1=C(C=CC=C1)CC,1-bromo-2-ethylbenzene,352.0,carroll11,1
2573,C(C)(=O)C1=CC=CC=C1,acetophenone,350.0,carroll11,1
2574,BrC1=C(C)C=CC=C1,2-bromotoluene,351.0,carroll11,1
2575,CNC1=CC=CC=C1,N-methylaniline,352.0,carroll11,1
2576,C(C1=CC=CC=C1)Br,benzylbromide,352.0,carroll11,1
2577,CC(CCC(C)=O)=O,"2,5-hexanedione",351.0,carroll11,1
2578,COC(C1=CC=CC=C1)=O,methylbenzoate,353.0,carroll11,1
2579,C(C)OC(C1=CC=CC=C1)=O,ethylbenzoate,357.0,carroll11,1
2580,C(CC)OC(C1=CC=CC=C1)=O,propylbenzoate,371.0,carroll11,1
2581,C(CCC)OC(C1=CC=CC=C1)=O,butylbenzoate,380.0,carroll11,1
2582,C(CCCC)OC(C1=CC=CC=C1)=O,pentylbenzoate,393.0,carroll11,1
2583,IC1=CC(=CC=C1)C,1-iodo-3-methylbenzene,356.0,carroll11,1
2584,NC=1C(=CC=CC1)C,o-toluidine,358.0,carroll11,1
2585,C(C)C1=C(C=CC=C1)O,2-ethylphenol,358.0,carroll11,1
2586,CC=1C=C(C=CC1)CC(=O)[O-],3-methylphenylacetate,358.0,carroll11,1
2587,C1=C(C=CC=C1O)C,m-cresol,359.0,carroll11,1
2588,CC=1C=C(N)C=CC1,3-methylaniline,359.0,carroll11,1
2589,C(C)C1=CC=C(N)C=C1,4-ethylaniline,370.0,carroll11,1
2590,C(C)C=1C=C(N)C=CC1,3-ethylaniline,358.0,carroll11,1
2591,C(C)C1=C(N)C=CC=C1,2-ethylaniline,358.0,carroll11,1
2592,[N+](=O)([O-])C1=CC=CC=C1,nitrobenzene,361.0,carroll11,1
2593,C(C)N(C1=CC=CC=C1)CC,"N,N-diethylaniline",361.0,carroll11,1
2594,C(C)(C)C1=C(C=CC=C1)O,2-isopropylphenol,362.0,carroll11,1
2595,IC1=C(C)C=CC=C1,2-iodotoluene,363.0,carroll11,1
2596,IC1=CC=C(C)C=C1,4-iodotoluene,363.0,carroll11,1
2597,C(CC)C1=CC=C(C=C1)OC,4-propylanisole,355.0,carroll11,1
2598,C1(=CC=CC=C1)CC(CC)=O,1-phenyl-2-butanone,364.0,carroll11,1
2599,C1(=CC=CC=C1)C(C)OC(C)=O,1-phenylethylacetate,364.0,carroll11,1
2600,C(C1=CC=CC=C1)O,benzylalcohol,366.0,carroll11,1
2601,C(CC)C1=C(C=CC=C1)O,2-propylphenol,366.0,carroll11,1
2602,CC1=C(C=CC(=C1)C)O,"2,4-dimethylphenol",367.0,carroll11,1
2603,C(C)C=1C=C(C=CC1)O,3-ethylphenol,367.0,carroll11,1
2604,C1(=CC=CC=C1)C(C)OC(CC)=O,1-phenylethylpropionate,379.0,carroll11,1
2605,C(C1=CC=CC=C1)CC(=O)[O-],benzylacetate,363.0,carroll11,1
2606,C(CCCCS)S,"1,5-pentanedithiol",368.0,carroll11,1
2607,CC1=C(N)C=CC=C1C,"2,3-dimethylaniline",369.0,carroll11,1
2608,C(C1=CC=CC=C1)OC(CC)=O,benzylpropanoate,369.0,carroll11,1
2609,C1(=CC=CC=C1)C(CCC)=O,1-phenyl-1-butanone,361.0,carroll11,1
2610,C(C1=CC=CC=C1)I,benzyliodide,370.0,carroll11,1
2611,C(C1=CC=CC=C1)C#N,benzylcyanide,374.0,carroll11,1
2612,C(C)(C)(C)C1=CC=C(N)C=C1,4-tert-butylaniline,375.0,carroll11,1
2613,C(C)(C)(C)C=1C=C(N)C=CC1,3-tert-butylaniline,374.0,carroll11,1
2614,C(CCC)C1=CC=C(N)C=C1,4-butylaniline,375.0,carroll11,1
2615,C(CC)C1=CC=C(N)C=C1,4-propylaniline,376.0,carroll11,1
2616,C(CC)C1=C(N)C=CC=C1,2-propylaniline,370.0,carroll11,1
2617,C(C)(C)C1=C(N)C=CC=C1,2-isopropylaniline,368.0,carroll11,1
2618,C(C)(C)C=1C=C(C=CC1)O,3-isopropylphenol,377.0,carroll11,1
2619,N1=CC=CC2=CC=CC=C12,quinoline,374.0,carroll11,1
2620,C1(=CC=CC=C1)CCOC(C)=O,2-phenylethylacetate,375.0,carroll11,1
2621,C(CC)C1=CC=C(C=C1)O,4-propylphenol,379.0,carroll11,1
2622,C1(=CC=CC=C1)CCOC(CC)=O,2-phenylethylpropionate,386.0,carroll11,1
2623,C(C1=CC=CC=C1)OC(CCC)=O,benzylbutanoate,380.0,carroll11,1
2624,C(C)(CC)C1=C(C=CC=C1)O,2-sec-butylphenol,380.0,carroll11,1
2625,C(CCC)NC1=CC=CC=C1,N-butylaniline,380.0,carroll11,1
2626,C(C)(CC)NC1=CC=CC=C1,N-sec-butylaniline,366.0,carroll11,1
2627,C(C)(C)(C)NC1=CC=CC=C1,N-tert-butylaniline,361.0,carroll11,1
2628,C(C)(CC)C1=CC=C(N)C=C1,4-sec-butylaniline,381.0,carroll11,1
2629,C(C)(CC)C1=C(N)C=CC=C1,2-sec-butylaniline,375.0,carroll11,1
2630,C(C)(C)(C)C1=C(C=CC=C1)O,2-tert-butylphenol,375.0,carroll11,1
2631,C1(=CC=CC=C1)CCCOC(C)=O,3-phenylpropylacetate,386.0,carroll11,1
2632,C(C)(C)C1=C(N)C(=CC=C1)C(C)C,"2,6-diisopropylaniline",396.0,carroll11,1
2633,C(C=C)OC1=CC=CC=C1,allylphenylether,336.0,carroll11,1
2634,C(=C)OC=C,divinylether,226.0,carroll11,1
2635,O1C=CC=C1,furan,237.0,carroll11,1
2636,CC=1OC=CC1,2-methylfuran,247.0,carroll11,1
2637,S1C=CC=C1,thiophene,264.0,carroll11,1
2638,CC=1SC=CC1,2-methylthiophene,281.0,carroll11,1
2639,C(C)C=1SC=CC1,2-ethylthiophene,294.0,carroll11,1
2640,C(CC)C=1SC=CC1,2-propylthiophene,305.0,carroll11,1
2641,C(C)(C)(C)C=1OC=CC1,2-tert-butylfuran,280.0,carroll11,1
2642,CC1=CSC=C1,3-methylthiophene,284.0,carroll11,1
2643,C(C=C)OC(C(=C)C)=O,allylmethacrylate,310.0,carroll11,1
2644,C(\C=C(/C)\CCC=C(C)C)C(=O)[O-],geranylformate,368.0,carroll11,1
2645,C(\C=C(/C)\CCC=C(C)C)CC(=O)[O-],geranylacetate,377.0,carroll11,1
2646,C(=CC)C1=CC=C(C=C1)OC,4-propenylanisole,369.0,carroll11,1
2647,C(C)\C(=C(/C(=O)[O-])\CC)\C(=O)[O-],diethylfumarate,366.0,carroll11,1
2648,C(C)OC(C=CC1=CC=CC=C1)=O,ethylcinnamate,408.0,carroll11,1
2649,COCC(C)O,1-methoxy-2-propanol,304.0,carroll11,1