,smiles,compound,flashpoint,source,pure substance
933,CC(C)CCl,1-chloro-2-methylpropane,263.15,pubchem,1
934,CC(=CCl)C,1-chloro-2-methylprop-1-ene,272.15,pubchem,1
935,CC(=C)CO,2-methylprop-2-en-1-ol,306.15,pubchem,1
936,CCC(C)S,butane-2-thiol,250.15,pubchem,1
937,CC(C)C1=CC2=CCC3C(C2CC1)(CCCC3(C)C(=O)O)C,"(1R,4aR,4bR,10aR)-1,4a-dimethyl-7-propan-2-yl-2,3,4,4b,5,6,10,10a-octahydrophenanthrene-1-carboxylic acid",460.15,pubchem,1
938,CC1=C(C(=CC=C1)C)C,"1,2,3-trimethylbenzene",317.15,pubchem,1
939,CC1=CC(=C(C(=C1)C)C)C,"1,2,3,5-tetramethylbenzene",336.15,pubchem,1
940,C1=CC=C(C(=C1)[N+](=O)[O-])[N+](=O)[O-],"1,2-dinitrobenzene",423.15,pubchem,1
941,CC1=CC=CC=C1C#N,2-methylbenzonitrile,357.15,pubchem,1
942,CC1=CC=CC=C1C=O,2-methylbenzaldehyde,340.15,pubchem,1
943,C1CC2=CC=CC=C2C(=O)C1,"3,4-dihydro-2H-naphthalen-1-one",402.15,pubchem,1
944,C1=CC=C(C=C1)C(=O)CCl,2-chloro-1-phenylethanone,391.15,pubchem,1
945,C1=CC=C(C=C1)C(C#N)O,2-hydroxy-2-phenylacetonitrile,355.15,pubchem,1
946,CN1CN(C(=S)SC1)C,"3,5-dimethyl-1,3,5-thiadiazinane-2-thione",366.15,pubchem,1
947,CC1=CC=CO1,2-methylfuran,243.15,pubchem,1
948,CC(CC1=CC=CC=C1)NC,(2S)-N-methyl-1-phenylpropan-2-amine,282.15,pubchem,1
949,CCCCCCCC(=O)OCC(COC(=O)CCCCCCC)OC(=O)CCCCCCC,"2,3-di(octanoyloxy)propyl octanoate",450.15,pubchem,1
950,CCCCCOC(=O)CCC,pentyl butanoate,330.15,pubchem,1
951,C(CBr)O,2-bromoethanol,314.15,pubchem,1
952,CCCCl,1-chloropropane,255.15,pubchem,1
953,C(=CCl)Cl,"1,2-dichloroethene",277.15,pubchem,1
954,CCOC,methoxyethane,236.15,pubchem,1
955,CC(C)CC(C)(C)C,"2,2,4-trimethylpentane",261.15,pubchem,1
956,CC(=O)OC(C)(C)C,tert-butyl acetate,295.15,pubchem,1
957,C[Si]1(O[Si](O[Si](O[Si](O[Si](O[Si](O1)(C)C)(C)C)(C)C)(C)C)(C)C)C,"2,2,4,4,6,6,8,8,10,10,12,12-dodecamethyl-1,3,5,7,9,11-hexaoxa-2,4,6,8,10,12-hexasilacyclododecane",364.15,pubchem,1
958,C[Si]1(O[Si](O[Si](O[Si](O[Si](O1)(C)C)(C)C)(C)C)(C)C)C,"2,2,4,4,6,6,8,8,10,10-decamethyl-1,3,5,7,9,2,4,6,8,10-pentaoxapentasilecane",346.15,pubchem,1
959,CCOC(=O)Cl,ethyl carbonochloridate,289.15,pubchem,1
960,C1=CC(=CC(=C1)Cl)Cl,"1,3-dichlorobenzene",336.15,pubchem,1
961,C1CCC(CC1)Cl,chlorocyclohexane,305.15,pubchem,1
962,CC(C)CON=O,2-methylpropyl nitrite,250.15,pubchem,1
963,CC(=O)OCCO,2-hydroxyethyl acetate,375.15,pubchem,1
964,C(CCl)C#N,3-chloropropanenitrile,349.15,pubchem,1
965,CCCCCC(C)O,heptan-2-ol,344.15,pubchem,1
966,CCCCCCl,1-chloropentane,274.15,pubchem,1
967,CCCCCCCl,1-chlorohexane,308.15,pubchem,1
968,CCC=CCCO,hex-3-en-1-ol,403.15,pubchem,1
969,CCCCCCCCCCCCCCCC,hexadecane,408.15,pubchem,1
970,C(#N)C(Cl)(Cl)Cl,"2,2,2-trichloroacetonitrile",347.15,pubchem,1
971,C1CN1P(=O)(N2CC2)N3CC3,1-[bis(aziridin-1-yl)phosphoryl]aziridine,436.15,pubchem,1
972,CC(C(=O)OC)O,methyl 2-hydroxypropanoate,324.15,pubchem,1
973,C1=CC2=C(C=C1C(=O)O)C(=O)OC2=O,"1,3-dioxo-2-benzofuran-5-carboxylic acid",500.15,pubchem,1
974,C1=CC(=C(C=C1Cl)Cl)N,"2,4-dichloroaniline",388.15,pubchem,1
975,CCC(=O)OC,methyl propanoate,271.15,pubchem,1
976,CC(C)C1CCC(=C)C=C1,3-methylidene-6-propan-2-ylcyclohexene,393.15,pubchem,1
977,C1C(O1)CO,oxiran-2-ylmethanol,345.15,pubchem,1
978,CN=C=S,methylimino(sulfanylidene)methane,308.15,pubchem,1
979,C[Si]1(O[Si](O[Si](O[Si](O1)(C)C)(C)C)(C)C)C,"2,2,4,4,6,6,8,8-octamethyl-1,3,5,7,2,4,6,8-tetraoxatetrasilocane",328.15,pubchem,1
980,CC(=CCO)C,3-methylbut-2-en-1-ol,323.15,pubchem,1
981,CCCCCCCCCCCCCCCCCC(=O)[O-].CCCCCCCCCCCCCCCCCC(=O)[O-].[Zn+2],zinc;octadecanoate,550.15,pubchem,1
982,C=CCOCC=C,3-prop-2-enoxyprop-1-ene,266.15,pubchem,1
983,C=CO,ethenol,352.15,pubchem,1
984,CC1=CCC(CC1)(C(C)C)O,4-methyl-1-propan-2-ylcyclohex-3-en-1-ol,352.15,pubchem,1
985,CC1=CC(=CC=C1)OP(=O)(OC2=CC=CC(=C2)C)OC3=CC=CC(=C3)C,tris(3-methylphenyl) phosphate,483.15,pubchem,1
986,CC(=C)CCl,3-chloro-2-methylprop-1-ene,260.15,pubchem,1
987,CC(C)C(=O)C,3-methylbutan-2-one,279.15,pubchem,1
988,CC1=C(C(=CC=C1)C)O,"2,6-dimethylphenol",347.15,pubchem,1
989,CC(C)C1=CC=CC=C1C(C)C,"1,2-di(propan-2-yl)benzene",350.15,pubchem,1
990,CCC1=CC=CC=C1N,2-ethylaniline,358.15,pubchem,1
991,CC1CCCCC1O,2-methylcyclohexan-1-ol,332.15,pubchem,1
992,CC1CCCCC1=O,2-methylcyclohexan-1-one,321.15,pubchem,1
993,CSCCC(C(=O)O)O,2-hydroxy-4-methylsulfanylbutanoic acid,394.15,pubchem,1
994,CCC(CC)O,pentan-3-ol,303.15,pubchem,1
995,CCC(CO)O,"butane-1,2-diol",313.15,pubchem,1
996,CC1=C(C=C(C=C1)N=C=O)N=C=O,"2,4-diisocyanato-1-methylbenzene",405.15,pubchem,1
997,CC(C1=CC=CC=C1)Br,1-bromoethylbenzene,369.15,pubchem,1
998,CC1=CCC(=C(C)C)CC1,1-methyl-4-propan-2-ylidenecyclohexene,337.15,pubchem,1
999,C1=CC=C(C=C1)NC2=CC=CC=C2,N-phenylaniline,426.15,pubchem,1
1000,CC1CCC(CC1)O,4-methylcyclohexan-1-ol,343.15,pubchem,1
1001,CCCCOC(=O)CC,butyl propanoate,311.15,pubchem,1
1002,CC1(CCCCC1)O,1-methylcyclohexan-1-ol,340.15,pubchem,1
1003,CC(C)CC=O,3-methylbutanal,286.15,pubchem,1
1004,CC1=CC(=CC=C1)Br,1-bromo-3-methylbenzene,333.15,pubchem,1
1005,C1=CC(=CC(=C1)Br)O,3-bromophenol,383.15,pubchem,1
1006,CC1CCCC(C1)O,3-methylcyclohexan-1-ol,335.15,pubchem,1
1007,C1=CC=C(C=C1)I,iodobenzene,350.15,pubchem,1
1008,CCCCC(C)C,2-methylhexane,255.15,pubchem,1
1009,CCCCC(=O)C,hexan-2-one,296.15,pubchem,1
1010,CC(=O)OCC=C,prop-2-enyl acetate,295.15,pubchem,1
1011,C=CCC=C,"penta-1,4-diene",277.15,pubchem,1
1012,CCCCCC(C)C,2-methylheptane,277.15,pubchem,1
1013,CCCCC=C,hex-1-ene,247.15,pubchem,1
1014,C1CC=CC=C1,"cyclohexa-1,3-diene",299.15,pubchem,1
1015,CC(=O)OCN=[N+](C)[O-],acetyloxymethylimino-methyl-oxidoazanium,372.15,pubchem,1
1016,CCCCCC=C,hept-1-ene,269.15,pubchem,1
1017,CCCCOC=O,butyl formate,291.15,pubchem,1
1018,CCCCCCCCCCCC(=O)C,tridecan-2-one,380.15,pubchem,1
1019,CCCCCCCCCCCCCCCCCC,octadecane,373.15,pubchem,1
1020,C[Hg]C,dimethylmercury,278.15,pubchem,1
1021,CC(C)([N+](=O)[O-])Cl,2-chloro-2-nitropropane,330.15,pubchem,1
1022,CC([N+](=O)[O-])(Cl)Cl,"1,1-dichloro-1-nitroethane",349.15,pubchem,1
1023,CC(=O)CBr,1-bromopropan-2-one,324.15,pubchem,1
1024,C(C(Cl)Cl)O,"2,2-dichloroethanol",351.15,pubchem,1
1025,CC(C)C(C)O,3-methylbutan-2-ol,306.15,pubchem,1
1026,CC(C(=O)O)Cl,2-chloropropanoic acid,380.15,pubchem,1
1027,CCC(=O)C(=O)C,"pentane-2,3-dione",292.15,pubchem,1
1028,CCC([N+](=O)[O-])Cl,1-chloro-1-nitropropane,335.15,pubchem,1
1029,CCC(C(=O)O)C(=O)O,2-ethylpropanedioic acid,358.15,pubchem,1
1030,CC1=C(C(=CC=C1)[N+](=O)[O-])[N+](=O)[O-],"1-methyl-2,3-dinitrobenzene",480.15,pubchem,1
1031,C1=CC=C(C=C1)N(C2=CC=CC=C2)C3=CC=CC=C3,"N,N-diphenylaniline",453.15,pubchem,1
1032,C1=CC=C(C=C1)P(C2=CC=CC=C2)C3=CC=CC=C3,triphenylphosphane,453.15,pubchem,1
1033,CC(C)(CO)N,2-amino-2-methylpropan-1-ol,340.15,pubchem,1
1034,CC1=C(C=CC=C1[N+](=O)[O-])[N+](=O)[O-],"2-methyl-1,3-dinitrobenzene",480.15,pubchem,1
1035,CC1=CC=CC=C1N(C)C,"N,N,2-trimethylaniline",356.15,pubchem,1
1036,CC1=CC(=C(C=C1)[N+](=O)[O-])[N+](=O)[O-],"4-methyl-1,2-dinitrobenzene",480.15,pubchem,1
1037,CC1=CC=CC=C1C=C,1-ethenyl-2-methylbenzene,333.15,pubchem,1
1038,C1=CC=C(C(=C1)CBr)Cl,1-(bromomethyl)-2-chlorobenzene,382.15,pubchem,1
1039,C1=CC=C(C(=C1)CCl)Cl,1-chloro-2-(chloromethyl)benzene,364.15,pubchem,1
1040,CC1=CC=CC2=C1N=CC=C2,8-methylquinoline,378.15,pubchem,1
1041,CC1=CC2=C(C=CC=N2)C=C1,7-methylquinoline,383.15,pubchem,1
1042,CC(C)(C)OOC(=O)C1=CC=CC=C1,tert-butyl benzenecarboperoxoate,366.15,pubchem,1
1043,C1=CC(=C(C=C1Br)Br)O,"2,4-dibromophenol",386.15,pubchem,1
1044,C(C(CCl)Cl)O,"2,3-dichloropropan-1-ol",364.15,pubchem,1
1045,COC(=O)OC,dimethyl carbonate,272.15,pubchem,1
1046,C1CC(=O)NC1,pyrrolidin-2-one,402.15,pubchem,1
1047,C1=C(C=C(C=C1Cl)Cl)[N+](=O)[O-],"1,3-dichloro-5-nitrobenzene",413.15,pubchem,1
1048,CC1=CC(=CC(=C1)[N+](=O)[O-])[N+](=O)[O-],"1-methyl-3,5-dinitrobenzene",480.15,pubchem,1
1049,CC1=C(C=CC(=C1)[N+](=O)[O-])[N+](=O)[O-],"2-methyl-1,4-dinitrobenzene",480.15,pubchem,1
1050,CC1=CC(=CC=C1)CBr,1-(bromomethyl)-3-methylbenzene,355.15,pubchem,1
1051,CC1=CC=CC(=C1)C#N,3-methylbenzonitrile,360.15,pubchem,1
1052,CCCCCN(CCCCC)CCCCC,"N,N-dipentylpentan-1-amine",375.15,pubchem,1
1053,C1=CC=C(C=C1)COCCO,2-phenylmethoxyethanol,402.15,pubchem,1
1054,C1=CC=C(C=C1)C=CCl,2-chloroethenylbenzene,331.15,pubchem,1
1055,CC(=O)OC1CCCCC1,cyclohexyl acetate,331.15,pubchem,1
1056,CC1=CC=C(C=C1)C=C,1-ethenyl-4-methylbenzene,325.15,pubchem,1
1057,CC(=O)OCC1=CC=CO1,furan-2-ylmethyl acetate,339.15,pubchem,1
1058,CCCC(=O)OC,methyl butanoate,287.15,pubchem,1
1059,CC(COC(=O)C)OC(=O)C,2-acetyloxypropyl acetate,359.15,pubchem,1
1060,CCCCC(=O)OC,methyl pentanoate,295.15,pubchem,1
1061,CCCCCOC(=O)CC,pentyl propanoate,314.15,pubchem,1
1062,CN=C=O,methylimino(oxo)methane,266.15,pubchem,1
1063,CSSC,(methyldisulfanyl)methane,297.15,pubchem,1
1064,CCC(C)(C)OC(=O)C,2-methylbutan-2-yl acetate,299.15,pubchem,1
1065,CC(C)OC=O,propan-2-yl formate,267.15,pubchem,1
1066,CCO[N+](=O)[O-],ethyl nitrate,283.15,pubchem,1
1067,CC1=CC=C(O1)C,"2,5-dimethylfuran",272.15,pubchem,1
1068,CCCC(C)OC(=O)C,pentan-2-yl acetate,305.15,pubchem,1
1069,CCCCC(C)O,hexan-2-ol,314.15,pubchem,1
1070,CCOCC(=O)O,2-ethoxyacetic acid,371.15,pubchem,1
1071,CCCO[N+](=O)[O-],propyl nitrate,293.15,pubchem,1
1072,C(CO)CBr,3-bromopropan-1-ol,367.15,pubchem,1
1073,C(CO)CCl,3-chloropropan-1-ol,346.15,pubchem,1
1074,COC(=O)CCCCC(=O)OC,dimethyl hexanedioate,380.15,pubchem,1
1075,CCCCCOC(=O)C,pentyl acetate,306.15,pubchem,1
1076,CCCCOCC,1-ethoxybutane,277.15,pubchem,1
1077,C(CCCO)CCO,"hexane-1,6-diol",375.15,pubchem,1
1078,CCOCCOCC,"1,2-diethoxyethane",308.15,pubchem,1
1079,C(COC=O)OC=O,2-formyloxyethyl formate,366.15,pubchem,1
1080,CCCSSCCC,1-(propyldisulfanyl)propane,339.15,pubchem,1
1081,CCCCCCCCCCCCC,tridecane,352.15,pubchem,1
1082,CCCCCCCCCCCCCC,tetradecane,373.15,pubchem,1
1083,CCCCCCCCCCCCCCCCC,heptadecane,422.15,pubchem,1
1084,CCCCCCCCCCCCCCCCCCCCC,henicosane,386.15,pubchem,1
1085,CCCCCCCCCCCCCCCCCCCCCC,docosane,386.15,pubchem,1
1086,CCCCCCCCCCCCCCCCCCCCCCCCC,pentacosane,393.15,pubchem,1
1087,C(C(=O)O)(Br)Br,"2,2-dibromoacetic acid",386.15,pubchem,1
1088,CCOC(C)(C)C,2-ethoxy-2-methylpropane,254.15,pubchem,1
1089,CCCCCOC=O,pentyl formate,299.15,pubchem,1
1090,CCCCCCCCCCCCCCCCCCCCCCC,tricosane,386.15,pubchem,1
1091,C1=CC=C(C=C1)P(Cl)Cl,dichloro(phenyl)phosphane,375.15,pubchem,1
1092,C1=CC(=CC(=C1)I)[N+](=O)[O-],1-iodo-3-nitrobenzene,345.15,pubchem,1
1093,CCCC=C(CC)C=O,2-ethylhex-2-enal,341.15,pubchem,1
1094,C1COCO1,"1,3-dioxolane",275.15,pubchem,1
1095,C=C1CC(=O)O1,4-methylideneoxetan-2-one,307.15,pubchem,1
1096,C1CC=CCCC=CCCC=C1,"cyclododeca-1,5,9-triene",344.15,pubchem,1
1097,CN(C)P(=O)(N(C)C)N(C)C,N-[bis(dimethylamino)phosphoryl]-N-methylmethanamine,379.15,pubchem,1
1098,CO[Si](OC)(OC)OC,tetramethyl silicate,369.15,pubchem,1
1099,CCCC[Sn](CCCC)(Cl)Cl,dibutyl(dichloro)stannane,441.15,pubchem,1
1100,CCN(CC)C(=O)C,"N,N-diethylacetamide",350.15,pubchem,1
1101,B(OCCCC)(OCCCC)OCCCC,tributyl borate,366.15,pubchem,1
1102,CCCCC(CC)COC(=O)C(=C)C,2-ethylhexyl 2-methylprop-2-enoate,365.15,pubchem,1
1103,CC(C)CC=C,4-methylpent-1-ene,241.15,pubchem,1
1104,CC(C)C1CCCCC1,propan-2-ylcyclohexane,309.15,pubchem,1
1105,CC(C)(C)C1=CC(=C(C(=C1)C(C)(C)C)O)C(C)(C)C,"2,4,6-tritert-butylphenol",403.15,pubchem,1
1106,CC(C)OP(=S)(OC(C)C)SCCNS(=O)(=O)C1=CC=CC=C1,N-[2-di(propan-2-yloxy)phosphinothioylsulfanylethyl]benzenesulfonamide,588.15,pubchem,1
1107,COP(=O)(C)OC,[methoxy(methyl)phosphoryl]oxymethane,316.15,pubchem,1
1108,CCCN(CCC)C(=O)SCC,"S-ethyl N,N-dipropylcarbamothioate",389.15,pubchem,1
1109,C=CC(CCl)Cl,"3,4-dichlorobut-1-ene",386.15,pubchem,1
1110,CCCC(=C)C,2-methylpent-1-ene,247.15,pubchem,1
1111,CCOCCC(=O)OCC,ethyl 3-ethoxypropanoate,332.15,pubchem,1
1112,C1C(O1)C=O,oxirane-2-carbaldehyde,304.15,pubchem,1
1113,CC(C)NC1=CC=CC=C1,N-propan-2-ylaniline,361.15,pubchem,1
1114,CC(C)CC(C)NC1=CC=C(C=C1)NC2=CC=CC=C2,"4-N-(4-methylpentan-2-yl)-1-N-phenylbenzene-1,4-diamine",477.15,pubchem,1
1115,C=CC(=O)Cl,prop-2-enoyl chloride,287.15,pubchem,1
1116,C=CC(=O)OCCO,2-hydroxyethyl prop-2-enoate,374.15,pubchem,1
1117,CCCCCCCC(=O)C,nonan-2-one,337.15,pubchem,1
1118,CCCCCCCCCC=C,undec-1-ene,344.15,pubchem,1
1119,C(CCCN=C=O)CCN=C=O,"1,6-diisocyanatohexane",413.15,pubchem,1
1120,CC1=CN=CN1,5-methyl-1H-imidazole,430.15,pubchem,1
1121,CC1CC(OC(O1)C)OC(=O)C,"(2,6-dimethyl-1,3-dioxan-4-yl) acetate",334.15,pubchem,1
1122,C1=CC=C(C=C1)NC2=CC=C(C=C2)[N+](=O)[O-],4-nitro-N-phenylaniline,463.15,pubchem,1
1123,CC(=C)C(=O)OCCO,2-hydroxyethyl 2-methylprop-2-enoate,370.15,pubchem,1
1124,CCCCCCCCC=C,dec-1-ene,326.15,pubchem,1
1125,CCCCCSCCCCC,1-pentylsulfanylpentane,358.15,pubchem,1
1126,CN1CCCC1=O,1-methylpyrrolidin-2-one,369.15,pubchem,1
1127,C1=CC(=C(C=C1Cl)Cl)C=O,"2,4-dichlorobenzaldehyde",408.15,pubchem,1
1128,CCO[Si](CCCN)(OCC)OCC,3-triethoxysilylpropan-1-amine,371.15,pubchem,1
1129,CC(=CC=C)C,"4-methylpenta-1,3-diene",239.15,pubchem,1
1130,CC(=CCCl)Cl,"1,3-dichlorobut-2-ene",300.15,pubchem,1
1131,C(COCCO)N,2-(2-aminoethoxy)ethanol,400.15,pubchem,1
1132,CCCCCCCCCCCCN,dodecan-1-amine,451.15,pubchem,1
1133,C=CC1CO1,2-ethenyloxirane,227.15,pubchem,1
1134,C1CCN(C1)N=O,1-nitrosopyrrolidine,356.15,pubchem,1
1135,C1=CC(=C(C(=C1Cl)O)Cl)Cl,"2,3,6-trichlorophenol",352.15,pubchem,1
1136,CCC1=CC2=CC=CC=C2C=C1,2-ethylnaphthalene,377.15,pubchem,1
1137,COC1=NN(C(=O)S1)CSP(=S)(OC)OC,"3-(dimethoxyphosphinothioylsulfanylmethyl)-5-methoxy-1,3,4-thiadiazol-2-one",373.15,pubchem,1
1138,C[Si](C)(C)N[Si](C)(C)C,[dimethyl-(trimethylsilylamino)silyl]methane,282.15,pubchem,1
1139,C1CN1CCO,2-(aziridin-1-yl)ethanol,340.15,pubchem,1
1140,CCCCN(CC)C(=O)SCCC,S-propyl N-butyl-N-ethylcarbamothioate,324.15,pubchem,1
1141,CC(C)CN(CC(C)C)CC(C)C,"2-methyl-N,N-bis(2-methylpropyl)propan-1-amine",324.15,pubchem,1
1142,CCCC[Sn](Cl)(Cl)Cl,butyl(trichloro)stannane,354.15,pubchem,1
1143,COC(=O)CCCC(=O)OC,dimethyl pentanedioate,376.15,pubchem,1
1144,CCCCCCCCCCC,undecane,338.15,pubchem,1
1145,CCCCCCCCCCCCC=C,tetradec-1-ene,383.15,pubchem,1
1146,CCN(C1CCCCC1)C(=O)SCC,S-ethyl N-cyclohexyl-N-ethylcarbamothioate,412.15,pubchem,1
1147,CC1=CC=C(C=C1)C(C)(C)O,2-(4-methylphenyl)propan-2-ol,369.15,pubchem,1
1148,C1=CC=C(C=C1)N(C2=CC=CC=C2)C(=N)N,"1,1-diphenylguanidine",443.15,pubchem,1
1149,CCCCC(CC)COP(=O)(OC1=CC=CC=C1)OC2=CC=CC=C2,2-ethylhexyl diphenyl phosphate,497.15,pubchem,1
1150,CCCCCCCCCCOP(OCCCCCCCCCC)OC1=CC=CC=C1,didecyl phenyl phosphite,698.15,pubchem,1
1151,CC(C)CCCCCCC=O,8-methylnonanal,358.15,pubchem,1
1152,CC1(C2CCC(=C)C1C2)C,"6,6-dimethyl-2-methylidenebicyclo[3.1.1]heptane",304.15,pubchem,1
1153,CC(C)CCCCCCCOC(=O)C=C,8-methylnonyl prop-2-enoate,389.15,pubchem,1
1154,C=CC1=CC=CC=C1Cl,1-chloro-2-ethenylbenzene,332.15,pubchem,1
1155,CCCCCCCCCS,nonane-1-thiol,351.15,pubchem,1
1156,COC(=O)C1=CC(=CC=C1)C(=O)OC,"dimethyl benzene-1,3-dicarboxylate",411.15,pubchem,1
1157,CN(C)C#N,dimethylcyanamide,344.15,pubchem,1
1158,C(C=CCCl)Cl,"1,4-dichlorobut-2-ene",326.15,pubchem,1
1159,C1=CC(=CC(=C1)CN)CN,[3-(aminomethyl)phenyl]methanamine,390.15,pubchem,1
1160,C([Si](Cl)(Cl)Cl)Cl,trichloro(chloromethyl)silane,342.15,pubchem,1
1161,CCCOCC(C)O,1-propoxypropan-2-ol,321.15,pubchem,1
1162,CCOCC(C)O,1-ethoxypropan-2-ol,313.15,pubchem,1
1163,C1CCC(CC1)S,cyclohexanethiol,316.15,pubchem,1
1164,CC=CC=C,"penta-1,3-diene",245.15,pubchem,1
1165,CC(C)(C)OC,2-methoxy-2-methylpropane,247.15,pubchem,1
1166,CCCCCCCS,heptane-1-thiol,319.15,pubchem,1
1167,CC(C)CCCCCO,6-methylheptan-1-ol,355.15,pubchem,1
1168,COCCOC=C,1-ethenoxy-2-methoxyethane,291.15,pubchem,1
1169,CC(C)(C)OC(=O)C=C,tert-butyl prop-2-enoate,292.15,pubchem,1
1170,CCC1CCCCC1,ethylcyclohexane,308.15,pubchem,1
1171,CCCCCCCC(=O)OC1=C(C=C(C=C1Br)C#N)Br,"(2,6-dibromo-4-cyanophenyl) octanoate",375.15,pubchem,1
1172,CC[Si](CC)(Cl)Cl,dichloro(diethyl)silane,297.15,pubchem,1
1173,CCCCCCCCCC,decane,319.15,pubchem,1
1174,CN(C)CCC#N,3-(dimethylamino)propanenitrile,337.15,pubchem,1
1175,C1=C2C(=CC(=C1Cl)Cl)OC3=CC(=C(C=C3O2)Cl)Cl,"2,3,7,8-tetrachlorodibenzo-p-dioxin",277.15,pubchem,1
1176,CCCCCCCCC1=CC=C(C=C1)O,4-octylphenol,386.15,pubchem,1
1177,CCCCCCCCCCCCCCCCCCN,octadecan-1-amine,422.15,pubchem,1
1178,C1=CC=C(C=C1)OC(=O)Cl,phenyl carbonochloridate,342.15,pubchem,1
1179,CCCN(CCC)C(=O)SCCC,"S-propyl N,N-dipropylcarbamothioate",395.15,pubchem,1
1180,C1=CC(=NC(=C1)Cl)C(Cl)(Cl)Cl,2-chloro-6-(trichloromethyl)pyridine,373.15,pubchem,1
1181,CC(C)(C)C1=C(C=CC(=C1)O)O,"2-tert-butylbenzene-1,4-diol",444.15,pubchem,1
1182,CCSC(=O)N(CC(C)C)CC(C)C,"S-ethyl N,N-bis(2-methylpropyl)carbamothioate",389.15,pubchem,1
1183,CC(C)C1=CC2=CC=CC=C2C=C1,2-propan-2-ylnaphthalene,395.15,pubchem,1
1184,CCCCCNCCCCC,N-pentylpentan-1-amine,324.15,pubchem,1
1185,C(CCCN)CCN,"hexane-1,6-diamine",354.15,pubchem,1
1186,CCCCCCCCCCOC(=O)C=C,decyl prop-2-enoate,400.15,pubchem,1
1187,CCCCCCCCOC(=O)C(=C)C,octyl 2-methylprop-2-enoate,364.15,pubchem,1
1188,C(CCCCl)CCCl,"1,6-dichlorohexane",347.15,pubchem,1
1189,CCCSSCC=C,1-(prop-2-enyldisulfanyl)propane,329.15,pubchem,1
1190,CCCOC(=O)C(=C)C,propyl 2-methylprop-2-enoate,303.15,pubchem,1
1191,CC1=CC=CC=C1OCC2CO2,2-[(2-methylphenoxy)methyl]oxirane,366.15,pubchem,1
1192,CCSC(=O)N1CCCCCC1,S-ethyl azepane-1-carbothioate,412.15,pubchem,1
1193,CC1CCC(C(C1)O)C(C)C,"(1R,2S,5R)-5-methyl-2-propan-2-ylcyclohexan-1-ol",364.15,pubchem,1
1194,CC(C)(COC(=O)C=C)COC(=O)C=C,"(2,2-dimethyl-3-prop-2-enoyloxypropyl) prop-2-enoate",388.15,pubchem,1
1195,CCN(CC)C(=O)CC(=O)C,"N,N-diethyl-3-oxobutanamide",523.15,pubchem,1
1196,C1C(O1)COCC2CO2,2-(oxiran-2-ylmethoxymethyl)oxirane,337.15,pubchem,1
1197,C1=CC2=C(C=CC=C2N)C(=C1)N,"naphthalene-1,5-diamine",499.15,pubchem,1
1198,CC1=CCC(CC1=O)C(=C)C,(5S)-2-methyl-5-prop-1-en-2-ylcyclohex-2-en-1-one,362.15,pubchem,1
1199,CCCCCCCCC1CO1,2-octyloxirane,351.15,pubchem,1
1200,CCCCOCC1CO1,2-(butoxymethyl)oxirane,327.15,pubchem,1
1201,CCN(CC)CCOC(=O)C=C,2-(diethylamino)ethyl prop-2-enoate,364.15,pubchem,1
1202,C=C(C(CCl)Cl)Cl,"2,3,4-trichlorobut-1-ene",336.15,pubchem,1
1203,CCCCCCCCCCCC=C,tridec-1-ene,352.15,pubchem,1
1204,CN(C)CCOC(=O)C=C,2-(dimethylamino)ethyl prop-2-enoate,302.15,pubchem,1
1205,CCCCC(CC)COCC1CO1,2-(2-ethylhexoxymethyl)oxirane,370.15,pubchem,1
1206,CCCCCCCCOC(=O)C=C,octyl prop-2-enoate,355.15,pubchem,1
1207,CCCCCCOC(=O)C=C,hexyl prop-2-enoate,341.15,pubchem,1
1208,CCOP(=S)(OCC)Cl,chloro-diethoxy-sulfanylidene-λ5-phosphane,365.15,pubchem,1
1209,CC(=C)C(=O)OCCC[Si](OC)(OC)OC,3-trimethoxysilylpropyl 2-methylprop-2-enoate,365.15,pubchem,1
1210,CCOC1=NC(=NS1)C(Cl)(Cl)Cl,"5-ethoxy-3-(trichloromethyl)-1,2,4-thiadiazole",427.15,pubchem,1
1211,COP(=S)(OC)OC1=CC=C(C=C1)C#N,4-dimethoxyphosphinothioyloxybenzonitrile,377.15,pubchem,1
1212,COC1=CC(=C(C=C1Cl)OC)Cl,"1,4-dichloro-2,5-dimethoxybenzene",434.15,pubchem,1
1213,CC[Sn](CC)(CC)Br,bromo(triethyl)stannane,372.15,pubchem,1
1214,CCCOCCO,2-propoxyethanol,322.15,pubchem,1
1215,CC(C)CC(=O)OCC=C,prop-2-enyl 3-methylbutanoate,312.15,pubchem,1
1216,CC1(CC(CC(C1)(C)CN)N)C,"3-(aminomethyl)-3,5,5-trimethylcyclohexan-1-amine",383.15,pubchem,1
1217,CCCCCCCCCCC1CO1,2-decyloxirane,317.15,pubchem,1
1218,CC(=C)C(=O)OCCN(C)C,2-(dimethylamino)ethyl 2-methylprop-2-enoate,347.15,pubchem,1
1219,CCCCCCCCCCCCCCCCCCS,octadecane-1-thiol,458.15,pubchem,1
1220,CCCCCCCCCCCCCCCCS,hexadecane-1-thiol,375.15,pubchem,1
1221,CC(CCC(C)O)O,"hexane-2,5-diol",374.15,pubchem,1
1222,C=CCOC(=O)Cl,prop-2-enyl carbonochloridate,304.15,pubchem,1
1223,CCSC(=O)Cl,S-ethyl chloromethanethioate,304.15,pubchem,1
1224,CN(C)CCOCCN(C)C,"2-[2-(dimethylamino)ethoxy]-N,N-dimethylethanamine",352.15,pubchem,1
1225,CC(=C)C(=O)OCC(CBr)Br,"2,3-dibromopropyl 2-methylprop-2-enoate",332.15,pubchem,1
1226,CC1CC(=O)O1,4-methyloxetan-2-one,333.15,pubchem,1
1227,CCCCCCCCCCCCCOC(=O)C=C,tridecyl prop-2-enoate,405.15,pubchem,1
1228,C1C(O1)C(Cl)(Cl)Cl,2-(trichloromethyl)oxirane,340.15,pubchem,1
1229,CC(C)(C)C1=CC=C(C=C1)OCC2CO2,2-[(4-tert-butylphenoxy)methyl]oxirane,375.15,pubchem,1
1230,COCCOC(=O)C=C,2-methoxyethyl prop-2-enoate,355.15,pubchem,1
1231,C1C(O1)CBr,2-(bromomethyl)oxirane,329.15,pubchem,1
1232,C1CCC(CC1)N=C=O,isocyanatocyclohexane,322.15,pubchem,1
1233,C1=CC2=C(C=CC=C2N=C=O)C(=C1)N=C=O,"1,5-diisocyanatonaphthalene",428.15,pubchem,1
1234,C1=CC(=C(C(=C1)Cl)Cl)[N+](=O)[O-],"1,2-dichloro-3-nitrobenzene",397.15,pubchem,1