,smiles,compound,flashpoint,source,pure substance
2650,COCCO,2-methoxyethanol,311.0,carroll11,1
2651,CN(CCO)C,2-dimethylaminoethanol,314.0,carroll11,1
2652,C(C)OCCO,2-ethoxyethanol,315.0,carroll11,1
2653,C(C)(C)OCCO,2-isopropoxyethanol,316.0,carroll11,1
2654,BrCC(OC)OC,"2-bromo-1,1-dimethoxyethane",324.0,carroll11,1
2655,COCCNCCOC,bis(2-methoxyethyl)amine,331.0,carroll11,1
2656,C(CCC)OCCO,2-butoxyethanol,335.0,carroll11,1
2657,ClC1=CC(=CC=C1)Cl,"1,3-dichlorobenzene",336.0,carroll11,1
2658,ClC1=NC=CC=C1,2-chloropyridine,337.0,carroll11,1
2659,ClC1=C(C=CC=C1)Cl,"1,2-dichlorobenzene",341.0,carroll11,1
2660,NC(CO)(C)C,2-amino-2-methyl-1-propanol,341.0,carroll11,1
2661,CNCCO,2-(methylamino)ethanol,345.0,carroll11,1
2662,NCC(C)O,1-amino-2-propanol,340.0,carroll11,1
2663,ClC1=C(C=CC=C1)O,2-chlorophenol,345.0,carroll11,1
2664,OCCNCCC,(2-hydroxyethyl)propylamine,351.0,carroll11,1
2665,COC1=C(C=CC=C1)OC,"1,2-dimethoxybenzene",360.0,carroll11,1
2666,ClC(CO)CCl,"2,3-dichloro-1-propanol",366.0,carroll11,1
2667,C1(=CC=CC=C1)OC1=CC=CC=C1,diphenylether,388.0,carroll11,1
2668,COC(C=1C(C(=O)OC)=CC=CC1)=O,dimethylphthalate,423.0,carroll11,1
2669,C(C(C)C)OC(C=1C(C(=O)OCC(C)C)=CC=CC1)=O,diisobutylphthalate,458.0,carroll11,1
2670,C(C)OC(C=1C(C(=O)OCC)=CC=CC1)=O,diethylphthalate,433.0,carroll11,1
2671,C(C1=CC=CO1)=O,furfural,331.0,carroll11,1
2672,C(C1=CC=CO1)O,furfurylalcohol,348.0,carroll11,1
2673,C(C1=CC=CO1)CC(=O)[O-],furfurylacetate,338.0,carroll11,1
2674,C(C1=CC=CO1)OC(CC)=O,furfurylpropanoate,355.0,carroll11,1
2675,COC1OC(C=C1)OC,"2,5-dimethoxy-2,5-dihydrofuran",320.0,carroll11,1
2676,COC=1C(C(=O)[O-])=CC=CC1,methylsalicylate,372.0,carroll11,1
2677,C(C)OC=1C(C(=O)[O-])=CC=CC1,ethylsalicylate,380.0,carroll11,1
2678,C1(=CC=CC=C1)CCO,2-phenylethanol,375.0,carroll11,1
2679,C(COCCO)O,diethyleneglycol,397.0,carroll11,1
2680,CN(CCO)CCO,N-methyldiethanolamine,410.0,carroll11,1
2681,CC1=COC=C1,3-methylfuran,251.0,carroll11,1
2682,C(C)C=1OC=CC1,2-ethylfuran,271.0,carroll11,1
2683,C(C)C1=CSC=C1,3-ethylthiophene,296.0,carroll11,1
2684,C1(CCCCC1)OC(C(=C)C)=O,cyclohexylmethacrylate,355.0,carroll11,1
2685,C1(CCCCC1)OC(C=C)=O,cyclohexylacrylate,341.0,carroll11,1
2686,C1(=CC=CC=C1)CCC(CC)=O,1-phenyl-3-pentanone,376.0,carroll11,1
2687,C(CC)C=1OC=CC1,2-propylfuran,288.0,carroll11,1
2688,C(C(C)C)OC(C1=CC=CC=C1)=O,isobutylbenzoate,375.0,carroll11,1
2689,ClCCCCCCC#CCC,10-chloro-3-decyne,359.0,carroll11,1
2690,ClCCCC#CCCCCC,1-chloro-4-decyne,360.0,carroll11,1
2691,ClC(=C)C=C,"2-chloro-1,3-butadiene",253.0,carroll11,1
2692,C(C(C)C)OCCO,2-isobutoxyethanol,324.0,carroll11,1
2693,Cl[SiH](Cl)Cl,Trichlorosilane,245.15,chen14,1
2694,C[Si](Cl)(Cl)Cl,Methyltrichlorosilane,276.15,chen14,1
2695,C(=C)[Si](Cl)(Cl)Cl,Vinyltrichlorosilane,294.15,chen14,1
2696,ClC(Cl)[Si](Cl)(Cl)C,Dichloromethylmethyldichlorosilane,301.15,chen14,1
2697,C(C)[Si](Cl)(Cl)Cl,Ethyltrichlorosilane,263.15,chen14,1
2698,C[SiH](Cl)C,Dimethylchlorosilane,245.15,chen14,1
2699,C(C)[SiH3],Ethylsilane,213.15,chen14,1
2700,Cl[Si](CCC(F)(F)F)(Cl)Cl,"Trichloro(3,3,3-trifluoropropyl)silane",288.15,chen14,1
2701,C(C=C)[Si](Cl)(Cl)Cl,Allyltrichlorosilane,304.15,chen14,1
2702,ClCCC[Si](Cl)(Cl)Cl,3-Chloropropyltrichlorosilane,357.15,chen14,1
2703,C(CC)[Si](Cl)(Cl)Cl,n-Propyltrichlorosilane,310.15,chen14,1
2704,ClC[Si](Cl)(C)C,Chloromethyldimethylchlorosilane,295.15,chen14,1
2705,C[Si](Br)(C)C,Trimethyl bromosilane,270.15,chen14,1
2706,C[Si](Cl)(C)C,Trimethylchlorosilane,255.15,chen14,1
2707,C[Si](F)(C)C,Trimethylfluorosilane,238.15,chen14,1
2708,CO[SiH](OC)OC,Trimethoxysilane,264.15,chen14,1
2709,C(#N)CC[Si](Cl)(Cl)C,2-Cyanoethylmethyldichlorosilane,333.15,chen14,1
2710,C(C=C)C[SiH](Cl)Cl,Allylmethyldichlorosilane,300.15,chen14,1
2711,C(C)(C)(C)[Si](Cl)(Cl)Cl,t-Butyltrichlorosilane,294.15,chen14,1
2712,C(C(C)C)[Si](Cl)(Cl)Cl,Isobutyltrichlorosilane,310.15,chen14,1
2713,C(CCC)[Si](Cl)(Cl)Cl,n-Butyltrichlorosilane,327.15,chen14,1
2714,C[Si](C)(C)N=C=S,Trimethylsilylisothiocyanate,308.15,chen14,1
2715,C(CC)[Si](Cl)(Cl)C,n-Propylmethyldichlorosilane,300.15,chen14,1
2716,BrC[Si](C)(C)C,Bromomethyltrimethylsilane,289.15,chen14,1
2717,C(C)[Si](Cl)(C)C,ETHYLDIMETHYLCHLOROSILANE,269.15,chen14,1
2718,CO[Si](C)(C)C,Methoxytrimethylsilane,243.15,chen14,1
2719,C[Si](OC)(OC)C,Dimethyldimethoxysilane,265.15,chen14,1
2720,C[Si](OC)(OC)OC,Methyltrimethoxysilane,284.15,chen14,1
2721,CO[Si](OC)(OC)OC,Tetramethoxysilane,294.15,chen14,1
2722,C[Si](C)(C)C,Tetramethylsilane,245.15,chen14,1
2723,C(C)[SiH2]CC,Diethylsilane,253.15,chen14,1
2724,CN(C)[SiH](C)C,"(N,N-Dimethylamino)dimethylsilane",260.15,chen14,1
2725,N(=C=O)[Si](N=C=O)(N=C=O)N=C=O,Tetraisocyanatosilane,323.15,chen14,1
2726,C1(CCCC1)[Si](Cl)(Cl)Cl,Cyclopentyltrichlorosilane,350.15,chen14,1
2727,C[Si](C)(C)OC(C(F)(F)F)=O,Trimethylsilyltrifluoroacetate,273.15,chen14,1
2728,C1(CCCC1)[SiH](Cl)Cl,Cyclopentyldichlorosilane,316.15,chen14,1
2729,ClCC(C[Si](Cl)(Cl)C)C,3-Chloro-2-methylpropylmethyldichlorosilane,363.15,chen14,1
2730,CC=C[SiH](OC)OC,Methylvinyldimethoxysilane,277.15,chen14,1
2731,C(=C)[Si](OC)(OC)OC,Vinyltrimethoxysilane,296.15,chen14,1
2732,CC(=C(C)C)[SiH3],Trimethylvinylsilane,239.15,chen14,1
2733,C(C)[Si](Cl)(C)CC,Diethylmethylchlorosilane,288.15,chen14,1
2734,ClC[Si](OCC)(C)C,Chloromethyldimethylethoxysilane,299.15,chen14,1
2735,C(C)O[Si](C)(C)C,Ethoxytrimethylsilane,246.15,chen14,1
2736,C(C)[Si](OC)(OC)OC,Ethyltrimethoxysilane,300.15,chen14,1
2737,CN(C)[Si](C)(C)C,"(N,N-Dimethylamino)trimethylsilane",254.5,chen14,1
2738,C[SiH](O[Si](C)(C)C)C,Pentamethyldisiloxane,254.15,chen14,1
2739,C1(=CC=CC=C1)[SiH3],Phenylsilane,281.15,chen14,1
2740,C(=CCCCC)[Si](Cl)(Cl)Cl,1-Hexenyltrichlorosilane,333.15,chen14,1
2741,C1(CCCCC1)[Si](Cl)(Cl)Cl,Cyclohexyltrichlorosilane,358.15,chen14,1
2742,ClC[Si](O[Si](C)(C)C)(C)CCl,Bis(chloromethyl)tetramethyldisiloxane,346.15,chen14,1
2743,C(C#C)O[Si](C)(C)C,Propargyloxytrimethylsilane,300.15,chen14,1
2744,C(=C)[Si](C)(C)C=C,Divinyldimethylsilane,281.15,chen14,1
2745,C(CCCCC)[Si](Cl)(Cl)Cl,n-Hexyltrichlorosilane,358.15,chen14,1
2746,C(CCCCC)[SiH](Cl)Cl,Hexyldichlorosilane,337.15,chen14,1
2747,C[Si]1(OCCCC1)C,"1,1 -Dimethyl-1-sila-2-oxacyclohexane",287.15,chen14,1
2748,C(C)(=O)OC[Si](C)(C)C,Acetoxymethyltrimethylsilane,293.15,chen14,1
2749,C(C=C)[Si](C)(C)C,Allyltrimethylsilane,280.15,chen14,1
2750,C(C)[Si](Cl)(CC)CC,Triethylchlorosilane,303.15,chen14,1
2751,C(C)(C)(C)[Si](Cl)(C)C,t-Butyldimethylchlorosilane,295.15,chen14,1
2752,ClCCC[Si](OC)(OC)C,3-Chloropropylmethyldimethoxysilane,318.15,chen14,1
2753,C[Si](OCCC)(C)C,Trimethyl-n-propoxysilane,283.15,chen14,1
2754,C(C)(C)(C)[Si](O)(C)C,t-Butyldimethylsilanol,318.15,chen14,1
2755,C[Si](OCC)(OCC)C,Dimethyldiethoxysilane,284.15,chen14,1
2756,C(C)[SiH](CC)CC,Triethylsilane,270.15,chen14,1
2757,C(CCCCC)[SiH3],Hexylsilane,285.15,chen14,1
2758,C(C)(C)(C)[SiH](C)C,t-Butyld imethyl silane,251.15,chen14,1
2759,CN(C)[Si](C)(C)N(C)C,Bis(dimethylamino)dimethylsilane,266.15,chen14,1
2760,C[Si]1(O[Si](O[Si](O1)(C)C)(C)C)C,Hexamethylcyclotrisiloxane,305.15,chen14,1
2761,C[Si](S[Si](C)(C)C)(C)C,Hexamethyldisilthiane,299.15,chen14,1
2762,C[Si](N[Si](C)(C)C)(C)C,Hexamethyldisilazane,281.15,chen14,1
2763,CN(C)[SiH](N(C)C)N(C)C,Tris(dimethylamino)silane,298.15,chen14,1
2764,C[Si](O[SiH2]O[Si](C)(C)C)(C)C,Hexamethyltrisiloxane,293.15,chen14,1
2765,C1(=CC=CC=C1)C[SiH](Cl)Cl,Phenylmethyldichlorosilane,340.15,chen14,1
2766,C1(=CC=CC=C1)C[SiH2]Cl,Phenylmethylchlorosilane,355.15,chen14,1
2767,C[Si](OC(C)=O)(OC(C)=O)OC(C)=O,Methyltriacetoxysilane,358.15,chen14,1
2768,C(=C)C(C=C)(C=C)[SiH3],Trivinylmethylsilane,288.15,chen14,1
2769,C1(CCCCC1)C[SiH](Cl)Cl,Cyclohexylmethyldichlorosilane,355.15,chen14,1
2770,C[Si](OC=CC=C)(C)C,"1-(Trimethylsiloxy)-1,3-butadiene",298.15,chen14,1
2771,ClCC(=C)C[Si](C)(C)C,2-Chloromethyl-3-trimethylsilyl-1-propene,316.15,chen14,1
2772,C(CCCCCC)[Si](Cl)(Cl)Cl,n-Heptyltrichlorosilane,337.15,chen14,1
2773,C(CCCCC)[Si](Cl)(Cl)C,n-Hexylmethyldichlorosilane,358.15,chen14,1
2774,C(=C)C[SiH](OCC)OCC,Vinylmethyldiethoxysilane,289.15,chen14,1
2775,C[Si](N1CCOCC1)(C)C,N-(Trimethylsilyl)morpholine,300.15,chen14,1
2776,C(C)(C)(C)O[Si](C)(C)C,t-Butoxytrimethylsilane,287.15,chen14,1
2777,COCC(C)O[Si](C)(C)C,(1-Methoxy-2-propoxy)trimethylsilane,293.15,chen14,1
2778,C[Si](OCC)(OCC)OCC,Methyltriethoxysilane,297.15,chen14,1
2779,C(C)N(CC)[Si](C)(C)C,(Diethylamino)trimethylsilane,283.15,chen14,1
2780,C[Si](C)(C)C[Si](C)(C)C,Bis(trimethylsilyl)methane,285.15,chen14,1
2781,C[Si](N([Si](C)(C)C)C)(C)C,Heptamethyldisilazane,300.15,chen14,1
2782,C[Si](OC(O[Si](C)(C)C)[SiH3])(C)C,Bis(trimethylsiloxy)methylsilane,296.15,chen14,1
2783,C(=C)[Si](C=C)(C=C)C=C,Tetravinylsilane,291.15,chen14,1
2784,C1(C=CC=C1)[Si](C)(C)C,Cyclopentadienyltrimethylsilane,302.15,chen14,1
2785,C1(=CCCC1)O[Si](C)(C)C,(Cyclopentenyloxy)trimethylsilane,311.15,chen14,1
2786,C(C=CC=C)[Si](C)(C)C,"(2,4-Pentadienyl)trimethylsilane",291.15,chen14,1
2787,C(CCCCCCC)[Si](Cl)(Cl)Cl,n-Octyltrichlorosilane,369.15,chen14,1
2788,C(CCCCCC)[Si](Cl)(Cl)C,n-Heptylmethyldichlorosilane,339.15,chen14,1
2789,C[Si](O[Si](C=C)(C=C)C)(C)C,Tetramethyldivinyldisiloxane,292.15,chen14,1
2790,C(C)C(C(=O)O[SiH3])(CC)CC,Triethylacetoxysilane,314.15,chen14,1
2791,C(=C)[Si](OCC)(OCC)OCC,Vinyltriethoxysilane,307.15,chen14,1
2792,C(=C)[Si](N[Si](C=C)(C)C)(C)C,"1,3-Divinyltetramethyldisilazane",307.15,chen14,1
2793,C(C)[Si](OCC)(OCC)CC,Diethyldiethoxysilane,316.15,chen14,1
2794,C(C)O[Si](OCC)(OCC)OCC,Tetraethoxysilane,323.15,chen14,1
2795,C(C)[Si](CC)(CC)CC,Tetraethylsilane,305.15,chen14,1
2796,NCCNCCC[Si](OC)(OC)OC,Aminoethylaminopropyltrimethoxysilane,269.15,chen14,1
2797,CC(C(O[Si]([O])OCC)(C)C)C,Tetramethyldiethoxysiloxane,311.15,chen14,1
2798,C[Si](O[Si](O[Si](C)(C)C)(C)C)(C)C,Octamethyltrisiloxane,303.15,chen14,1
2799,C[Si]1(O[Si](O[Si](O[Si](O1)(C)C)(C)C)(C)C)C,Octamethylcyclotetrasiloxane,330.15,chen14,1
2800,C[Si]1(N[Si](N[Si](N[Si](N1)(C)C)(C)C)(C)C)C,Octamethylcyclotetrasilazane,339.15,chen14,1
2801,C[SiH](O[Si](O[SiH](C)C)(O[SiH](C)C)O[SiH](C)C)C,Tetrakisdimethylsiloxysilane,340.15,chen14,1
2802,ClC1=CC=C(C=C1)[Si](C)(C)C,p-Chlorophenyltrimethylsilane,322.15,chen14,1
2803,C1(=CC=CC=C1)[Si](OC)(OC)OC,Phenyltrimethoxysilane,358.15,chen14,1
2804,C[Si](C1=CC=CC=C1)(C)C,Trimethylphenylsilane,313.15,chen14,1
2805,C1(CCCCC1)C[SiH](OC)OC,Cyclohexylmethyldimethoxysilane,343.15,chen14,1
2806,C(CCCCC)[Si](OC)(OC)OC,Hexyltrimethoxysilane,335.15,chen14,1
2807,C(C)(C)[SiH](C(C)C)C(C)C,Triisopropylsilane,310.15,chen14,1
2808,C(CC)[SiH](CCC)CCC,Tri-n-propylsilane,316.15,chen14,1
2809,C(CC)[Si](O[SiH](C)C)(O[SiH](C)C)O[SiH](C)C,Propyltris(dimethylsiloxy)silane,323.15,chen14,1
2810,C(C1=CC=CC=C1)[Si](C)(C)C,Benzyltrimethylsilane,335.15,chen14,1
2811,C(C(=C)C)(=O)OCCC[Si](OC)(OC)OC,3-Methacryloxypropyltrimethoxysilane,365.15,chen14,1
2812,C(#CCCCCC)[Si](C)(C)C,1-Heptynyltrimethylsilane,315.15,chen14,1
2813,C(CCCCCCC)[Si](Cl)(C)C,n-Octyldimethylchlorosilane,370.15,chen14,1
2814,C(C)N(CC)[Si](C)(C)N(CC)CC,Bis(diethylamino)dimethylsilane,308.15,chen14,1
2815,C[Si](O[Si](O[Si](O[Si](C)(C)C)(C)C)(C)C)(C)C,Decamethyltetrasiloxane,335.15,chen14,1
2816,C[Si]1(O[Si](O[Si](O[Si](O[Si](O1)(C)C)(C)C)(C)C)(C)C)C,Decamethylcyclopentasiloxane,350.15,chen14,1
2817,C1(CC2C(CC1)O2)CC[Si](OC)(OC)OC,"2-(3,4-epoxycyclohexyl)ethyltrimethoxysilane",419.15,chen14,1
2818,C(CCCCCCCCC)[Si](Cl)(Cl)C,n-Decylmethyldichlorosilane,393.15,chen14,1
2819,C(=C)[Si](CC)(CC)CC,Vinyltriethylsilane,318.15,chen14,1
2820,C1(=CC=CC=C1)[Si](Cl)(Cl)C1=CC=CC=C1,Diphenyldichlorosilane,415.15,chen14,1
2821,C1(=CC=CC=C1)[Si](OCC)(OCC)OCC,Phenyltriethoxysilane,393.15,chen14,1
2822,C1(=CC=CC=C1)[SiH2]C1=CC=CC=C1,Diphenylsilane,371.15,chen14,1
2823,C(=C)[Si]1(O[Si](O[Si](O[Si](O1)(C)C=C)(C)C=C)(C)C=C)C,"2,4,6,8-Tetravinyl-2,4,6,8-tetramethylcyclotetrasiloxane",385.15,chen14,1
2824,C(CCCCCCCCCCC)[Si](Cl)(Cl)Cl,n-Dodecyltrichlorosilane,435.15,chen14,1
2825,C(CC)O[Si](OCCC)(OCCC)OCCC,Tetra-n-propoxysilane,368.15,chen14,1
2826,C(C)[Si](O[Si](CC)(CC)CC)(CC)CC,Hexaethyldisiloxane,349.15,chen14,1
2827,C[Si](O[Si](O[Si](O[Si](O[Si](C)(C)C)(C)C)(C)C)(C)C)(C)C,Dodecamethylpentasiloxane,352.15,chen14,1
2828,C[Si]1(O[Si](O[Si](O[Si](O[Si](O[Si](O1)(C)C)(C)C)(C)C)(C)C)(C)C)C,Dodecamethylcyclohexasiloxane,366.15,chen14,1
2829,C[Si](Cl)(C1=CC=CC=C1)C1=CC=CC=C1,Methyldiphenylchlorosilane,411.15,chen14,1
2830,C(CCCCCCCCCCC)[Si](Cl)(Cl)C,n-Dodecylmethyldichlorosilane,416.15,chen14,1
2831,C1(=CC=CC=C1)[Si](OC)(OC)C1=CC=CC=C1,Diphenyldimethoxysilane,394.15,chen14,1
2832,C(CCCCCCC)[Si](OCC)(OCC)OCC,Octyltriethoxysilane,373.15,chen14,1
2833,C[Si](O[Si](O[Si](O[Si](O[Si](O[Si](C)(C)C)(C)C)(C)C)(C)C)(C)C)(C)C,Tetradecamethylhexasiloxane,375.15,chen14,1
2834,C[Si](O[Si](O[Si](O[Si](O[Si](O[Si](O[Si](C)(C)C)(C)C)(C)C)(C)C)(C)C)(C)C)(C)C,Hexadecamethylheptasiloxane,406.15,chen14,1
2835,C(CCCCCCCCCCCCCCCCC)[Si](Cl)(Cl)Cl,n-Octadecyltrichlorosilane,466.15,chen14,1
2836,C[Si](O[Si](O[Si](O[Si](O[Si](O[Si](O[Si](O[Si](C)(C)C)(C)C)(C)C)(C)C)(C)C)(C)C)(C)C)(C)C,Octadecamethyloctasiloxane,417.15,chen14,1
2837,C(=C)[Si](OCCOC)(OCCOC)OCCOC,Vinyltris(methoxyethoxy)silane,353.15,chen14,1
2838,C[Si](OC=C)(C)C,Trimethyl(vinyloxy)silane,263.15,chen14,1
2839,Cl[Si](CCCC#N)(Cl)Cl,Trichloro(3-cyanopropyl) Silane,365.15,chen14,1
2840,Cl[Si](CCC1=CC=CC=C1)(Cl)Cl,Trichloro(2-phenylethyl)silane,364.15,chen14,1
2841,Cl[Si](CCC(F)(F)F)(C)C,"Chlorodimethyl(3,3,3-trifluoropropyl) silane",293.15,chen14,1
2842,C(=C)C[SiH](O[Si](C)(C)C)O[Si](C)(C)C,Vinylmethylbis (trimethylsiloxy) silane,324.15,chen14,1
2843,Cl[Si](CCl)(Cl)Cl,Trichloro(Chloromethyl) silane,342.15,chen14,1
2844,C[SiH](C1=C(C(=C(C(=C1F)F)F)F)F)C,Dimethyl(pentafluorophenyl) silane,313.15,chen14,1
2845,Cl[Si](C1=CC=C(C=C1)Cl)(Cl)Cl,Trichloro(p-chlorophenyl)silane,397.05,chen14,1
2846,[SiH3][SiH2][SiH3],Trisilane,273.15,chen14,1
2847,ClC(CCCCCCCC[SiH3])(Cl)Cl,Trichlorononylsilane,387.15,chen14,1
2848,ClC(C[SiH3])Cl,Dichloroethylsilane,263.75,chen14,1
2849,Cl[Si](C1=C(C(=CC=C1)Cl)Cl)(Cl)Cl,Trichloro(dichlorophenyl)silane,419.15,chen14,1
2850,C[Si](C)(C)[SiH]([Si](C)(C)C)[Si](C)(C)C,Tris(trimethylsilyl)silane,328.15,chen14,1
2851,C[Si](O[SiH](O[Si](C)(C)C)O[Si](C)(C)C)(C)C,Tris(trimethylsiloxy)silane,323.15,chen14,1
2852,C(CCCCCCCCCCCCCCC)[Si](Cl)(Cl)Cl,Hexadecyltrichlorosilane,427.15,chen14,1
2853,Cl[SiH2]Cl,Dichlorosilane,236.15,chen14,1
2854,C[Si](Cl)(Cl)C,Dimethyldichlorosilane,257.15,chen14,1
2855,BrC[Si](Cl)(C)C,Bromomethyldimethylchlorosilane,314.15,chen14,1
2856,C[SiH](C)C,Trimethylsilane,204.15,chen14,1
2857,CC(=C[SiH2]Cl)C,Dimethylvinylchlorosilane,268.15,chen14,1
2858,Cl[Si](O[Si](Cl)(C)C)(C)C,"1,3-Dichlorotetramethyldisiloxane",288.15,chen14,1
2859,C[SiH](O[SiH](C)C)C,"1,1,3,3-Tetramethyldisiloxane",251.15,chen14,1
2860,CN([Si](C)(C)C)[SiH3],Tetramethyldisilazane,284.15,chen14,1
2861,C(C=C)[Si](Cl)(C)C,Allyl Dimethylchlorosilane,278.15,chen14,1
2862,C(C)(CCC)[Si](Cl)(Cl)Cl,sec-Amyltrichlorosilane,303.15,chen14,1
2863,C(CCC)[Si](Cl)(Cl)C,n-Butylmethyldichlorosilane,303.15,chen14,1
2864,CN(C)C(N(C)C)[SiH3],Bis(dimethylamino)methylsilane,270.15,chen14,1
2865,C1(=CC=CC=C1)[Si](Cl)(Cl)Cl,Phenyltrichlorosilane,364.15,chen14,1
2866,C1(=CC=CC=C1)[Si](F)(F)F,Phenyl trifluorosilane,268.15,chen14,1
2867,C[Si](OC(C)=O)(OC(C)=O)C,Dimethyldiacetoxysilane,310.15,chen14,1
2868,C[Si](C#CC)(C)C,1-Trimethylsilylpropyne,270.15,chen14,1
2869,C(=C)[Si](OCC)(C)C,Vinyldimethylethoxysilane,277.15,chen14,1
2870,C(C=C)O[Si](C)(C)C,Allyloxytrimethylsilane,273.15,chen14,1
2871,C(C=C)[Si](OC)(OC)OC,Allyltrimethoxysilane,319.15,chen14,1
2872,ClCCC[Si](OC)(OC)OC,3-Chloropropyltrimethoxysilane,348.15,chen14,1
2873,C(CC)[Si](OC)(OC)OC,n-Propyltrimethoxysilane,298.15,chen14,1
2874,C[Si](O[Si](C)(C)C)(C)C,Hexamethyldisiloxane,270.15,chen14,1
2875,C[Si]([Si](C)(C)C)(C)C,Hexamethyldisilane,272.15,chen14,1
2876,C(=C)[Si](C)(CC)CC,Vinyldiethylmethylsilane,288.15,chen14,1
2877,C(C(C)C)[Si](OC)(OC)OC,Isobutyltrimethoxysilane,315.15,chen14,1
2878,C1(=CC=CC=C1)[Si](Cl)(C)C,Phenyldimethylchlorosilane,334.15,chen14,1
2879,CN(C)[Si](CC)(CC)CC,"(N,N-Dimethylamino)triethylsilane",299.15,chen14,1
2880,C(=C)[Si](OC(C)=O)(OC(C)=O)OC(C)=O,Vinyltriacetoxysilane,361.15,chen14,1
2881,C(C)[Si](OC(C)=O)(OC(C)=O)OC(C)=O,Ethyltriacetoxysilane,377.15,chen14,1
2882,C[Si](C1C=CCC1)(C)C,3-(Trimethylsilyl)cyclopentene,299.15,chen14,1
2883,C(=C)[Si](CC)(CC)CC,Vinyltriethylsilane,298.15,chen14,1
2884,C(CCCCCCC)[SiH3],n-Octylsilane,309.15,chen14,1
2885,C[Si](OC)(OC)C1=CC=CC=C1,Methyl phenyldimethoxysilane,349.15,chen14,1
2886,C(#N)CC[Si](OCC)(OCC)OCC,2-Cyanoethyltriethoxysilane,359.15,chen14,1
2887,C(C1CO1)OCCC[Si](OC)(OC)OC,3-Glycidoxypropyltrimethoxysilane,383.15,chen14,1
2888,C(C)(C)(C)[Si](Cl)(C)C(C)(C)C,Di-t-butylmethylchlorosilane,342.15,chen14,1
2889,C(CC)[Si](Cl)(CCC)CCC,Tri-n-propylchlorosilane,349.15,chen14,1
2890,C(C)(C)N(C(C)C)[Si](C)(C)C,(Diisopropylamino)trimethylsilane,301.15,chen14,1
2891,Cl[Si](O[Si](O[Si](O[Si](C)(C)C)(C)C)(C)C)(C)C,1-Chlorononamethyltetrasiloxane,347.15,chen14,1
2892,C[Si](OC(O[Si](C)(C)C)(O[Si](C)(C)C)[SiH3])(C)C,Tristrimethylsiloxymethylsilane,336.15,chen14,1
2893,C1(=CC=CC=C1)C(C1=CC=CC=C1)[SiH3],Diphenylmethylsilane,393.15,chen14,1
2894,C[Si](OC(=C)C)(C)C,Trimethyl[(1-methylethenyl)oxy]silane,272.15,chen14,1
2895,ClC(Cl)[SiH2]CCC(F)(F)F,"Dichloromethyl-3,3,3-trifluoropropylsilane",288.15,chen14,1
2896,ClCOCC[Si](C)(C)C,[2-(chloromethoxy)ethyl]trimethylsilane,319.15,chen14,1
2897,I[Si](C)(C)C,Iodotrimethylsilane,288.15,chen14,1
2898,C1(=CC=CC=C1)[SiH](C1=CC=CC=C1)C1=CC=CC=C1,Triphenylsilane,416.35,chen14,1
2899,SCCC[Si](OCC)(OCC)OCC,[3-(mercapto)propyl]triethoxysilane,360.93,chen14,1
2900,C[Si](O[Si](O[Si](O[Si](O[Si](O[Si](O[Si](C)(C)C)(C)C)(C)C)(C)C)(C)C)(C)C)(C)C,Hexadecamethylheptasiloxane,406.15,chen14,1
2901,NCCC[SiH2]OCC,Gamma-aminopropylethoxysilane,369.26,chen14,1
2902,Cl[Si](CC)(CC)Cl,Dichlorodiethylsilane,297.15,chen14,1
2903,C[SiH](Cl)C,Dimethylchlorosilane,245.15,chen14,1
2904,OC/C=C/CO,"(2E)-but-2-ene-1,4-diol",401.0,Saldana11,1
2905,OC[C@H](O)[C@@H](O)[C@H](O)[C@H](O)CO,"(2R,3R,4R,5S)-hexane-1,2,3,4,5,6-hexol",422.0,Saldana11,1
2906,OCC[C@H](O)CO,"(2S)-butane-1,2,4-triol",385.0,Saldana11,1
2907,OC/C=C\CO,"(2Z)-but-2-ene-1,4-diol",401.0,Saldana11,1
2908,CCCCC(CC)(CO)CO,"2-butyl-2-ethylpropane-1,3-diol",386.0,Saldana11,1
2909,CCCCCCC(CO)CCCC,2-butyloctan-1-ol,382.0,Saldana11,1
2910,CCC(CC)CO,2-ethylbutan-1-ol,330.0,Saldana11,1
2911,CCCCC(CC)CO,2-ethylhexan-1-ol,346.0,Saldana11,1
2912,CCCC(O)C(CC)CO,"2-ethylhexane-1,3-diol",409.0,Saldana11,1
2913,CCC(C)CO,2-methylbutan-1-ol,316.0,Saldana11,1
2914,CCC(C)(C)O,2-methylbutan-2-ol,294.0,Saldana11,1
2915,CCCC(C)CO,2-methylpentan-1-ol,319.0,Saldana11,1
2916,CC(O)CC(C)(C)O,"2-methylpentane-2,4-diol",366.0,Saldana11,1
2917,OCC(C)C,2-methylpropan-1-ol,301.0,Saldana11,1
2918,CC(C)(C)O,2-methylpropan-2-ol,284.0,Saldana11,1
2919,OCC(CO)(CO)CO,"2,2-bis(hydroxymethyl)propane-1,3-diol",533.0,Saldana11,1
2920,CCC(CC)(CO)CO,"2,2-diethylpropane-1,3-diol",374.0,Saldana11,1
2921,OCC(C)(C)CO,"2,2-dimethylpropane-1,3-diol",371.0,Saldana11,1
2922,OCC(C)(C)CC(C)C,"2,2,4-trimethylpentan-1-ol",330.0,Saldana11,1
2923,OCC(C)(C)C(O)C(C)C,"2,2,4-trimethylpentane-1,3-diol",383.0,Saldana11,1
2924,CC(C)(O)C(C)(C)O,"2,3-dimethylbutane-2,3-diol",350.0,Saldana11,1
2925,OCC(C)C(C)C(C)C,"2,3,4-trimethylpentan-1-ol",333.0,Saldana11,1
2926,OCC(C)CC(C)(C)C,"2,4,4-trimethylpentan-1-ol",333.0,Saldana11,1
2927,OCCC(C)C,3-methylbutan-1-ol,316.0,Saldana11,1
2928,CC(O)C(C)C,3-methylbutan-2-ol,299.0,Saldana11,1
2929,CCCCC(C)(O)CC,3-methylheptan-3-ol,327.0,Saldana11,1
2930,OCCC(C)CC,3-methylpentan-1-ol,331.0,Saldana11,1
2931,CCC(C)(O)CC,3-methylpentan-3-ol,297.0,Saldana11,1
2932,OCCC(C)(C)C,"3,3-dimethylbutan-1-ol",321.0,Saldana11,1
2933,CC(C)CC(C)O,4-methylpentan-2-ol,314.0,Saldana11,1
2934,CCC(C)CC(O)CC,5-methylheptan-3-ol,327.0,Saldana11,1
2935,OCCCCCCCC(C)C,8-methylnonan-1-ol,378.0,Saldana11,1
2936,CCCCO,butan-1-ol,310.0,Saldana11,1
2937,CCC(C)O,butan-2-ol,296.0,Saldana11,1
2938,CCC(O)CO,"butane-1,2-diol",363.0,Saldana11,1