,smiles,compound,flashpoint,source,pure substance
1235,CCCOP(=S)(OCCC)OP(=S)(OCCC)OCCC,dipropoxyphosphinothioyloxy-dipropoxy-sulfanylidene-λ5-phosphane,422.15,pubchem,1
1236,CC1C(O1)C,"2,3-dimethyloxirane",255.15,pubchem,1
1237,CSCCC=O,3-methylsulfanylpropanal,334.15,pubchem,1
1238,CC(CCO)CC(C)(C)C,"3,5,5-trimethylhexan-1-ol",366.15,pubchem,1
1239,CC1CCCCN1CCCOC(=O)C2=CC(=C(C=C2)Cl)Cl,"3-(2-methylpiperidin-1-yl)propyl 3,4-dichlorobenzoate",344.15,pubchem,1
1240,CC(C)CCC(C)(C)C,"2,2,5-trimethylhexane",304.15,pubchem,1
1241,CC1CCC(C(C1)O)C(C)C,"(1R,2R,5R)-5-methyl-2-propan-2-ylcyclohexan-1-ol",364.15,pubchem,1
1242,CCCCCCCOC(=O)C1=CC=CC=C1C(=O)OCCCCCCC,"diheptyl benzene-1,2-dicarboxylate",497.15,pubchem,1
1243,C=CCCCCC=C,"octa-1,7-diene",282.15,pubchem,1
1244,CCN(CC)O,"N,N-diethylhydroxylamine",318.15,pubchem,1
1245,CC=CC(=O)O,but-2-enoic acid,361.15,pubchem,1
1246,CC(=C)C(=O)OCCNC(C)(C)C,2-(tert-butylamino)ethyl 2-methylprop-2-enoate,369.15,pubchem,1
1247,CCCC(=O)C(=O)C,"hexane-2,3-dione",301.15,pubchem,1
1248,CC1=CC(=C(C=C1)OP(=O)(OC2=C(C=C(C=C2)C)C)OC3=C(C=C(C=C3)C)C)C,"tris(2,4-dimethylphenyl) phosphate",505.15,pubchem,1
1249,CCC(CC)COC(=O)C=C,2-ethylbutyl prop-2-enoate,325.15,pubchem,1
1250,CC(C)OCC1CO1,2-(propan-2-yloxymethyl)oxirane,306.15,pubchem,1
1251,C=CC(=O)OCCOCCOC(=O)C=C,2-(2-prop-2-enoyloxyethoxy)ethyl prop-2-enoate,351.15,pubchem,1
1252,CCCCCCC(C)O,octan-2-ol,349.15,pubchem,1
1253,CC(CCOC(=O)C)OC,3-methoxybutyl acetate,350.15,pubchem,1
1254,CCCCN(CC)N=O,N-butyl-N-ethylnitrous amide,366.15,pubchem,1
1255,CC(CCC#N)C#N,2-methylpentanedinitrile,399.15,pubchem,1
1256,CC(C)OC(=O)C(=C)C,propan-2-yl 2-methylprop-2-enoate,294.15,pubchem,1
1257,CC1CC(=O)C=C2C1(CC(CC2)C(=C)C)C,"4,4a-dimethyl-6-prop-1-en-2-yl-3,4,5,6,7,8-hexahydronaphthalen-2-one",373.15,pubchem,1
1258,CCCCOCC(C)O,1-butoxypropan-2-ol,336.15,pubchem,1
1259,CC1=C(SCCO1)C(=O)NC2=CC=CC=C2,"6-methyl-N-phenyl-2,3-dihydro-1,4-oxathiine-5-carboxamide",476.15,pubchem,1
1260,CC1=C(S(=O)(=O)CCO1)C(=O)NC2=CC=CC=C2,"6-methyl-4,4-dioxo-N-phenyl-2,3-dihydro-1,4-oxathiine-5-carboxamide",492.15,pubchem,1
1261,C(COC(=O)N)O,2-hydroxyethyl carbamate,461.15,pubchem,1
1262,B(OC(C)C)(OC(C)C)OC(C)C,tripropan-2-yl borate,301.15,pubchem,1
1263,CC(CC=O)CC(C)(C)C,"3,5,5-trimethylhexanal",389.15,pubchem,1
1264,CCNC1CCCCC1,N-ethylcyclohexanamine,302.15,pubchem,1
1265,C1CCC(C(C1)C(=O)OCC2CO2)C(=O)OCC3CO3,"bis(oxiran-2-ylmethyl) cyclohexane-1,2-dicarboxylate",463.15,pubchem,1
1266,CCCC[O-].CCCC[O-].CCCC[O-].CCCC[O-].[Ti+4],butan-1-olate;titanium(4+),350.15,pubchem,1
1267,COP(=S)(OC)OC1=NC(=C(C=C1Cl)Cl)Cl,"dimethoxy-sulfanylidene-(3,5,6-trichloropyridin-2-yl)oxy-λ5-phosphane",455.15,pubchem,1
1268,C1=CC(=O)NNC1=O,"1,2-dihydropyridazine-3,6-dione",573.15,pubchem,1
1269,CCCCCCCCCCCCCCCC[Si](Cl)(Cl)Cl,trichloro(hexadecyl)silane,419.15,pubchem,1
1270,CC1=CCC(CC1)C(=C)C,1-methyl-4-prop-1-en-2-ylcyclohexene,319.15,pubchem,1
1271,CCCC(C)O,pentan-2-ol,308.15,pubchem,1
1272,CCCCC(CC)COC(=O)C1=CC=C(C=C1)C(=O)OCC(CC)CCCC,"bis(2-ethylhexyl) benzene-1,4-dicarboxylate",511.15,pubchem,1
1273,CCCCCCCCCCCC1=CC=CC=C1,undecylbenzene,414.15,pubchem,1
1274,CC(C)C(C(C)(C)COC(=O)C(C)C)OC(=O)C(C)C,"[2,2,4-trimethyl-3-(2-methylpropanoyloxy)pentyl] 2-methylpropanoate",394.15,pubchem,1
1275,CCCCN(C)N=O,N-butyl-N-methylnitrous amide,305.15,pubchem,1
1276,C1=CC=C(C=C1)C=C([N+](=O)[O-])Br,(2-bromo-2-nitroethenyl)benzene,327.15,pubchem,1
1277,CCCC[Si](Cl)(Cl)Cl,butyl(trichloro)silane,325.15,pubchem,1
1278,CC(C)(C)OCC1CO1,2-[(2-methylpropan-2-yl)oxymethyl]oxirane,316.15,pubchem,1
1279,[O-]S(=O)S(=O)[O-].[Na+].[Na+],"InChI=1S/2Na.H2O4S2/c;;1-5(2)6(3)4/h;;(H,1,2)(H,3,4)/q2*+1;/p-2",373.15,pubchem,1
1280,CC(C)(C)C1=C(C=CC(=C1)O)OC.CC(C)(C)C1=C(C=CC(=C1)OC)O,2-tert-butyl-4-methoxyphenol;3-tert-butyl-4-methoxyphenol,386.15,pubchem,1
1281,C1=CC=C(C=C1)C2=CC=CC=C2.C1=CC=C(C=C1)OC2=CC=CC=C2,"1,1'-biphenyl;phenoxybenzene",397.15,pubchem,1
1282,CC(C)CCCCCOC(=O)COC1=C(C=C(C=C1)Cl)Cl,"6-methylheptyl 2-(2,4-dichlorophenoxy)acetate",321.15,pubchem,1
1283,CC1=CCCC(C1C=CC(=O)C)(C)C,"4-(2,6,6-trimethylcyclohex-2-en-1-yl)but-3-en-2-one",391.15,pubchem,1
1284,C[Si](C)(C)O[Si](C)(C)O[Si](C)(C)C,dimethyl-bis(trimethylsilyloxy)silane,408.15,pubchem,1
1285,CCOP(=O)(OCC)SCCSCC.CCOP(=S)(OCC)OCCSCC,diethoxy-(2-ethylsulfanylethoxy)-sulfanylidene-λ5-phosphane;1-diethoxyphosphorylsulfanyl-2-ethylsulfanylethane,318.15,pubchem,1
1286,C(C=CCl)Cl,"(E)-1,3-dichloroprop-1-ene",308.15,pubchem,1
1287,CC(CN(CC(C)O)CC(C)O)O,1-[bis(2-hydroxypropyl)amino]propan-2-ol,433.15,pubchem,1
1288,CC(C)NC1=NC(=NC(=N1)NC2CC2)Cl,"6-chloro-4-N-cyclopropyl-2-N-propan-2-yl-1,3,5-triazine-2,4-diamine",436.15,pubchem,1
1289,CC1=CC(=CC=C1)NC(=O)OC2=CC=CC(=C2)NC(=O)OC,[3-(methoxycarbonylamino)phenyl] N-(3-methylphenyl)carbamate,347.15,pubchem,1
1290,CCCCCCCCCCCCCCCCCC(=O)OCCO,2-hydroxyethyl octadecanoate,533.15,pubchem,1
1291,C[Si](C)(C)O[Si](C)(C)C,trimethyl(trimethylsilyloxy)silane,243.15,pubchem,1
1292,S(SCl)Cl,chlorosulfanyl thiohypochlorite,391.15,pubchem,1
1293,CCC(C)N,butan-2-amine,264.15,pubchem,1
1294,CCCCNC1CCCCC1,N-butylcyclohexanamine,366.15,pubchem,1
1295,CC(=O)OC(CCl)Cl,"1,2-dichloroethyl acetate",426.15,pubchem,1
1296,CCC(C)C(C)CO,"2,3-dimethylpentan-1-ol",334.15,pubchem,1
1297,CC(CO)OCC(C)OCC(C)OC,2-[2-(2-methoxypropoxy)propoxy]propan-1-ol,384.15,pubchem,1
1298,CC(=C)C(OC(=O)C)OC(=O)C,(1-acetyloxy-2-methylprop-2-enyl) acetate,488.15,pubchem,1
1299,S(Cl)Cl,chloro thiohypochlorite,391.15,pubchem,1
1300,CCN(C)N=O,N-ethyl-N-methylnitrous amide,349.15,pubchem,1
1301,CCCCCCCCCCCCC1=CC=CC=C1S(=O)(=O)O,2-dodecylbenzenesulfonic acid,422.15,pubchem,1
1302,CC(CO)OCC(C)OC,2-(2-methoxypropoxy)propan-1-ol,347.15,pubchem,1
1303,CC[Al](CC)Cl.CC[Al](Cl)Cl,chloro(diethyl)alumane;dichloro(ethyl)alumane,253.15,pubchem,1
1304,CC1=C[CH-]C=C1.[C-]#[O+].[C-]#[O+].[C-]#[O+].[Mn],"carbon monoxide;manganese;2-methylcyclopenta-1,3-diene",369.15,pubchem,1
1305,CCOP(=S)(OCC)SCSC(C)(C)C,tert-butylsulfanylmethylsulfanyl-diethoxy-sulfanylidene-λ5-phosphane,361.15,pubchem,1
1306,CCCCNCC,N-ethylbutan-1-amine,291.15,pubchem,1
1307,C(C(CCl)OP(=O)(OC(CCl)CCl)OC(CCl)CCl)Cl,"tris(1,3-dichloropropan-2-yl) phosphate",525.15,pubchem,1
1308,CC1=CCCC(=C)C2CC(C2CC1)(C)C,"4,11,11-trimethyl-8-methylidenebicyclo[7.2.0]undec-4-ene",374.15,pubchem,1
1309,CCCSC(=O)Cl,S-propyl chloromethanethioate,335.15,pubchem,1
1310,CCCCC(C)C(C)C.CCCC(C)CC(C)C.CC(C)CC(C)C(C)C,"2,3-dimethylheptane;2,4-dimethylheptane;2,3,5-trimethylhexane",297.15,pubchem,1
1311,C1=CC(=C(C(=C1O)Cl)Cl)Cl,"2,3,4-trichlorophenol",335.15,pubchem,1
1312,CC=C1CC2CC1C=C2,5-ethylidenebicyclo[2.2.1]hept-2-ene,299.15,pubchem,1
1313,CCCCCCCCCCCCCC(=O)OC1C(C2(C(C=C(CC3(C2C=C(C3=O)C)O)CO)C4C1(C4(C)C)OC(=O)C)O)C,"[(1S,2S,6R,10S,11R,13S,14R,15R)-13-acetyloxy-1,6-dihydroxy-8-(hydroxymethyl)-4,12,12,15-tetramethyl-5-oxo-14-tetracyclo[8.5.0.02,6.011,13]pentadeca-3,8-dienyl] tetradecanoate",310.15,pubchem,1
1314,CC(C)N(C(C)C)C(=O)SCC(=CCl)Cl,"S-(2,3-dichloroprop-2-enyl) N,N-di(propan-2-yl)carbamothioate",369.15,pubchem,1
1315,C1CCC(CC1)SN2C(=O)C3=CC=CC=C3C2=O,"2-cyclohexylsulfanylisoindole-1,3-dione",450.15,pubchem,1
1316,C[Si](C)(C)O[Si](C)(O[Si](C)(C)C)O[Si](C)(C)C,trimethyl-[methyl-bis(trimethylsilyloxy)silyl]oxysilane,359.15,pubchem,1
1317,CC(CBr)O,1-bromopropan-2-ol,327.15,pubchem,1
1318,CCOP(OCC)OCC,triethyl phosphite,319.15,pubchem,1
1319,CCCCC(CC)COC(=O)CCCCCCCCC(=O)OCC(CC)CCCC,bis(2-ethylhexyl) decanedioate,483.15,pubchem,1
1320,CC(=O)OC1=CC=CC=C1,phenyl acetate,353.15,pubchem,1
1321,C1=CC=C(C=C1)CCCO,3-phenylpropan-1-ol,485.15,pubchem,1
1322,C1=CC=C(C=C1)OCCO,2-phenoxyethanol,394.15,pubchem,1
1323,CCCCCCCCCCCCC1=CC=CC=C1,dodecylbenzene,408.15,pubchem,1
1324,CCCCC(CC)C=O,2-ethylhexanal,325.15,pubchem,1
1325,CCC1=CC=C(C=C1)O,4-ethylphenol,377.15,pubchem,1
1326,COC1=CC=C(C=C1)C=O,4-methoxybenzaldehyde,389.15,pubchem,1
1327,CCCC(C)C=O,2-methylpentanal,293.15,pubchem,1
1328,CCCC(=O)CCC,heptan-4-one,322.15,pubchem,1
1329,CCCC(=O)OC=C,ethenyl butanoate,293.15,pubchem,1
1330,CCOC(=O)CCC(=O)OCC,diethyl butanedioate,363.15,pubchem,1
1331,CC(=CCCC(=C)C=C)C,"7-methyl-3-methylideneocta-1,6-diene",312.15,pubchem,1
1332,CNC=O,N-methylformamide,371.15,pubchem,1
1333,CC(=O)CC(C)(C)O,4-hydroxy-4-methylpentan-2-one,325.15,pubchem,1
1334,CC(C)CCO,3-methylbutan-1-ol,319.15,pubchem,1
1335,CC(=O)CC(=O)C,"pentane-2,4-dione",307.15,pubchem,1
1336,CCC(=O)OC(=O)CC,propanoyl propanoate,336.15,pubchem,1
1337,CC1OC(OC(O1)C)C,"2,4,6-trimethyl-1,3,5-trioxane",309.15,pubchem,1
1338,C1CCNC1,pyrrolidine,276.15,pubchem,1
1339,CCCCCCCCOC(=O)CCCCC(=O)OCCCCCCCC,dioctyl hexanedioate,469.15,pubchem,1
1340,CCCCOC(=O)C,butyl acetate,295.15,pubchem,1
1341,C1COCCO1,"1,4-dioxane",285.15,pubchem,1
1342,CC(C)CCOC(=O)C,3-methylbutyl acetate,298.15,pubchem,1
1343,CCCCCCCCCCCCCCCCCC(=O)OCCCC,butyl octadecanoate,433.15,pubchem,1
1344,C=CCNCC=C,N-prop-2-enylprop-2-en-1-amine,280.15,pubchem,1
1345,CCCCCCCC=C,non-1-ene,299.15,pubchem,1
1346,CCCCOCCOCC(C)O,1-(2-butoxyethoxy)propan-2-ol,394.15,pubchem,1
1347,CCCCOCCOCCOC(=O)C,2-(2-butoxyethoxy)ethyl acetate,389.15,pubchem,1
1348,CCCCCCCCC=O,nonanal,356.15,pubchem,1
1349,CC(C)(CO)CO,"2,2-dimethylpropane-1,3-diol",380.15,pubchem,1
1350,C1CCS(=O)(=O)C1,"thiolane 1,1-dioxide",439.15,pubchem,1
1351,CCCCOP(=O)(OCCCC)OCCCC,tributyl phosphate,419.15,pubchem,1
1352,CC(=C)C#N,2-methylprop-2-enenitrile,286.15,pubchem,1
1353,C=CC(=C)Cl,"2-chlorobuta-1,3-diene",253.15,pubchem,1
1354,CC(CCl)O,1-chloropropan-2-ol,325.15,pubchem,1
1355,CC(=O)N(C)C,"N,N-dimethylacetamide",339.15,pubchem,1
1356,CC1=CC(=C(C(=C1)C(C)(C)C)O)C(C)(C)C,"2,6-ditert-butyl-4-methylphenol",400.15,pubchem,1
1357,CC1=C(C(=O)CC1OC(=O)C2C(C2(C)C)C=C(C)C)CC#C,"(2-methyl-4-oxo-3-prop-2-ynylcyclopent-2-en-1-yl) (1S,3S)-2,2-dimethyl-3-(2-methylprop-1-enyl)cyclopropane-1-carboxylate",412.15,pubchem,1
1358,CCCCOCN(C1=C(C=CC=C1CC)CC)C(=O)CCl,"N-(butoxymethyl)-2-chloro-N-(2,6-diethylphenyl)acetamide",387.15,pubchem,1
1359,CCN(CC)C1=NC(=CC(=N1)OP(=S)(OCC)OCC)C,"4-diethoxyphosphinothioyloxy-N,N-diethyl-6-methylpyrimidin-2-amine",386.15,pubchem,1
1360,CCC1=CC=CC(=C1N)C,2-ethyl-6-methylaniline,375.15,pubchem,1
1361,CC(CO)OCC(C)OCC(C)O,2-[2-(2-hydroxypropoxy)propoxy]propan-1-ol,414.15,pubchem,1
1362,CC(C)CCCCCCCOP(=S)(OCCCCCCCC(C)C)[S-].CC(C)CCCCCCCOP(=S)(OCCCCCCCC(C)C)[S-].[Zn+2],zinc;bis(8-methylnonoxy)-sulfanylidene-sulfido-λ5-phosphane,553.15,pubchem,1
1363,CC1COC(CO1)C,"2,5-dimethyl-1,4-dioxane",297.15,pubchem,1
1364,CC(CO)OCC(C)O,2-(2-hydroxypropoxy)propan-1-ol,472.15,pubchem,1
1365,CC(C)CCCCCCCO,8-methylnonan-1-ol,377.15,pubchem,1
1366,CCCCN(CCC)N=O,N-butyl-N-propylnitrous amide,367.15,pubchem,1
1367,CC(CO)OC(C)COC(C)COC,2-[1-(1-methoxypropan-2-yloxy)propan-2-yloxy]propan-1-ol,394.15,pubchem,1
1368,C=CC(=O)OCCCO,3-hydroxypropyl prop-2-enoate,370.15,pubchem,1
1369,CC(C)CCCCCCCOC(=O)C1=CC=CC=C1C(=O)OCCCCCCCC(C)C,"bis(8-methylnonyl) benzene-1,2-dicarboxylate",505.15,pubchem,1
1370,CCCCCCC(C)(C)C(=O)OCC1CO1,"oxiran-2-ylmethyl 2,2-dimethyloctanoate",402.15,pubchem,1
1371,CCCCCCC=CC,non-2-ene,299.15,pubchem,1
1372,CC(C)CCCCCOC(=O)C1=CC=CC=C1C(=O)OCCCCCC(C)C,"bis(6-methylheptyl) benzene-1,2-dicarboxylate",505.15,pubchem,1
1373,CC(CO)OC(=O)C(=C)C,1-hydroxypropan-2-yl 2-methylprop-2-enoate,394.15,pubchem,1
1374,CC1=CC=C(C=C1)[N+](=O)[O-].C1=CC=C(C(=C1)N)[N+](=O)[O-].C1=CC(=CC(=C1)[N+](=O)[O-])N.N,azane;1-methyl-4-nitrobenzene;2-nitroaniline;3-nitroaniline,427.15,pubchem,1
1375,CC(C)CCCCCCCOC(=O)C(=C)C,8-methylnonyl 2-methylprop-2-enoate,394.15,pubchem,1
1376,CCSCC1=CC=CC=C1OC(=O)NC,[2-(ethylsulfanylmethyl)phenyl] N-methylcarbamate,396.15,pubchem,1
1377,CCCN(CCCl)C1=C(C=C(C=C1[N+](=O)[O-])C(F)(F)F)[N+](=O)[O-],"N-(2-chloroethyl)-2,6-dinitro-N-propyl-4-(trifluoromethyl)aniline",303.15,pubchem,1
1378,C1=C(C=C(C=C1Cl)Cl)C2=CC(=CC(=C2)Cl)Cl,"1,3-dichloro-5-(3,5-dichlorophenyl)benzene",414.15,pubchem,1
1379,CN(C)CCCC1(C2=CC=CC=C2N(C1=O)N(C)CC3=CC=CC=C3F)C4=CC=CC=C4,3-[3-(dimethylamino)propyl]-1-[(2-fluorophenyl)methyl-methylamino]-3-phenylindol-2-one,466.15,pubchem,1
1380,CCC(C)NC1=C(C=C(C=C1[N+](=O)[O-])C(C)(C)C)[N+](=O)[O-],"N-butan-2-yl-4-tert-butyl-2,6-dinitroaniline",309.15,pubchem,1
1381,CC(C)C1=CC=C(C=C1)NC(=O)N(C)C,"1,1-dimethyl-3-(4-propan-2-ylphenyl)urea",373.15,pubchem,1
1382,C=CCOC(CN1C=CN=C1)C2=C(C=C(C=C2)Cl)Cl,"1-[2-(2,4-dichlorophenyl)-2-prop-2-enoxyethyl]imidazole",465.15,pubchem,1
1383,C1=CC(=C(C(=C1C2=C(C(=C(C=C2)Cl)Cl)Cl)Cl)Cl)Cl,"1,2,3-trichloro-4-(2,3,4-trichlorophenyl)benzene",414.15,pubchem,1
1384,C1=CC(=CC(=C1)Cl)C2=CC(=CC(=C2)Cl)Cl,"1,3-dichloro-5-(3-chlorophenyl)benzene",414.15,pubchem,1
1385,CCC(CC)NC1=C(C=C(C(=C1[N+](=O)[O-])C)C)[N+](=O)[O-],"3,4-dimethyl-2,6-dinitro-N-pentan-3-ylaniline",306.15,pubchem,1
1386,CCC1=C(C(=CC=C1)CC)CC,"1,2,3-triethylbenzene",356.15,pubchem,1
1387,CC(C)(C)C(=O)C(N1C=NC=N1)OC2=CC=C(C=C2)Cl,"1-(4-chlorophenoxy)-3,3-dimethyl-1-(1,2,4-triazol-1-yl)butan-2-one",345.15,pubchem,1
1388,CCOP(=O)(C)SCCN(C(C)C)C(C)C,N-[2-[ethoxy(methyl)phosphoryl]sulfanylethyl]-N-propan-2-ylpropan-2-amine,432.15,pubchem,1
1389,CC(C(=O)OC)OC1=CC=C(C=C1)OC2=C(C=C(C=C2)Cl)Cl,"methyl 2-[4-(2,4-dichlorophenoxy)phenoxy]propanoate",311.15,pubchem,1
1390,C(CO[N+](=O)[O-])O[N+](=O)[O-],2-nitrooxyethyl nitrate,488.15,pubchem,1
1391,CC1CCC(C(C1)O)C(C)C,"(1S,2R,5R)-5-methyl-2-propan-2-ylcyclohexan-1-ol",364.15,pubchem,1
1392,CC1(C(C1C(=O)OC(C#N)C2=CC(=CC=C2)OC3=CC=CC=C3)C(C(Br)(Br)Br)Br)C,"[(S)-cyano-(3-phenoxyphenyl)methyl] (1R,3S)-2,2-dimethyl-3-(1,2,2,2-tetrabromoethyl)cyclopropane-1-carboxylate",299.15,pubchem,1
1393,CC(COC(=O)C)OC,2-methoxypropyl acetate,298.15,pubchem,1
1394,CCOC(=O)NCCOC1=CC=C(C=C1)OC2=CC=CC=C2,ethyl N-[2-(4-phenoxyphenoxy)ethyl]carbamate,497.15,pubchem,1
1395,CC1(CON(C1=O)CC2=CC=CC=C2Cl)C,"2-[(2-chlorophenyl)methyl]-4,4-dimethyl-1,2-oxazolidin-3-one",257.15,pubchem,1
1396,CC1=C(C=CC=C1COC(=O)C2C(C2(C)C)C=C(C(F)(F)F)Cl)C3=CC=CC=C3,"(2-methyl-3-phenylphenyl)methyl 3-(2-chloro-3,3,3-trifluoroprop-1-enyl)-2,2-dimethylcyclopropane-1-carboxylate",438.15,pubchem,1
1397,CNCCC(C1=CC=CS1)OC2=CC=CC3=CC=CC=C32,(3S)-N-methyl-3-naphthalen-1-yloxy-3-thiophen-2-ylpropan-1-amine,282.15,pubchem,1
1398,C1CN(CCN1CCC2=C(C=C3C(=C2)CC(=O)N3)Cl)C4=NSC5=CC=CC=C54,"5-[2-[4-(1,2-benzothiazol-3-yl)piperazin-1-yl]ethyl]-6-chloro-1,3-dihydroindol-2-one",271.15,pubchem,1
1399,C1CCC(CC1)[Si](Cl)(Cl)Cl,trichloro(cyclohexyl)silane,364.15,pubchem,1
1400,C1CC(OC=C1)C=O,"3,4-dihydro-2H-pyran-2-carbaldehyde",321.15,pubchem,1
1401,CCN(CC)CCCN,"N',N'-diethylpropane-1,3-diamine",332.15,pubchem,1
1402,CC(=CC=O)C,3-methylbut-2-enal,310.15,pubchem,1
1403,CC1OC(OC(OC(O1)C)C)C,"2,4,6,8-tetramethyl-1,3,5,7-tetraoxocane",309.15,pubchem,1
1404,CC(=O)OC1CC2CCC1(C2(C)C)C,"[(1R,2R,4S)-1,7,7-trimethyl-2-bicyclo[2.2.1]heptanyl] acetate",361.15,pubchem,1
1405,CC(CCN)N,"butane-1,3-diamine",325.15,pubchem,1
1406,CCCCOC(=O)Cl,butyl carbonochloridate,298.15,pubchem,1
1407,CCP(=S)(Cl)Cl,dichloro-ethyl-sulfanylidene-λ5-phosphane,368.15,pubchem,1
1408,CCC(C)(C)OC,2-methoxy-2-methylbutane,266.15,pubchem,1
1409,CC(COC(=O)C=C)O,2-hydroxypropyl prop-2-enoate,338.15,pubchem,1
1410,CCCCCO[N+](=O)[O-],pentyl nitrate,322.15,pubchem,1
1411,CCCCC(CC)COC(=O)COC1=C(C=C(C=C1)Cl)Cl,"2-ethylhexyl 2-(2,4-dichlorophenoxy)acetate",444.15,pubchem,1
1412,CCCCCCCCC(=O)OCC=C,prop-2-enyl nonanoate,302.15,pubchem,1
1413,CCC(CC)COC(=O)C,2-ethylbutyl acetate,327.15,pubchem,1
1414,CC(C(=O)O)O,(2R)-2-hydroxypropanoic acid,386.15,pubchem,1
1415,[OH-].[OH-].[Ni+2],nickel(2+);dihydroxide,673.15,pubchem,1
1416,CCCOCCCO,3-propoxypropan-1-ol,326.15,pubchem,1
1417,CC1(COCN1)C,"4,4-dimethyl-1,3-oxazolidine",322.15,pubchem,1
1418,CC=CC=C,"(3E)-penta-1,3-diene",244.15,pubchem,1
1419,CCC(=O)Cl,propanoyl chloride,285.15,pubchem,1
1420,CC(C)COC(=O)Cl,2-methylpropyl carbonochloridate,300.15,pubchem,1
1421,[CH-]1C=CC=C1.[CH-]1C=CC=C1.[Ni+2],"cyclopenta-1,3-diene;nickel(2+)",277.15,pubchem,1
1422,CC(C)OC(=O)CC1=CC=CC=C1,propan-2-yl 2-phenylacetate,368.15,pubchem,1
1423,CCCCCCCCCCCS,undecane-1-thiol,382.15,pubchem,1
1424,CCOC(=O)CC(C)O,ethyl 3-hydroxybutanoate,337.15,pubchem,1
1425,CC=CC,(E)-but-2-ene,262.15,pubchem,1
1426,COP(=O)(OC)OC1=C(C2C1CC=C2)Cl,"(7-chloro-6-bicyclo[3.2.0]hepta-2,6-dienyl) dimethyl phosphate",438.15,pubchem,1
1427,CC(C)C(C(C)(C)CO)O.CC(C)C(=O)O,"2-methylpropanoic acid;2,2,4-trimethylpentane-1,3-diol",393.15,pubchem,1
1428,CCCCCCCCCCCCCCCCCC[N+](C)(C)CCC[Si](OC)(OC)OC.[Cl-],dimethyl-octadecyl-(3-trimethoxysilylpropyl)azanium;chloride,288.15,pubchem,1
1429,CC(C)(C)CCCCCC(=O)O,"7,7-dimethyloctanoic acid",367.15,pubchem,1
1430,C1=CC(=C(C(=C1)Cl)Cl)C2=C(C=C(C=C2)Cl)Cl,"1,2-dichloro-3-(2,4-dichlorophenyl)benzene",414.15,pubchem,1
1431,CC1(C2CCC1(C(C2)O)C)C,"1,7,7-trimethylbicyclo[2.2.1]heptan-2-ol",339.15,pubchem,1
1432,CC(C)(C)C1=CC(=CC(=C1O)C(C)(C)C)CCC(=O)OCC(COC(=O)CCC2=CC(=C(C(=C2)C(C)(C)C)O)C(C)(C)C)(COC(=O)CCC3=CC(=C(C(=C3)C(C)(C)C)O)C(C)(C)C)COC(=O)CCC4=CC(=C(C(=C4)C(C)(C)C)O)C(C)(C)C,"[3-[3-(3,5-ditert-butyl-4-hydroxyphenyl)propanoyloxy]-2,2-bis[3-(3,5-ditert-butyl-4-hydroxyphenyl)propanoyloxymethyl]propyl] 3-(3,5-ditert-butyl-4-hydroxyphenyl)propanoate",570.15,pubchem,1
1433,CC(CC1=CC=CC=C1)NC.Cl,(2S)-N-methyl-1-phenylpropan-2-amine;hydrochloride,282.15,pubchem,1
1434,C(=O)C(=C(C(=O)O)Cl)Cl,"2,3-dichloro-4-oxobut-2-enoic acid",373.15,pubchem,1
1435,C=CC1=CC=CC=C1C=C,"1,2-bis(ethenyl)benzene",335.15,pubchem,1
1436,CC(C)CCCCCOC(=O)CCCCC(=O)OCCCCCC(C)C,bis(6-methylheptyl) hexanedioate,483.15,pubchem,1
1437,C1=C(C=C(C(=C1O)O)O)C2=C(C=C3C(=CC(=CC3=[O+]2)O)O)O.[Cl-],"2-(3,4,5-trihydroxyphenyl)chromenylium-3,5,7-triol;chloride",466.15,pubchem,1
1438,C1=CC(=CC=C1CN)CN,[4-(aminomethyl)phenyl]methanamine,300.15,pubchem,1
1439,CCC(CC)OC(=O)C,pentan-3-yl acetate,306.15,pubchem,1
1440,CCCCCC(C)(C)S,2-methylheptane-2-thiol,319.15,pubchem,1
1441,C=C(C#N)Cl,2-chloroprop-2-enenitrile,280.15,pubchem,1
1442,CCCCCCCCCC1=CC=C(C=C1)OCCOCCOCCOCCOCCOCCOCCOCCOCCO,2-[2-[2-[2-[2-[2-[2-[2-[2-(4-nonylphenoxy)ethoxy]ethoxy]ethoxy]ethoxy]ethoxy]ethoxy]ethoxy]ethoxy]ethanol,470.15,pubchem,1
1443,CCCCOCCOCCOCCOCCO,2-[2-[2-(2-butoxyethoxy)ethoxy]ethoxy]ethanol,439.15,pubchem,1
1444,CCOP(=O)(O)O,ethyl dihydrogen phosphate,389.15,pubchem,1
1445,C(C(C(C(C(F)(F)S(=O)(=O)O)(F)F)(F)F)(F)F)(C(C(C(F)(F)F)(F)F)(F)F)(F)F,"1,1,2,2,3,3,4,4,5,5,6,6,7,7,8,8,8-heptadecafluorooctane-1-sulfonic acid",284.15,pubchem,1
1446,CC(CO)CO,"2-methylpropane-1,3-diol",400.15,pubchem,1
1447,CCCCCCCCCCCCCCCCCCOC(=O)CCCCCCCCCCCCCCC,octadecyl hexadecanoate,511.15,pubchem,1
1448,CCCCCCCCOP(=O)(O)OCCCCCCCC,dioctyl hydrogen phosphate,469.15,pubchem,1
1449,CNCCCN,"N'-methylpropane-1,3-diamine",309.15,pubchem,1
1450,CCOC(=O)C(=C)C#N,ethyl 2-cyanoprop-2-enoate,355.15,pubchem,1
1451,C1CC=CCCC=C1,"(1Z,5Z)-cycloocta-1,5-diene",368.15,pubchem,1
1452,CS(=O)(=O)[O-],methanesulfonate,462.15,pubchem,1
1453,CCCCCCCCCC1=CC=CC=C1OP(OC2=CC=CC=C2CCCCCCCCC)OC3=CC=CC=C3CCCCCCCCC,tris(2-nonylphenyl) phosphite,480.15,pubchem,1
1454,C1CCC2C(C1)C(=O)OC2=O,"3a,4,5,6,7,7a-hexahydro-2-benzofuran-1,3-dione",422.15,pubchem,1
1455,CC1CCC2C(C1)C(=O)OC2=O,"5-methyl-3a,4,5,6,7,7a-hexahydro-2-benzofuran-1,3-dione",623.15,pubchem,1
1456,C=CC(C(C(C(F)(F)F)(F)F)(F)F)(F)F,"3,3,4,4,5,5,6,6,6-nonafluorohex-1-ene",256.15,pubchem,1
1457,CC1=C(C(=CC=C1)C)N.Cl,"2,6-dimethylaniline;hydrochloride",364.15,pubchem,1
1458,CN1CCCC1C2=CN=CC=C2,3-[(2S)-1-methylpyrrolidin-2-yl]pyridine,368.15,pubchem,1
1459,COCCOCCOCCOCCO,2-[2-[2-(2-methoxyethoxy)ethoxy]ethoxy]ethanol,434.15,pubchem,1
1460,CC(C(=O)[O-])O,2-hydroxypropanoate,386.15,pubchem,1
1461,CCOC(=O)C#CC1=CC=CC=C1,ethyl 3-phenylprop-2-ynoate,386.15,pubchem,1
1462,CC1=NC(=NC(=N1)OC)NC(=O)NS(=O)(=O)C2=CC=CC=C2CCC(F)(F)F,"1-(4-methoxy-6-methyl-1,3,5-triazin-2-yl)-3-[2-(3,3,3-trifluoropropyl)phenyl]sulfonylurea",373.15,pubchem,1
1463,CCC(C)SP(=O)(OCC)SC(C)CC,2-[butan-2-ylsulfanyl(ethoxy)phosphoryl]sulfanylbutane,402.15,pubchem,1
1464,CC(COC1=CC=C(C=C1)OC2=CC=CC=C2)OC3=CC=CC=N3,2-[1-(4-phenoxyphenoxy)propan-2-yloxy]pyridine,392.15,pubchem,1