,smiles,compound,flashpoint,source,pure substance
611,CC(C)OC(=O)Cl,propan-2-yl carbonochloridate,289.15,pubchem,1
612,CC(=O)OC(=O)C,acetyl acetate,322.15,pubchem,1
613,CC1CCC(=O)O1,5-methyloxolan-2-one,354.15,pubchem,1
614,C1CC(=O)OC1=O,"oxolane-2,5-dione",430.15,pubchem,1
615,C1=CC(=O)OC1=O,"furan-2,5-dione",376.15,pubchem,1
616,CC1COC(=O)O1,"4-methyl-1,3-dioxolan-2-one",389.15,pubchem,1
617,CC1=CC(=CC=C1)C,"1,3-xylene",302.15,pubchem,1
618,CC1=CC(=CC=C1)Cl,1-chloro-3-methylbenzene,325.15,pubchem,1
619,C1=CC(=CC(=C1)Cl)N,3-chloroaniline,397.15,pubchem,1
620,CC1=CC(=CC=C1)N,3-methylaniline,359.15,pubchem,1
621,C1=CC(=CC(=C1)N)N,"benzene-1,3-diamine",411.15,pubchem,1
622,CC(CCl)OC(C)CCl,1-chloro-2-(1-chloropropan-2-yloxy)propane,358.15,pubchem,1
623,CC(COC)OC(=O)C,1-methoxypropan-2-yl acetate,319.15,pubchem,1
624,CC1=CC(=CC(=C1)C)C,"1,3,5-trimethylbenzene",323.15,pubchem,1
625,CC1=CC(=CC(=C1)O)C,"3,5-dimethylphenol",353.15,pubchem,1
626,CC1=CC(=CC(=C1)N)C,"3,5-dimethylaniline",366.15,pubchem,1
627,C1=C(C=C(C=C1Cl)Cl)Cl,"1,3,5-trichlorobenzene",380.15,pubchem,1
628,CC1=CC(=NC(=C1)C)C,"2,4,6-trimethylpyridine",331.15,pubchem,1
629,CC(C)CC(CC(C)C)O,"2,6-dimethylheptan-4-ol",347.15,pubchem,1
630,CC(C)CC(=O)CC(C)C,"2,6-dimethylheptan-4-one",333.15,pubchem,1
631,CC(C)CC(C)OC(=O)C,4-methylpentan-2-yl acetate,318.15,pubchem,1
632,C1=CC=C(C=C1)Br,bromobenzene,324.15,pubchem,1
633,CC1CCCCC1,methylcyclohexane,269.15,pubchem,1
634,CC1=CC=NC=C1,4-methylpyridine,330.15,pubchem,1
635,C1=CC=C(C=C1)Cl,chlorobenzene,297.15,pubchem,1
636,C1CCC(CC1)N,cyclohexanamine,304.15,pubchem,1
637,C1CCC(CC1)O,cyclohexanol,341.15,pubchem,1
638,C1CCC(=O)CC1,cyclohexanone,317.15,pubchem,1
639,C1=CC=C(C=C1)S,benzenethiol,326.15,pubchem,1
640,CC1=CN=CC=C1,3-methylpyridine,309.15,pubchem,1
641,CN1CCOCC1,4-methylmorpholine,297.15,pubchem,1
642,CC1=CC=CC=N1,2-methylpyridine,309.15,pubchem,1
643,CCCCOC(=O)CC(C)C,butyl 3-methylbutanoate,326.15,pubchem,1
644,CCCCOC(=O)CCC,butyl butanoate,326.15,pubchem,1
645,CCCCCCOC(=O)CCCCCCCC(=O)OCCCCCC,dihexyl nonanedioate,477.15,pubchem,1
646,CCCCOC(=O)CCCCCCCCC(=O)OCCCC,dibutyl decanedioate,451.15,pubchem,1
647,CCCCC(=O)O,pentanoic acid,362.15,pubchem,1
648,CC(C)COC=C,1-ethenoxy-2-methylpropane,264.15,pubchem,1
649,CN(C)CCCN,"N',N'-dimethylpropane-1,3-diamine",289.15,pubchem,1
650,CC(C)OCCO,2-propan-2-yloxyethanol,306.15,pubchem,1
651,CCCOC(=O)C,propyl acetate,287.15,pubchem,1
652,CCCOC(=O)Cl,propyl carbonochloridate,223.15,pubchem,1
653,C(CBr)CBr,"1,3-dibromopropane",239.15,pubchem,1
654,CCCCBr,1-bromobutane,291.15,pubchem,1
655,CCCCC,pentane,224.15,pubchem,1
656,CCCC=C,pent-1-ene,222.15,pubchem,1
657,CCCCCl,1-chlorobutane,266.15,pubchem,1
658,C(CCl)CBr,1-bromo-3-chloropropane,330.15,pubchem,1
659,CCCCN,butan-1-amine,261.15,pubchem,1
660,CCCC#N,butanenitrile,290.15,pubchem,1
661,C(C#N)C#N,propanedinitrile,403.15,pubchem,1
662,CCCCS,butane-1-thiol,286.15,pubchem,1
663,C(CS)CS,"propane-1,3-dithiol",332.15,pubchem,1
664,CNCCO,2-(methylamino)ethanol,347.15,pubchem,1
665,COCCO,2-methoxyethanol,315.15,pubchem,1
666,COCOC,dimethoxymethane,255.15,pubchem,1
667,CCNCC,N-ethylethanamine,244.15,pubchem,1
668,CCOC=O,ethyl formate,253.15,pubchem,1
669,CCON=O,ethyl nitrite,238.15,pubchem,1
670,C1=CNC=C1,1H-pyrrole,312.15,pubchem,1
671,C1CCOC1,oxolane,259.15,pubchem,1
672,C1=CSC=C1,thiophene,272.15,pubchem,1
673,CC(C)(C)OOC(C)(C)C,2-tert-butylperoxy-2-methylpropane,291.15,pubchem,1
674,CC(C)CCC(=O)C,5-methylhexan-2-one,309.15,pubchem,1
675,CC(=O)CCC(=O)C,"hexane-2,5-dione",352.15,pubchem,1
676,CN(C)CCN(C)C,"N,N,N',N'-tetramethylethane-1,2-diamine",283.15,pubchem,1
677,CC(C)COC(=O)C,2-methylpropyl acetate,290.15,pubchem,1
678,CC(=O)OOC(=O)C,acetyl ethaneperoxoate,318.15,pubchem,1
679,CCCCCCCCCCCCCCCCCC(=O)NCCNC(=O)CCCCCCCCCCCCCCCCC,N-[2-(octadecanoylamino)ethyl]octadecanamide,553.15,pubchem,1
680,CCCCCCOC(=O)CCCCC(=O)OCCCCCC,dihexyl hexanedioate,436.15,pubchem,1
681,CCCCCC(=O)C,heptan-2-one,312.15,pubchem,1
682,CC(=O)OCCOC,2-methoxyethyl acetate,317.15,pubchem,1
683,CCCCCC,hexane,250.15,pubchem,1
684,C(CCCl)CCl,"1,4-dichlorobutane",313.15,pubchem,1
685,CCCCCN,pentan-1-amine,280.15,pubchem,1
686,CCCCC#N,pentanenitrile,314.15,pubchem,1
687,C(CC#N)C#N,butanedinitrile,405.15,pubchem,1
688,CCCCC=O,pentanal,285.15,pubchem,1
689,C(CCO)CO,"butane-1,4-diol",392.15,pubchem,1
690,C(C=CCO)O,"but-2-ene-1,4-diol",401.15,pubchem,1
691,C(C#CCO)O,"but-2-yne-1,4-diol",401.15,pubchem,1
692,CCCCCS,pentane-1-thiol,291.15,pubchem,1
693,CCCCNC,N-methylbutan-1-amine,286.15,pubchem,1
694,CCCC=NO,N-butylidenehydroxylamine,331.15,pubchem,1
695,COCCOC,"1,2-dimethoxyethane",273.15,pubchem,1
696,CCNCCO,2-(ethylamino)ethanol,344.15,pubchem,1
697,CCCOC=O,propyl formate,270.15,pubchem,1
698,C=COCCCl,1-chloro-2-ethenoxyethane,289.15,pubchem,1
699,CCOCCO,2-ethoxyethanol,314.15,pubchem,1
700,C1CCCCC1,cyclohexane,253.15,pubchem,1
701,C1CCC=CC1,cyclohexene,261.15,pubchem,1
702,C1CC=COC1,"3,4-dihydro-2H-pyran",255.15,pubchem,1
703,C1OCOCO1,"1,3,5-trioxane",318.15,pubchem,1
704,C1CCNCC1,piperidine,276.15,pubchem,1
705,C1COCCN1,morpholine,311.15,pubchem,1
706,CC(C)CNCC(C)C,2-methyl-N-(2-methylpropyl)propan-1-amine,302.15,pubchem,1
707,CC(CNCC(C)O)O,1-(2-hydroxypropylamino)propan-2-ol,399.15,pubchem,1
708,CC(COCC(C)O)O,1-(2-hydroxypropoxy)propan-2-ol,411.15,pubchem,1
709,CCCCCCC(=O)C,octan-2-one,325.15,pubchem,1
710,CCOCCOC(=O)C,2-ethoxyethyl acetate,330.15,pubchem,1
711,CC(=O)OCCOCCOCCOC(=O)C,2-[2-(2-acetyloxyethoxy)ethoxy]ethyl acetate,447.15,pubchem,1
712,CCCCCCN,hexan-1-amine,302.15,pubchem,1
713,CCCCCCO,hexan-1-ol,336.15,pubchem,1
714,C(CCO)CCO,"pentane-1,5-diol",402.15,pubchem,1
715,CCCCCCS,hexane-1-thiol,293.15,pubchem,1
716,CCCCOC=C,1-ethenoxybutane,264.15,pubchem,1
717,CCOCCCO,3-ethoxypropan-1-ol,327.15,pubchem,1
718,CCCCN=C=O,1-isocyanatobutane,292.15,pubchem,1
719,C(CNCCN)N,"N'-(2-aminoethyl)ethane-1,2-diamine",375.15,pubchem,1
720,C(CNCCO)N,2-(2-aminoethylamino)ethanol,375.15,pubchem,1
721,C(CO)NCCO,2-(2-hydroxyethylamino)ethanol,410.15,pubchem,1
722,CCCOCCC,1-propoxypropane,294.15,pubchem,1
723,C(CCl)OCCCl,1-chloro-2-(2-chloroethoxy)ethane,328.15,pubchem,1
724,C(COCCO)O,2-(2-hydroxyethoxy)ethanol,416.15,pubchem,1
725,C1CCCNCC1,azepane,310.15,pubchem,1
726,CC(=O)OCCOC(=O)C,2-acetyloxyethyl acetate,369.15,pubchem,1
727,CCCCCCCC(=O)Cl,octanoyl chloride,354.15,pubchem,1
728,CCCCCCC=C,oct-1-ene,294.15,pubchem,1
729,C(CCC#N)CC#N,hexanedinitrile,366.15,pubchem,1
730,CCCCCCCO,heptan-1-ol,350.15,pubchem,1
731,CCCCCCC=O,heptanal,308.15,pubchem,1
732,CCCCOCCO,2-butoxyethanol,334.15,pubchem,1
733,COCCOCCO,2-(2-methoxyethoxy)ethanol,366.15,pubchem,1
734,CCCCCCCCC,nonane,304.15,pubchem,1
735,CCCCCCCCCl,1-chlorooctane,343.15,pubchem,1
736,CCCCCCCCS,octane-1-thiol,319.15,pubchem,1
737,CCOCCOCCO,2-(2-ethoxyethoxy)ethanol,369.15,pubchem,1
738,C(CCl)OCOCCCl,1-chloro-2-(2-chloroethoxymethoxy)ethane,383.15,pubchem,1
739,CCCCNCCCC,N-butylbutan-1-amine,325.15,pubchem,1
740,C(CNCCC#N)C#N,3-(2-cyanoethylamino)propanenitrile,383.15,pubchem,1
741,COCCOCCOC,1-methoxy-2-(2-methoxyethoxy)ethane,340.15,pubchem,1
742,CCCCCCCCCCCCCCCC[N+](C)(C)C.[Cl-],hexadecyl(trimethyl)azanium;chloride,294.15,pubchem,1
743,CCCCCCCCCCCCCCCCCC[Si](Cl)(Cl)Cl,trichloro(octadecyl)silane,362.15,pubchem,1
744,CCCCCCCCC(=O)O,nonanoic acid,406.15,pubchem,1
745,CCCCCCCOC(=O)C,heptyl acetate,341.15,pubchem,1
746,CCCCOCCOC(=O)C,2-butoxyethyl acetate,344.15,pubchem,1
747,CCCCCCCCCC(=O)C,undecan-2-one,362.15,pubchem,1
748,CCOCCOCCOC(=O)C,2-(2-ethoxyethoxy)ethyl acetate,383.15,pubchem,1
749,CCCCCCOCCO,2-hexoxyethanol,364.15,pubchem,1
750,C(COCCCl)OCCCl,"1,2-bis(2-chloroethoxy)ethane",523.15,pubchem,1
751,C(COCCOCCO)O,2-[2-(2-hydroxyethoxy)ethoxy]ethanol,439.15,pubchem,1
752,CCCCCCCCCCO,decan-1-ol,355.15,pubchem,1
753,CCCCCCCCCC=O,decanal,358.15,pubchem,1
754,CCCCOCCOCCO,2-(2-butoxyethoxy)ethanol,351.15,pubchem,1
755,CCOCCOCCOCC,1-ethoxy-2-(2-ethoxyethoxy)ethane,327.15,pubchem,1
756,CCCCCCCCCCCC,dodecane,347.15,pubchem,1
757,CCCCCCCCCCC=C,dodec-1-ene,373.15,pubchem,1
758,CCCCCCCCCCCO,undecan-1-ol,366.15,pubchem,1
759,CCCCOCCOCCCC,1-(2-butoxyethoxy)butane,358.15,pubchem,1
760,COCCOCCOCCOC,1-methoxy-2-[2-(2-methoxyethoxy)ethoxy]ethane,384.15,pubchem,1
761,CCOCCOCCOCCO,2-[2-(2-ethoxyethoxy)ethoxy]ethanol,408.15,pubchem,1
762,CCCCCCCCCCCCCl,1-chlorododecane,386.15,pubchem,1
763,CCCCCCCCCCCCO,dodecan-1-ol,400.15,pubchem,1
764,CCCCCCCCCCCCS,dodecane-1-thiol,361.15,pubchem,1
765,CCCCOCCOCCSC#N,2-(2-butoxyethoxy)ethyl thiocyanate,325.15,pubchem,1
766,C(CNCCNCCNCCN)N,"N'-[2-[2-(2-aminoethylamino)ethylamino]ethyl]ethane-1,2-diamine",436.15,pubchem,1
767,CCCCCCOCCOCCO,2-(2-hexoxyethoxy)ethanol,414.15,pubchem,1
768,C(COCCOCCOCCO)O,2-[2-[2-(2-hydroxyethoxy)ethoxy]ethoxy]ethanol,455.15,pubchem,1
769,CCCCCCCCCCCCCCCCCC(=O)OC,methyl octadecanoate,426.15,pubchem,1
770,CCCCCCCCCCCCCO,tridecan-1-ol,394.15,pubchem,1
771,CCCCCCCCCCCCCCO,tetradecan-1-ol,414.15,pubchem,1
772,CCCCOCCOCCOCCCC,1-[2-(2-butoxyethoxy)ethoxy]butane,391.15,pubchem,1
773,CCCCCCCCCCCCCCCCCCO,octadecan-1-ol,473.15,pubchem,1
774,CCCCCCCCCCCCCCCCCCCC,icosane,373.15,pubchem,1
775,CCCCC(CC)CN1C(=O)C2C3CC(C2C1=O)C=C3,"4-(2-ethylhexyl)-4-azatricyclo[5.2.1.02,6]dec-8-ene-3,5-dione",450.15,pubchem,1
776,CC=C,prop-1-ene,165.14999999999995,pubchem,1
777,COC,methoxymethane,269.15,pubchem,1
778,CC(=C)C,2-methylprop-1-ene,197.15,pubchem,1
779,CC(C)(C=C)O,2-methylbut-3-en-2-ol,286.15,pubchem,1
780,CC(C)(C#C)O,2-methylbut-3-yn-2-ol,298.15,pubchem,1
781,CC[Si](Cl)(Cl)Cl,trichloro(ethyl)silane,295.15,pubchem,1
782,CC1(C2CCC1(C(C2)OC(=O)CSC#N)C)C,"(1,7,7-trimethyl-2-bicyclo[2.2.1]heptanyl) 2-thiocyanatoacetate",355.15,pubchem,1
783,C1=CC(=CC=C1C(C2=CC=C(C=C2)Cl)(C(Cl)(Cl)Cl)O)Cl,"2,2,2-trichloro-1,1-bis(4-chlorophenyl)ethanol",297.15,pubchem,1
784,C(C(CO)(CO)CO)O,"2,2-bis(hydroxymethyl)propane-1,3-diol",513.15,pubchem,1
785,C1=CC=C(C=C1)OP(=O)(OC2=CC=CC=C2)OC3=CC=CC=C3,triphenyl phosphate,493.15,pubchem,1
786,CC(=CCCC(C)(C=C)OC(=O)C)C,"3,7-dimethylocta-1,6-dien-3-yl acetate",367.15,pubchem,1
787,C(CCl)OP(=O)(OCCCl)OCCCl,tris(2-chloroethyl) phosphate,505.15,pubchem,1
788,CC1CC(CC(C1)(C)C)O,"3,3,5-trimethylcyclohexan-1-ol",347.15,pubchem,1
789,CC(C)OP(OC(C)C)OC(C)C,tripropan-2-yl phosphite,347.15,pubchem,1
790,COC(=O)C(Cl)Cl,"methyl 2,2-dichloroacetate",353.15,pubchem,1
791,C12=C(C(=C(C(=C1Cl)Cl)Cl)Cl)C(=O)OC2=O,"4,5,6,7-tetrachloro-2-benzofuran-1,3-dione",635.15,pubchem,1
792,CCC(C(C1=CC=C(C=C1)Cl)C2=CC=C(C=C2)Cl)[N+](=O)[O-],1-chloro-4-[1-(4-chlorophenyl)-2-nitrobutyl]benzene,423.15,pubchem,1
793,C1=CC=C2C(=C1)C(=O)C3=C(C2=O)C=C(C=C3)N,"2-aminoanthracene-9,10-dione",556.15,pubchem,1
794,CCCCC(CC)COC(=O)C1=CC=CC=C1C(=O)OCC(CC)CCCC,"bis(2-ethylhexyl) benzene-1,2-dicarboxylate",480.15,pubchem,1
795,COCCOC(=O)C1=CC=CC=C1C(=O)OCCOC,"bis(2-methoxyethyl) benzene-1,2-dicarboxylate",483.15,pubchem,1
796,CCCCOCCOC(=O)C1=CC=CC=C1C(=O)OCCOCCCC,"bis(2-butoxyethyl) benzene-1,2-dicarboxylate",680.15,pubchem,1
797,CCCCCCCCOC(=O)C1=CC=CC=C1C(=O)OCCCCCCCC,"dioctyl benzene-1,2-dicarboxylate",377.15,pubchem,1
798,CC1(C(=O)N(C(=O)N1Cl)Cl)C,"1,3-dichloro-5,5-dimethylimidazolidine-2,4-dione",447.15,pubchem,1
799,C1=CC=C(C=C1)COC(=O)C2=CC=CC=C2O,benzyl 2-hydroxybenzoate,453.15,pubchem,1
800,CC1=C(C=CC=C1Cl)Cl,"1,3-dichloro-2-methylbenzene",355.15,pubchem,1
801,C1(=C(C(=C(C(=C1Cl)Cl)Cl)Cl)Cl)Cl,"1,2,3,4,5,6-hexachlorobenzene",515.15,pubchem,1
802,CCCCCCCCCCCCCOC(=O)C1=CC=CC=C1C(=O)OCCCCCCCCCCCCC,"ditridecyl benzene-1,2-dicarboxylate",511.15,pubchem,1
803,CCCCCCCCCCOC(=O)C1=CC=CC=C1C(=O)OCCCCCCCC,"2-O-decyl 1-O-octyl benzene-1,2-dicarboxylate",508.15,pubchem,1
804,CC1=C(C=C(C=C1)N)[N+](=O)[O-],4-methyl-3-nitroaniline,430.15,pubchem,1
805,C1CCC2=CC=CC=C2C1,"1,2,3,4-tetrahydronaphthalene",353.15,pubchem,1
806,COC1=C(C=CC(=C1)C2=CC(=C(C=C2)N)OC)N,4-(4-amino-3-methoxyphenyl)-2-methoxyaniline,479.15,pubchem,1
807,CC1=C(C=CC(=C1)C2=CC(=C(C=C2)N)C)N,4-(4-amino-3-methylphenyl)-2-methylaniline,517.15,pubchem,1
808,C1=CC=C2C=C3C=CC=CC3=CC2=C1,anthracene,394.15,pubchem,1
809,C1=CC=C(C=C1)CC2=C(C=CC(=C2)Cl)O,2-benzyl-4-chlorophenol,461.15,pubchem,1
810,CC(C(=O)O)OC1=C(C=C(C=C1)Cl)Cl,"2-(2,4-dichlorophenoxy)propanoic acid",477.15,pubchem,1
811,C1=CC=C(C=C1)C(=O)OCCOCCOC(=O)C2=CC=CC=C2,2-(2-benzoyloxyethoxy)ethyl benzoate,505.15,pubchem,1
812,COC(=O)C1=CC=C(C=C1)C(=O)OC,"dimethyl benzene-1,4-dicarboxylate",426.15,pubchem,1
813,C1=CC=C2C(=C1)N=C(S2)SSC3=NC4=CC=CC=C4S3,"2-(1,3-benzothiazol-2-yldisulfanyl)-1,3-benzothiazole",543.15,pubchem,1
814,C1=CC(=C(C=C1Cl)Cl)O,"2,4-dichlorophenol",387.15,pubchem,1
815,C1CCC(=O)C1,cyclopentanone,303.15,pubchem,1
816,CC(C)(C)C1=C(C=CC(=C1)OC)O,2-tert-butyl-4-methoxyphenol,429.15,pubchem,1
817,CC1=C(C=C(C=C1)[N+](=O)[O-])[N+](=O)[O-],"1-methyl-2,4-dinitrobenzene",480.15,pubchem,1
818,CCOC1=C(C=CC(=C1)C=O)O,3-ethoxy-4-hydroxybenzaldehyde,418.15,pubchem,1
819,CCN(CC)CC,"N,N-diethylethanamine",266.15,pubchem,1
820,COP(OC)OC,trimethyl phosphite,301.15,pubchem,1
821,C1C2C=CC1C=C2,"bicyclo[2.2.1]hepta-2,5-diene",252.15,pubchem,1
822,C1=CC(=CC(=C1)Cl)[N+](=O)[O-],1-chloro-3-nitrobenzene,400.15,pubchem,1
823,C1=CC(=C(C=C1[N+](=O)[O-])Cl)N,2-chloro-4-nitroaniline,478.15,pubchem,1
824,COC(=O)C1=CC=CC=C1C(=O)OC,"dimethyl benzene-1,2-dicarboxylate",419.15,pubchem,1
825,C=CCOC(=O)C1=CC=CC=C1C(=O)OCC=C,"bis(prop-2-enyl) benzene-1,2-dicarboxylate",383.15,pubchem,1
826,CCCCCOC(=O)C1=CC=CC=C1C(=O)OCCCCC,"dipentyl benzene-1,2-dicarboxylate",454.15,pubchem,1
827,COC(=O)C1=CC=CC=C1N,methyl 2-aminobenzoate,377.15,pubchem,1
828,C1=CC=C2C(=C1)C=CC=C2N,naphthalen-1-amine,430.15,pubchem,1
829,CCC1=CC=CC=C1CC,"1,2-diethylbenzene",330.15,pubchem,1
830,C1=CC=C2C=C(C=CC2=C1)O,naphthalen-2-ol,426.15,pubchem,1
831,CCC(C)C1=CC=CC=C1,butan-2-ylbenzene,325.15,pubchem,1
832,CCCOC(=O)C1=CN=C(C=C1)C(=O)OCCC,"dipropyl pyridine-2,5-dicarboxylate",366.15,pubchem,1
833,CCCCC(CC)C(=O)O,2-ethylhexanoic acid,400.15,pubchem,1
834,CCCCOC(=O)C1=CC=CC=C1,butyl benzoate,380.15,pubchem,1
835,COC(=O)C(=C)C#N,methyl 2-cyanoprop-2-enoate,352.15,pubchem,1
836,CN(C)C(=S)[S-].CN(C)C(=S)[S-].[Zn+2],"zinc;N,N-dimethylcarbamodithioate",366.15,pubchem,1
837,CCC(C)CO,2-methylbutan-1-ol,323.15,pubchem,1
838,CCCCCCCCCC1=CC(=C(C=C1)O)CCCCCCCCC,"2,4-di(nonyl)phenol",400.15,pubchem,1
839,CCCCOC(=O)C(C)O,butyl 2-hydroxypropanoate,344.15,pubchem,1
840,CCN(CCO)CCO,2-[ethyl(2-hydroxyethyl)amino]ethanol,371.15,pubchem,1
841,C(CN(CC(=O)[O-])CC(=O)[O-])N(CCO)CC(=O)[O-].[Na+].[Na+].[Na+],trisodium;2-[2-[bis(carboxylatomethyl)amino]ethyl-(2-hydroxyethyl)amino]acetate,373.15,pubchem,1
842,C(CCl)OP(OCCCl)OCCCl,tris(2-chloroethyl) phosphite,411.15,pubchem,1
843,CC(=O)OCC1=CC=CC=C1,benzyl acetate,364.15,pubchem,1
844,C1=CC=C(C=C1)CC#N,2-phenylacetonitrile,375.15,pubchem,1
845,C1CN(CCN1)CCN,2-piperazin-1-ylethanamine,366.15,pubchem,1
846,CC(=O)NC1=CC=C(C=C1)C(=O)CCl,N-[4-(2-chloroacetyl)phenyl]acetamide,383.15,pubchem,1
847,COC1=CC=C(C=C1)CC=C,1-methoxy-4-prop-2-enylbenzene,354.15,pubchem,1
848,CC1=NC=C(C=C1)C=C,5-ethenyl-2-methylpyridine,347.15,pubchem,1
849,CCOC(=O)C=C,ethyl prop-2-enoate,282.15,pubchem,1
850,CCCCOC(=O)CCC(=O)OCCCC,dibutyl butanedioate,408.15,pubchem,1
851,CC(=CCCC(=CC=O)C)C,"3,7-dimethylocta-2,6-dienal",375.15,pubchem,1
852,CCCCOC(=O)C=C,butyl prop-2-enoate,322.15,pubchem,1
853,CCC[Si](Cl)(Cl)Cl,trichloro(propyl)silane,310.15,pubchem,1
854,CC(C)(C)CC(C)(C)S,"2,4,4-trimethylpentane-2-thiol",319.15,pubchem,1
855,CCCC(=O)Cl,butanoyl chloride,295.15,pubchem,1
856,CCOC(=O)C,ethyl acetate,269.15,pubchem,1
857,CC(=CC(=O)C)C,4-methylpent-3-en-2-one,296.15,pubchem,1
858,CCOC(=O)CC(=O)C,ethyl 3-oxobutanoate,330.15,pubchem,1
859,C1=CC=C(C=C1)N.Cl,aniline;hydrochloride,466.15,pubchem,1
860,CCCCCCOC(=O)C(=C)C,hexyl 2-methylprop-2-enoate,355.15,pubchem,1
861,CC(=O)NCCO,N-(2-hydroxyethyl)acetamide,450.15,pubchem,1
862,C(CCl)CCl,"1,3-dichloropropane",294.15,pubchem,1
863,C1CC=CC1,cyclopentene,239.15,pubchem,1
864,CCCCCC(=O)O,hexanoic acid,377.15,pubchem,1
865,C1CCOCC1,oxane,253.15,pubchem,1
866,CCCCCCC,heptane,269.15,pubchem,1
867,CCCNCCC,N-propylpropan-1-amine,290.15,pubchem,1
868,CCCCCCOC(=O)C,hexyl acetate,310.15,pubchem,1
869,CCCCOCCCC,1-butoxybutane,298.15,pubchem,1
870,CCCCCCCCCO,nonan-1-ol,347.15,pubchem,1
871,CCCCCCCCCCS,decane-1-thiol,371.15,pubchem,1
872,CCCCCCNCCCCCC,N-hexylhexan-1-amine,368.15,pubchem,1
873,CCCCOCCOCCOCCO,2-[2-(2-butoxyethoxy)ethoxy]ethanol,416.15,pubchem,1
874,CCCCCCCCCCCCCCCCN,hexadecan-1-amine,414.15,pubchem,1
875,CC(C)C(C(C)(C)CO)O,"2,2,4-trimethylpentane-1,3-diol",386.15,pubchem,1
876,CC1=CC(NC2=CC=CC=C12)(C)C,"2,2,4-trimethyl-1H-quinoline",374.15,pubchem,1
877,C[Si](C1=CC=CC=C1)(Cl)Cl,dichloro-methyl-phenylsilane,301.15,pubchem,1
878,CCCCSP(SCCCC)SCCCC,tris(butylsulfanyl)phosphane,419.15,pubchem,1
879,COC1=CC=C(C=C1)O,4-methoxyphenol,405.15,pubchem,1
880,COC1=CC=C(C=C1)OC,"1,4-dimethoxybenzene",361.15,pubchem,1
881,C1CN1,aziridine,262.15,pubchem,1
882,CCOC1=CC=C(C=C1)N,4-ethoxyaniline,389.15,pubchem,1
883,C(CN)CO,3-aminopropan-1-ol,352.15,pubchem,1
884,C1=CC=C2C(=C1)C3=CC=CC4=C3C2=CC=C4,fluoranthene,471.15,pubchem,1
885,C1=CC2=C3C(=C1)C=CC3=CC=C2,acenaphthylene,395.15,pubchem,1
886,C1=CC=C2C(=C1)C=CO2,1-benzofuran,329.15,pubchem,1
887,C1CCC2C(C1)O2,7-oxabicyclo[4.1.0]heptane,354.15,pubchem,1
888,C1=NC=NN1,"1H-1,2,4-triazole",443.15,pubchem,1
889,C1CCCCCC1,cycloheptane,279.15,pubchem,1
890,CCCCC(CC)COP(=O)(O)OCC(CC)CCCC,bis(2-ethylhexyl) hydrogen phosphate,469.15,pubchem,1
891,CC(CC1=CC=CC=C1)NC.Cl,N-methyl-1-phenylpropan-2-amine;hydrochloride,282.15,pubchem,1
892,CCCCC(CC)COP(OCC(CC)CCCC)OCC(CC)CCCC,tris(2-ethylhexyl) phosphite,444.15,pubchem,1
893,NN,hydrazine,325.15,pubchem,1
894,C1=CC(=C(C=C1C(F)(F)F)Cl)Cl,"1,2-dichloro-4-(trifluoromethyl)benzene",338.15,pubchem,1
895,COS(=O)(=O)C(F)(F)F,methyl trifluoromethanesulfonate,311.15,pubchem,1
896,C1=CC=C(C(=C1)N)F,2-fluoroaniline,333.15,pubchem,1
897,CC1=CC=C(C=C1)F,1-fluoro-4-methylbenzene,314.15,pubchem,1
898,CC1=CC(=CC=C1)F,1-fluoro-3-methylbenzene,282.15,pubchem,1
899,CCSCC,ethylsulfanylethane,263.15,pubchem,1
900,C1=CC(=C(C=C1F)F)N,"2,4-difluoroaniline",336.15,pubchem,1
901,C1=CC(=CC=C1N)F,4-fluoroaniline,347.15,pubchem,1
902,C(CF)O,2-fluoroethanol,304.15,pubchem,1
903,C1=CC=C(C(=C1)C(F)(F)F)[N+](=O)[O-],1-nitro-2-(trifluoromethyl)benzene,369.15,pubchem,1
904,C1=CC=C(C(=C1)C(=O)Cl)F,2-fluorobenzoyl chloride,355.15,pubchem,1
905,CC(=CCCC(=O)C)C,6-methylhept-5-en-2-one,330.15,pubchem,1
906,C(#N)N,cyanamide,414.15,pubchem,1
907,C1=CC(=CC=C1F)Br,1-bromo-4-fluorobenzene,333.15,pubchem,1
908,C1=CC=C(C=C1)F,fluorobenzene,258.15,pubchem,1
909,C1=CC(=CN=C1)N,pyridin-3-amine,463.15,pubchem,1
910,CCCCCON=O,pentyl nitrite,283.15,pubchem,1
911,CC(C(C)(C)C)O,"3,3-dimethylbutan-2-ol",351.15,pubchem,1
912,CC1(C2CCC1(C(C2)O)C)C,"(1S,2R,4R)-1,7,7-trimethylbicyclo[2.2.1]heptan-2-ol",339.15,pubchem,1
913,C#CC(=O)O,prop-2-ynoic acid,331.15,pubchem,1
914,CC1CCC2CC1C2(C)C,"2,6,6-trimethylbicyclo[3.1.1]heptane",313.15,pubchem,1
915,CCC=CCC1=C(CCC1=O)C,3-methyl-2-pent-2-enylcyclopent-2-en-1-one,380.15,pubchem,1
916,C1C=CC(=O)O1,"InChI=1S/C4H4O2/c5-4-2-1-3-6-4/h1-2H,3H2",374.15,pubchem,1
917,CC1=C(C=C(C=C1)C(C)C)O,2-methyl-5-propan-2-ylphenol,373.15,pubchem,1
918,C1=CC=C(C=C1)COC(=O)Cl,benzyl carbonochloridate,381.15,pubchem,1
919,C1CCC(=O)OCC1,oxepan-2-one,400.15,pubchem,1
920,CCCCC(=O)CCCC,nonan-5-one,333.15,pubchem,1
921,C1C(O1)CF,2-(fluoromethyl)oxirane,277.15,pubchem,1
922,CC#CC,but-2-yne,253.15,pubchem,1
923,C1COC1,oxetane,245.15,pubchem,1
924,CC(C)CC(=O)O,3-methylbutanoic acid,343.15,pubchem,1
925,CC(=CC(=O)C=C(C)C)C,"2,6-dimethylhepta-2,5-dien-4-one",358.15,pubchem,1
926,C1=CC=NC(=C1)N,pyridin-2-amine,365.15,pubchem,1
927,C(CO)CO,"propane-1,3-diol",447.15,pubchem,1
928,C1COCOC1,"1,3-dioxane",275.15,pubchem,1
929,C(CCl)SCCCl,1-chloro-2-(2-chloroethylsulfanyl)ethane,378.15,pubchem,1
930,CC(=O)Br,acetyl bromide,348.15,pubchem,1
931,CC(C)(C)Br,2-bromo-2-methylpropane,257.15,pubchem,1
932,CC1(C2CCC1(C(C2)O)C)C,"(1R,2S,4S)-1,7,7-trimethylbicyclo[2.2.1]heptan-2-ol",339.15,pubchem,1