,smiles,compound,flashpoint,source,pure substance
4144,C=CC(=O)OC,Methyl acrylate,270.15,hazardous materials,1
4145,CO,Methyl alcohol,285.15,hazardous materials,1
4146,CCCCC(C)O,Methyl amyl alcohol,314.15,hazardous materials,1
4147,CCCCNC,N-Methylbutylamine,286.15,hazardous materials,1
4148,CCCCC(C)=O,Methyl butyl ketone,308.15,hazardous materials,1
4149,CCCC(=O)OC,Methyl butyrate,287.15,hazardous materials,1
4150,COC(=O)Cl,Methyl chloroformate,285.15,hazardous materials,1
4151,CC1CCCCC1,Methyl cyclohexane,269.15,hazardous materials,1
4152,CC1CCCCC1=O,2-Methyl cyclohexanone,321.15,hazardous materials,1
4153,CC1CC=CCC1,4-Methyl cyclohexene,272.15,hazardous materials,1
4154,COC,Methyl ether,232.15,hazardous materials,1
4155,CCOC,Methyl ethyl ether,236.15,hazardous materials,1
4156,CCC(C)=O,Methyl ethyl ketone,266.15,hazardous materials,1
4157,COC=O,Methyl formate,254.15,hazardous materials,1
4158,Cc1ccco1,2-Methyl furan,243.15,hazardous materials,1
4159,CC(=O)CC(C)C,Methyl isobutyl ketone,296.15,hazardous materials,1
4160,COC(=O)C(C)C,Methyl isobutyrate,286.15,hazardous materials,1
4161,C=C(C)C(=O)OC,Methyl methacrylate,283.15,hazardous materials,1
4162,CCCC(C)=O,Methyl-n-Propyl ketone,280.15,hazardous materials,1
4163,COC(=O)c1ccccc1O,Methyl salicylate,374.15,hazardous materials,1
4164,C=COC,Methyl vinyl ether,222.15,hazardous materials,1
4165,CN,Monomethylamine,263.15,hazardous materials,1
4166,C1COCCN1,Morpholine,311.15,hazardous materials,1
4167,c1ccc2ccccc2c1,Naphthalene,352.15,hazardous materials,1
4168,Oc1ccc2ccccc2c1,2-Naphthol,426.15,hazardous materials,1
4169,Nc1cccc2ccccc12,1-Naphthylamine,430.15,hazardous materials,1
4170,Nc1ccccc1[N+](=O)[O-],o-Nitroaniline,441.15,hazardous materials,1
4171,Nc1ccc([N+](=O)[O-])cc1,p-Nitroaniline,472.15,hazardous materials,1
4172,O=[N+]([O-])c1ccccc1,Nitrobenzene,361.15,hazardous materials,1
4173,O=[N+]([O-])c1ccccc1-c1ccccc1,o-Nitrobiphenyl,416.15,hazardous materials,1
4174,CC[N+](=O)[O-],Nitroethane,311.15,hazardous materials,1
4175,C[N+](=O)[O-],Nitromethane,308.15,hazardous materials,1
4176,O=[N+]([O-])c1cccc2ccccc12,alpha-Nitronaphthalene,437.15,hazardous materials,1
4177,CCC[N+](=O)[O-],1-Nitropropane,322.15,hazardous materials,1
4178,CC(C)[N+](=O)[O-],2-Nitropropane,312.15,hazardous materials,1
4179,Cc1cccc([N+](=O)[O-])c1,m-Nitrotoluene,379.15,hazardous materials,1
4180,Cc1ccccc1[N+](=O)[O-],o-Nitrotoluene,379.15,hazardous materials,1
4181,Cc1ccc([N+](=O)[O-])cc1,p-Nitrotoluene,379.15,hazardous materials,1
4182,CCCCCCCCCc1ccccc1O,Nonyl phenol,414.15,hazardous materials,1
4183,CCCCCCCC,Octane,286.15,hazardous materials,1
4184,CCCCCCCC(=O)O,Octanoic acid,405.15,hazardous materials,1
4185,CCCCCCCCO,1-Octanol,354.15,hazardous materials,1
4186,CCCCCCC(C)O,2-Octanol,361.15,hazardous materials,1
4187,CCCCCCCC/C=C\CCCCCCCC(=O)O,Oleic acid,462.15,hazardous materials,1
4188,CCCCC,n-Pentane,224.15,hazardous materials,1
4189,CCC(C)C,iso-Pentane,222.15,hazardous materials,1
4190,OCCCCCO,"1,5-Pentanediol ",408.15,hazardous materials,1
4191,CC(=O)CC(C)=O,"2,4-Pentanedione ",314.15,hazardous materials,1
4192,CCCC(C)O,2-Pentanol,312.15,hazardous materials,1
4193,Oc1ccccc1,Phenol,352.15,hazardous materials,1
4194,CC(=O)Oc1ccccc1,Phenyl acetate,353.15,hazardous materials,1
4195,Nc1ccc(N)cc1,p-Phenylenediamine,429.15,hazardous materials,1
4196,NCC(O)c1ccccc1,Phenylethanolamine,425.15,hazardous materials,1
4197,c1ccc(Oc2ccccc2)cc1,Phenyl ether,369.15,hazardous materials,1
4198,NNc1ccccc1,Phenylhydrazine,362.15,hazardous materials,1
4199,Oc1ccccc1-c1ccccc1,o-Phenyl phenol,397.15,hazardous materials,1
4200,CC(C)=CC(=O)C=C(C)C,Phorone,358.15,hazardous materials,1
4201,O=C1OC(=O)c2ccccc21,Phthalic anhydride,424.15,hazardous materials,1
4202,Cc1ccccn1,2-Picoline,312.15,hazardous materials,1
4203,Cc1ccncc1,4-Picoline,330.15,hazardous materials,1
4204,O=[N+]([O-])c1cc([N+](=O)[O-])c(O)c([N+](=O)[O-])c1,Picric acid,423.15,hazardous materials,1
4205,CC1=CCC2CC1C2(C)C,2-Pinene,306.15,hazardous materials,1
4206,C1CCNCC1,Piperidine,289.15,hazardous materials,1
4207,C=CC=CC,Piperylene,230.15,hazardous materials,1
4208,NCCCN,"1,3-Propanediamine ",297.15,hazardous materials,1
4209,CC(O)CO,"1,2-Propanediol ",372.15,hazardous materials,1
4210,C#CCO,Propargyl alcohol,309.15,hazardous materials,1
4211,C#CCBr,Propargyl bromide,283.15,hazardous materials,1
4212,C=C(C)OC(C)=O,iso-Propenyl acetate,289.15,hazardous materials,1
4213,CCC=O,Propionaldehyde,264.15,hazardous materials,1
4214,CCC(=O)O,Propionic acid,327.15,hazardous materials,1
4215,CCC#N,Propionitrile,275.15,hazardous materials,1
4216,CCC(=O)Cl,Propionyl chloride,285.15,hazardous materials,1
4217,CC(=O)OC(C)C,iso-Propyl acetate,277.15,hazardous materials,1
4218,CCCOC(C)=O,n-Propyl acetate,287.15,hazardous materials,1
4219,CCCO,n-Propyl alcohol,288.15,hazardous materials,1
4220,CC(C)O,iso-Propyl alcohol,285.15,hazardous materials,1
4221,CCCN,Propylamine,236.15,hazardous materials,1
4222,CC(C)N,iso-Propylamine,236.15,hazardous materials,1
4223,CCCc1ccccc1,Propyl benzene,303.15,hazardous materials,1
4224,CC(C)OC(=O)c1ccccc1,iso-Propyl benzoate,372.15,hazardous materials,1
4225,C=CC,Propylene,165.14999999999995,hazardous materials,1
4226,CC1COC(=O)O1,Propylene carbonate,408.15,hazardous materials,1
4227,CC(C)OC(C)C,iso-Propyl ether,245.15,hazardous materials,1
4228,CCCOC=O,n-Propyl formate,270.15,hazardous materials,1
4229,CC(C)OC=O,iso-Propyl formate,267.15,hazardous materials,1
4230,CCCO[N+](=O)[O-],Propyl nitrate,293.15,hazardous materials,1
4231,c1ccncc1,Pyridine,293.15,hazardous materials,1
4232,C1CCNC1,Pyrrolidine,276.15,hazardous materials,1
4233,CC(=O)C(=O)O,Pyruvic acid,276.15,hazardous materials,1
4234,Oc1cccc(O)c1,Resorcinol,400.15,hazardous materials,1
4235,O=Cc1ccccc1O,Salicylaldehyde,351.15,hazardous materials,1
4236,O=C(O)c1ccccc1O,Salicylic acid,430.15,hazardous materials,1
4237,CCCCCCCCCCCCCCCCCC(=O)O,Stearic acid,469.15,hazardous materials,1
4238,C=Cc1ccccc1,Styrene,304.15,hazardous materials,1
4239,N#CCCC#N,Succinonitrile,405.15,hazardous materials,1
4240,[S],Sulphur,480.15,hazardous materials,1
4241,[S]Cl,Sulphur monochloride,391.15,hazardous materials,1
4242,c1ccc(-c2cccc(-c3ccccc3)c2)cc1,m-Terphenyl,408.15,hazardous materials,1
4243,c1ccc(-c2ccccc2-c2ccccc2)cc1,o-Terphenyl,436.15,hazardous materials,1
4244,Clc1cc(Cl)c(Cl)cc1Cl,"1,2,4,5-Tetrachlorobenzene ",428.15,hazardous materials,1
4245,CCCCCCCCCCCCCC,Tetradecane,373.15,hazardous materials,1
4246,NCCNCCNCCNCCN,Tetraethylenepentamine,436.15,hazardous materials,1
4247,CC[Pb](CC)(CC)CC,Tetraethyl lead,366.15,hazardous materials,1
4248,C1CCOC1,Tetrahydrofuran,259.15,hazardous materials,1
4249,c1ccc2c(c1)CCCC2,Tetrahydronaphthalene,344.15,hazardous materials,1
4250,OCCSCCO,"2,2'-Thiodiethanol ",433.15,hazardous materials,1
4251,c1ccsc1,Thiophene,272.15,hazardous materials,1
4252,Cc1ccccc1,Toluene,277.54999999999995,hazardous materials,1
4253,Cc1cccc(N)c1,m-Toluidine,359.15,hazardous materials,1
4254,Cc1ccccc1N,o-Toluidine,358.15,hazardous materials,1
4255,Cc1ccc(N)cc1,p-Toluidine,360.15,hazardous materials,1
4256,CCCCCN(CCCCC)CCCCC,Triamylamine,375.15,hazardous materials,1
4257,CCCCN(CCCC)CCCC,Tri-n-butyl amine,359.15,hazardous materials,1
4258,CCCCOP(=O)(OCCCC)OCCCC,Tributyl phosphate,419.15,hazardous materials,1
4259,Clc1ccc(Cl)c(Cl)c1,"1,2,4-Trichlorobenzene ",372.15,hazardous materials,1
4260,ClCC(Cl)CCl,"1,2,3-Trichloropropane ",355.15,hazardous materials,1
4261,CCCCCCCCCCCCCO,Tridecanol,394.15,hazardous materials,1
4262,OCCN(CCO)CCO,Triethanolamine,452.15,hazardous materials,1
4263,OCCOCCOCCO,Triethylene glycol,450.15,hazardous materials,1
4264,NCCNCCNCCN,Triethylene-tetramine,408.15,hazardous materials,1
4265,CN(C)C,Trimethyl amine,266.15,hazardous materials,1
4266,CC(C)CC(C)(C)C,"2,2,4-Trimethyl pentane ",261.15,hazardous materials,1
4267,CC(C)=CC(C)(C)C,"2,4,4-Trimethyl-2-pentene ",275.15,hazardous materials,1
4268,C1OCOCO1,"1,3,5-Trioxane ",318.15,hazardous materials,1
4269,O=P(Oc1ccccc1)(Oc1ccccc1)Oc1ccccc1,Triphenyl phosphate,493.15,hazardous materials,1
4270,c1ccc(P(c2ccccc2)c2ccccc2)cc1,Triphenyl phosphine,453.15,hazardous materials,1
4271,CCCN(CCC)CCC,Tripropylamine,314.15,hazardous materials,1
4272,Cc1ccccc1OP(=O)(Oc1ccccc1C)Oc1ccccc1C,Tritolyl phosphate,498.15,hazardous materials,1
4273,CCCCC=O,Valeraldehyde,285.15,hazardous materials,1
4274,CCCCC(=O)O,Valeric acid,369.15,hazardous materials,1
4275,C=COC(C)=O,Vinyl acetate,265.15,hazardous materials,1
4276,C=CCl,Vinyl chloride,195.15,hazardous materials,1
4277,C=C(Cl)Cl,Vinylidene chloride,258.15,hazardous materials,1
4278,Cc1cccc(C)c1,m-Xylene,302.15,hazardous materials,1
4279,Cc1ccccc1C,o-Xylene,305.15,hazardous materials,1
4280,Cc1ccc(C)cc1,p-Xylene,300.15,hazardous materials,1
4281,Cc1cccc(N)c1C,Xylidine,370.15,hazardous materials,1