,smiles,compound,flashpoint,source,pure substance
1465,CC1=NC2=NC(=NN2C=C1)S(=O)(=O)NC3=C(C=CC=C3F)F,"N-(2,6-difluorophenyl)-5-methyl-[1,2,4]triazolo[1,5-a]pyrimidine-2-sulfonamide",366.15,pubchem,1
1466,C1C(O1)C2CO2,(2R)-2-[(2R)-oxiran-2-yl]oxirane,319.15,pubchem,1
1467,CCOC(=O)C1CC(=O)C(=C(C2CC2)O)C(=O)C1,"ethyl 4-[cyclopropyl(hydroxy)methylidene]-3,5-dioxocyclohexane-1-carboxylate",406.15,pubchem,1
1468,CC(COC(C)(C)C)O,1-[(2-methylpropan-2-yl)oxy]propan-2-ol,317.15,pubchem,1
1469,CCCCCCCCCCCCOCC,1-ethoxydodecane,516.15,pubchem,1
1470,C1C=CCC2C1C(=O)OC2=O,"(3aS,7aR)-3a,4,7,7a-tetrahydro-2-benzofuran-1,3-dione",430.15,pubchem,1
1471,CC(=CCC1CCCC1=O)C,2-(3-methylbut-2-enyl)cyclopentan-1-one,296.15,pubchem,1
1472,CCC(=O)[O-],propanoate,325.15,pubchem,1
1473,CCCC(=O)[O-],butanoate,345.15,pubchem,1
1474,CC(C)CCOCC(=O)OCC=C,prop-2-enyl 2-(3-methylbutoxy)acetate,341.15,pubchem,1
1475,CC1CNCC(O1)C,"2,6-dimethylmorpholine",317.15,pubchem,1
1476,CC1CCC(CC1)CO,(4-methylcyclohexyl)methanol,385.15,pubchem,1
1477,C(CP(CCC(=O)O)CCC(=O)O)C(=O)O,3-[bis(2-carboxyethyl)phosphanyl]propanoic acid,475.15,pubchem,1
1478,C(CO)C=CO,"but-1-ene-1,4-diol",401.15,pubchem,1
1479,CCCCCCCCCCCCCC(=O)OC1C(C2(C(C=C(CC3(C2C=C(C3=O)C)O)CO)C4C1(C4(C)C)OC(=O)C)O)C,"[(1S,2S,6S,10S,11R,13S,14R,15R)-13-acetyloxy-1,6-dihydroxy-8-(hydroxymethyl)-4,12,12,15-tetramethyl-5-oxo-14-tetracyclo[8.5.0.02,6.011,13]pentadeca-3,8-dienyl] tetradecanoate",310.15,pubchem,1
1480,CC1=CC(=O)C(C(=O)O1)C(=O)C,"3-acetyl-6-methylpyran-2,4-dione",342.15,pubchem,1
1481,CC(=CC1C(C1(C)C)C(=O)OCN2C(=O)CN(C2=O)CC#C)C,"(2,5-dioxo-3-prop-2-ynylimidazolidin-1-yl)methyl 2,2-dimethyl-3-(2-methylprop-1-enyl)cyclopropane-1-carboxylate",383.15,pubchem,1
1482,[Si](Cl)(Cl)Cl,InChI=1S/Cl3Si/c1-4(2)3,259.15,pubchem,1
1483,CC(C)(C)C1=CC=CC=C1OP(=O)(OC2=CC=CC=C2)OC3=CC=CC=C3,(2-tert-butylphenyl) diphenyl phosphate,497.15,pubchem,1
1484,CC1(C2CCC1(C(=O)C2)C)C,"(1R,4R)-1,7,7-trimethylbicyclo[2.2.1]heptan-2-one",320.15,pubchem,1
1485,CC1CCC(C(C1)O)C(C)C,"(1S,2R,5S)-5-methyl-2-propan-2-ylcyclohexan-1-ol",364.15,pubchem,1
1486,CC(C)CCCCCOC(=O)C=C,6-methylheptyl prop-2-enoate,364.15,pubchem,1
1487,CC1=NC2=C(C1(C)C)C3=CC=CC=C3C=C2,"1,1,2-trimethylbenzo[e]indole",455.15,pubchem,1
1488,CCCCCCCCCCCCC1=CC=CC=C1O,2-dodecylphenol,436.15,pubchem,1
1489,CCOCC(C)OC(=O)C,1-ethoxypropan-2-yl acetate,326.15,pubchem,1
1490,C(C=CCO)O,"(E)-but-2-ene-1,4-diol",401.15,pubchem,1
1491,CC1C(SC(=O)N1C(=O)NC2CCCCC2)C3=CC=C(C=C3)Cl,"(4R,5R)-5-(4-chlorophenyl)-N-cyclohexyl-4-methyl-2-oxo-1,3-thiazolidine-3-carboxamide",373.15,pubchem,1
1492,CCCCOC(=O)C(C)OC1=CC=C(C=C1)OC2=C(C=C(C=C2)C#N)F,butyl (2R)-2-[4-(4-cyano-2-fluorophenoxy)phenoxy]propanoate,395.15,pubchem,1
1493,CC(C)OC(C)C(Cl)Cl,"1,1-dichloro-2-propan-2-yloxypropane",358.15,pubchem,1
1494,CC12CC=CCC1C(=O)OC2=O,"7a-methyl-4,7-dihydro-3aH-2-benzofuran-1,3-dione",623.15,pubchem,1
1495,C(CCC(=O)[O-])CC(=O)[O-],hexanedioate,658.15,pubchem,1
1496,C1CCC(C(C1)CN2CCN(CC2)C3=NSC4=CC=CC=C43)CN5C(=O)C6C7CCC(C7)C6C5=O,"(1S,2R,6S,7R)-4-[[(1R,2R)-2-[[4-(1,2-benzothiazol-3-yl)piperazin-1-yl]methyl]cyclohexyl]methyl]-4-azatricyclo[5.2.1.02,6]decane-3,5-dione",282.15,pubchem,1
1497,CC1(C2CCC1(C(C2)OC(=O)CSC#N)C)C,"[(1S,2S,4R)-1,7,7-trimethyl-2-bicyclo[2.2.1]heptanyl] 2-thiocyanatoacetate",355.15,pubchem,1
1498,CC1=CC(=C(C=C1)NC(=O)CC(=O)C)C,"N-(2,4-dimethylphenyl)-3-oxobutanamide",444.15,pubchem,1
1499,CC12CCC(CC1O2)C3(CO3)C,1-methyl-4-(2-methyloxiran-2-yl)-7-oxabicyclo[4.1.0]heptane,391.15,pubchem,1
1500,CCCCCC(=O)CC,octan-3-one,319.15,pubchem,1
1501,CC(=O)OC1CC2CCC1(C2(C)C)C,"[(1S,2S,4R)-1,7,7-trimethyl-2-bicyclo[2.2.1]heptanyl] acetate",361.15,pubchem,1
1502,CC=CC1=CC=CC=C1,[(E)-prop-1-enyl]benzene,325.15,pubchem,1
1503,C1=CC=C(C=C1)NCl,N-chloroaniline,381.15,pubchem,1
1504,C1CCC=CC=CC1,"(1Z,3Z)-cycloocta-1,3-diene",308.15,pubchem,1
1505,CCCCCCCCCCCCCCCCCC(=O)O.O.Cl[Cr]Cl.Cl[Cr]Cl,dichlorochromium;octadecanoic acid;hydrate,275.15,pubchem,1
1506,CC1CCC(C(C1)O)C(C)C,"(1S,2S,5R)-5-methyl-2-propan-2-ylcyclohexan-1-ol",364.15,pubchem,1
1507,CC1(C2CCC1(C(C2)O)C)C,"(2S)-1,7,7-trimethylbicyclo[2.2.1]heptan-2-ol",339.15,pubchem,1
1508,CC1=CCC(CC1)C(=C)C,(4R)-1-methyl-4-prop-1-en-2-ylcyclohexene,321.15,pubchem,1
1509,CC1(C2CCC(=C)C1C2)C,"(1S,5S)-6,6-dimethyl-2-methylidenebicyclo[3.1.1]heptane",304.15,pubchem,1
1510,CC1=CCC2CC1C2(C)C,"(1S,5S)-2,6,6-trimethylbicyclo[3.1.1]hept-2-ene",306.15,pubchem,1
1511,CC(=O)OC1CC2CCC1(C2(C)C)C,"[(2R)-1,7,7-trimethyl-2-bicyclo[2.2.1]heptanyl] acetate",361.15,pubchem,1
1512,CC(=O)OC1CC2CCC1(C2(C)C)C,"[(2S)-1,7,7-trimethyl-2-bicyclo[2.2.1]heptanyl] acetate",361.15,pubchem,1
1513,CC1(C2CCC1(C(=O)C2)C)C,"(1S,4S)-1,7,7-trimethylbicyclo[2.2.1]heptan-2-one",339.15,pubchem,1
1514,C(=CC(=O)O)C(=O)O,(E)-but-2-enedioic acid,546.15,pubchem,1
1515,CCCCCCCCC=CCCCCCCCC(=O)O,(Z)-octadec-9-enoic acid,462.15,pubchem,1
1516,CC=CC=O,(E)-but-2-enal,286.15,pubchem,1
1517,CCC(=C(CC)C1=CC=C(C=C1)O)C2=CC=C(C=C2)O,4-[(E)-4-(4-hydroxyphenyl)hex-3-en-3-yl]phenol,377.15,pubchem,1
1518,B(F)(F)F.CCOCC,ethoxyethane;trifluoroborane,337.15,pubchem,1
1519,CC(C)CCCCCOC(=O)COC1=CC(=C(C=C1Cl)Cl)Cl,"6-methylheptyl 2-(2,4,5-trichlorophenoxy)acetate",342.15,pubchem,1
1520,CC1=CC=CC=C1OP(=O)(OC2=CC=CC=C2)OC3=CC=CC=C3,(2-methylphenyl) diphenyl phosphate,505.15,pubchem,1
1522,CCCCC(Cl)Cl,"1,1-dichloropentane",314.15,pubchem,1
1523,C(C(=O)O)(Cl)Br,2-bromo-2-chloroacetic acid,383.15,pubchem,1
1524,CC(C)CCCCCOC(=O)C(C)OC1=CC(=C(C=C1Cl)Cl)Cl,"6-methylheptyl 2-(2,4,5-trichlorophenoxy)propanoate",480.15,pubchem,1
1525,CC=CC(=O)O,(E)-but-2-enoic acid,361.15,pubchem,1
1526,C1=CC=C(C=C1)C=CC=O,(E)-3-phenylprop-2-enal,344.15,pubchem,1
1527,CC(=O)OC1CC2CCC1(C2(C)C)C,"[(1R,2R,4R)-1,7,7-trimethyl-2-bicyclo[2.2.1]heptanyl] acetate",361.15,pubchem,1
1528,CC=CC1=CC=C(C=C1)OC,1-methoxy-4-[(E)-prop-1-enyl]benzene,364.15,pubchem,1
1529,CC(=CCCC(=CCO)C)C,"(2E)-3,7-dimethylocta-2,6-dien-1-ol",381.15,pubchem,1
1530,CC(=CCCl)Cl,"(Z)-1,3-dichlorobut-2-ene",300.15,pubchem,1
1531,CC(=CCCC(=CC=O)C)C,"(2E)-3,7-dimethylocta-2,6-dienal",375.15,pubchem,1
1532,C1CC=CCCC=CCCC=C1,"(1E,5E,9E)-cyclododeca-1,5,9-triene",344.15,pubchem,1
1533,CCOC(=O)C=CC(=O)OCC,diethyl (E)-but-2-enedioate,377.15,pubchem,1
1534,C(=CCl)Cl,"(E)-1,2-dichloroethene",277.15,pubchem,1
1535,C(C=CCCl)Cl,"(E)-1,4-dichlorobut-2-ene",326.15,pubchem,1
1536,CC=CC=CC(=O)O,"(2E,4E)-hexa-2,4-dienoic acid",400.15,pubchem,1
1537,CC(=CCCC(=CC=O)C)C,"(2Z)-3,7-dimethylocta-2,6-dienal",375.15,pubchem,1
1538,C(C=CCO)O,"(Z)-but-2-ene-1,4-diol",401.15,pubchem,1
1539,CC=CC(=O)O,(Z)-but-2-enoic acid,361.15,pubchem,1
1540,CC(=CCCC(=CCO)C)C,"(2Z)-3,7-dimethylocta-2,6-dien-1-ol",380.15,pubchem,1
1541,C(=CCl)Cl,"(Z)-1,2-dichloroethene",277.15,pubchem,1
1542,CC(=CCCl)Cl,"(E)-1,3-dichlorobut-2-ene",300.15,pubchem,1
1543,CC1(C2CCC1(C(C2)O)C)C,"(1R,4R)-1,7,7-trimethylbicyclo[2.2.1]heptan-2-ol",339.15,pubchem,1
1544,C1=CC=C2C(=C1)NC(=S)S2,"3H-1,3-benzothiazole-2-thione",473.15,pubchem,1
1545,CC=CC1=CC(=C(C=C1)O)OC,2-methoxy-4-[(E)-prop-1-enyl]phenol,386.15,pubchem,1
1546,CC1(C2CCC1(C(C2)O)C)C,"(1S,2R,4S)-1,7,7-trimethylbicyclo[2.2.1]heptan-2-ol",339.15,pubchem,1
1547,CC1CC(=O)C=C2C1(CC(CC2)C(=C)C)C,"(4R,4aS,6R)-4,4a-dimethyl-6-prop-1-en-2-yl-3,4,5,6,7,8-hexahydronaphthalen-2-one",373.15,pubchem,1
1548,CC(C)C=CCCCCC(=O)NCC1=CC(=C(C=C1)O)OC,(E)-N-[(4-hydroxy-3-methoxyphenyl)methyl]-8-methylnon-6-enamide,386.15,pubchem,1
1549,CCC=CCC1=C(CCC1=O)C,3-methyl-2-[(Z)-pent-2-enyl]cyclopent-2-en-1-one,380.15,pubchem,1
1550,CCC=CCC1=C(CCC1=O)C,3-methyl-2-[(E)-pent-2-enyl]cyclopent-2-en-1-one,380.15,pubchem,1
1551,CC=CC=CC(=O)O,"(2Z,4E)-hexa-2,4-dienoic acid",400.15,pubchem,1
1552,CC=CC=CC(=O)[O-],"(2E,4E)-hexa-2,4-dienoate",400.15,pubchem,1
1553,CC1=CC=C(C=C1)S(=O)(=O)NC(CCCN=C(N)N)C(=O)OC,methyl (2S)-5-(diaminomethylideneamino)-2-[(4-methylphenyl)sulfonylamino]pentanoate,262.15,pubchem,1
1554,CC1CCC(C(C1)O)C(C)C,"(1S,2S,5S)-5-methyl-2-propan-2-ylcyclohexan-1-ol",364.15,pubchem,1
1555,C1CNC(=S)N1,imidazolidine-2-thione,525.15,pubchem,1
1556,C(=O)C(=C(C(=O)O)Cl)Cl,"(E)-2,3-dichloro-4-oxobut-2-enoic acid",373.15,pubchem,1
1557,C(CP(CCC(=O)O)CCC(=O)O)C(=O)O.Cl,3-[bis(2-carboxyethyl)phosphanyl]propanoic acid;hydrochloride,475.15,pubchem,1
1558,C(=O)C(=C(C(=O)O)Cl)Cl,"(Z)-2,3-dichloro-4-oxobut-2-enoic acid",373.15,pubchem,1
1559,CC12CCCCC1C(=O)OC2=O,"7a-methyl-4,5,6,7-tetrahydro-3aH-2-benzofuran-1,3-dione",623.15,pubchem,1
1560,C(CNC(=S)[S-])NC(=S)[S-].[Mn+2],manganese(2+);N-[2-(sulfidocarbothioylamino)ethyl]carbamodithioate,411.15,pubchem,1
1561,C1=CC=C2C(=C1)C=CC(=C2N=C=O)N=C=O,"1,2-diisocyanatonaphthalene",465.15,pubchem,1
1562,CCCCCCCCCCCCCCCCCC(=O)[O-].[OH-].[Cl-].[Cl-].[Cl-].[Cl-].[Cr+3].[Cr+3],chromium(3+);octadecanoate;tetrachloride;hydroxide,275.15,pubchem,1
1563,C(CNC(=S)[S-])NC(=S)[S-].C(CNC(=S)[S-])NC(=S)[S-].[Mn+2].[Zn+2],zinc;manganese(2+);N-[2-(sulfidocarbothioylamino)ethyl]carbamodithioate,411.15,pubchem,1
1564,CCC(OCCCOC)OC(=O)C,1-(3-methoxypropoxy)propyl acetate,359.15,pubchem,1
1565,CC1(C2CCC1(C(C2)OC(=O)CSC#N)C)C,"[(1S,2S,4S)-1,7,7-trimethyl-2-bicyclo[2.2.1]heptanyl] 2-thiocyanatoacetate",355.15,pubchem,1
1566,CC1=CC=C(C=C1)S(=O)(=O)[N-]Cl.[Na+],sodium;chloro-(4-methylphenyl)sulfonylazanide,465.15,pubchem,1
1567,CCC(C)(OO)OOC(C)(CC)OO,2-hydroperoxy-2-(2-hydroperoxybutan-2-ylperoxy)butane,355.15,pubchem,1
1568,CCCCCCCCCCCCCCCCCC(=[OH+])O.O.Cl[Cr]Cl.Cl[Cr]Cl,dichlorochromium;1-hydroxyoctadecylideneoxidanium;hydrate,275.15,pubchem,1
1569,CC1C(SC(=O)N1C(=O)NC2CCCCC2)C3=CC=C(C=C3)Cl,"5-(4-chlorophenyl)-N-cyclohexyl-4-methyl-2-oxo-1,3-thiazolidine-3-carboxamide",373.15,pubchem,1
1570,C1=CC(=C(C=C1[Si](Cl)(Cl)Cl)Cl)Cl,"trichloro-(3,4-dichlorophenyl)silane",414.15,pubchem,1
1571,COC(=O)[O-],methyl carbonate,291.15,pubchem,1
1572,C1=C(C=C(C(=C1[N+](=O)[O-])O)N)[N+](=O)[O-],"2-amino-4,6-dinitrophenol",483.15,pubchem,1
1573,C(C(=O)[O-])S,2-sulfanylacetate,403.15,pubchem,1
1574,C1=CC=C(C=C1)C=CCO,(Z)-3-phenylprop-2-en-1-ol,399.15,pubchem,1
1575,C1=CC=C(C=C1)C=CCOC2C(C(C(C(O2)CO)O)O)O,"(2R,3S,4S,5R,6R)-2-(hydroxymethyl)-6-[(E)-3-phenylprop-2-enoxy]oxane-3,4,5-triol",460.15,pubchem,1
1576,CCC=CCCO,(Z)-hex-3-en-1-ol,403.15,pubchem,1
1577,CC1=CCCC(=C)C2CC(C2CC1)(C)C,"(1R,4E,9S)-4,11,11-trimethyl-8-methylidenebicyclo[7.2.0]undec-4-ene",374.15,pubchem,1
1578,CC1=CCCC(=C)C2CC(C2CC1)(C)C,"(1R,4Z,9S)-4,11,11-trimethyl-8-methylidenebicyclo[7.2.0]undec-4-ene",374.15,pubchem,1
1579,CC1=C(C=CC=C1COC(=O)C2C(C2(C)C)C=C(C(F)(F)F)Cl)C3=CC=CC=C3,"(2-methyl-3-phenylphenyl)methyl 3-[(Z)-2-chloro-3,3,3-trifluoroprop-1-enyl]-2,2-dimethylcyclopropane-1-carboxylate",438.15,pubchem,1
1580,CC1=CCCC(C1C=CC(=O)C)(C)C,"(E)-4-(2,6,6-trimethylcyclohex-2-en-1-yl)but-3-en-2-one",391.15,pubchem,1
1581,CN1CCC23C4C1CC5=C2C(=C(C=C5)OC)OC3C(C=C4)O,"(4R,4aR,7S,7aR,12bS)-9-methoxy-3-methyl-2,4,4a,7,7a,13-hexahydro-1H-4,12-methanobenzofuro[3,2-e]isoquinolin-7-ol",348.15,pubchem,1
1582,CC(C)N(C(C)C)C(=O)SCC(=CCl)Cl,"S-[(Z)-2,3-dichloroprop-2-enyl] N,N-di(propan-2-yl)carbamothioate",369.15,pubchem,1
1583,C=C1C(C2(C(C(C1(C2(Cl)Cl)Cl)Cl)Cl)Cl)(CCl)CCl,"1,4,5,6,7,7-hexachloro-2,2-bis(chloromethyl)-3-methylidenebicyclo[2.2.1]heptane",302.15,pubchem,1
1584,C(CNC(=S)[S-])NC(=S)[S-].[Zn+2],zinc;N-[2-(sulfidocarbothioylamino)ethyl]carbamodithioate,363.15,pubchem,1
1585,CN1CCC23C4C1CC5=C2C(=C(C=C5)OC)OC3C(=O)CC4,"(4R,4aR,7aR,12bS)-9-methoxy-3-methyl-1,2,4,4a,5,6,7a,13-octahydro-4,12-methanobenzofuro[3,2-e]isoquinolin-7-one",282.15,pubchem,1
1586,CC=CC,(Z)-but-2-ene,262.15,pubchem,1
1587,C1=CC=C(C=C1)C=CBr,[(E)-2-bromoethenyl]benzene,352.15,pubchem,1
1588,C1=CC=C(C=C1)C=CCO,(E)-3-phenylprop-2-en-1-ol,399.15,pubchem,1
1589,CC1=CCCC(=C)C2CC(C2CC1)(C)C,"(4Z)-4,11,11-trimethyl-8-methylidenebicyclo[7.2.0]undec-4-ene",374.15,pubchem,1
1590,CCC(=NO)C,(NE)-N-butan-2-ylidenehydroxylamine,332.15,pubchem,1
1591,CCC(=NO)C,(NZ)-N-butan-2-ylidenehydroxylamine,332.15,pubchem,1
1592,CCCC=NO,(NZ)-N-butylidenehydroxylamine,331.15,pubchem,1
1593,CCCC=NO,(NE)-N-butylidenehydroxylamine,331.15,pubchem,1
1594,CC=CCC#N,(E)-pent-3-enenitrile,311.15,pubchem,1
1595,CN(C)C(=O)N=NC(=O)N(C)C,"(3E)-3-(dimethylcarbamoylimino)-1,1-dimethylurea",313.15,pubchem,1
1596,CCCC=C(CC)C=O,(E)-2-ethylhex-2-enal,341.15,pubchem,1
1597,CCCCCCCCC=CCCCCCCCC(=O)OCCCC,butyl (Z)-octadec-9-enoate,453.15,pubchem,1
1598,CC1=CCCC(=C)C2CC(C2CC1)(C)C,"(4E)-4,11,11-trimethyl-8-methylidenebicyclo[7.2.0]undec-4-ene",374.15,pubchem,1
1599,CC(=CC1=CC=CC=C1)C=O,(Z)-2-methyl-3-phenylprop-2-enal,352.15,pubchem,1
1600,CC(=CC(=O)OC)OP(=O)(OC)OC,methyl (E)-3-dimethoxyphosphoryloxybut-2-enoate,352.15,pubchem,1
1601,C1CC=CCCC=CCCC=C1,"(1Z,5E,9Z)-cyclododeca-1,5,9-triene",344.15,pubchem,1
1602,[Tl],thallium,489.15,pubchem,1
1603,[S],sulfur,480.15,pubchem,1
1604,CCCCCCCCCC=CCC1CC(=O)OC1=O,"3-[(E)-dodec-2-enyl]oxolane-2,5-dione",451.15,pubchem,1
1605,CC(=O)OCN=[N+](C)[O-],(Z)-acetyloxymethylimino-methyl-oxidoazanium,372.15,pubchem,1
1606,CCC=CC#N,(E)-pent-2-enenitrile,296.15,pubchem,1
1607,C1CC=CCCC=CCCC=C1,"(1Z,5Z,9Z)-cyclododeca-1,5,9-triene",344.15,pubchem,1
1608,CCCCCCC=CC,(E)-non-2-ene,299.15,pubchem,1
1609,CCCCC(CC)COC(=O)C=CC(=O)OCC(CC)CCCC,bis(2-ethylhexyl) (Z)-but-2-enedioate,458.15,pubchem,1
1610,CC=C1CC2CC1C=C2,(5E)-5-ethylidenebicyclo[2.2.1]hept-2-ene,299.15,pubchem,1
1611,CC=CCC=C,"(4E)-hexa-1,4-diene",252.15,pubchem,1
1612,CC(C)OC(=O)C=C(C)C=CCC(C)CCCC(C)(C)OC,"propan-2-yl (2E,4E)-11-methoxy-3,7,11-trimethyldodeca-2,4-dienoate",460.15,pubchem,1
1613,C(C(=CCl)Cl)Cl,"(Z)-1,2,3-trichloroprop-1-ene",358.15,pubchem,1
1614,CC(=CC1=CC=CC=C1)C=O,(E)-2-methyl-3-phenylprop-2-enal,352.15,pubchem,1
1615,[Mg],magnesium,773.15,pubchem,1
1616,C(=O)(N)N=NC(=O)N,(E)-carbamoyliminourea,369.15,pubchem,1
1617,CC=C1CC2CC1C=C2,(5Z)-5-ethylidenebicyclo[2.2.1]hept-2-ene,299.15,pubchem,1
1618,CC(C)(C)C1=CC=CC=C1OP(=O)([O-])OC2=CC=CC=C2,(2-tert-butylphenyl) phenyl phosphate,519.15,pubchem,1
1619,CC(=O)OCN=[N+](C)[O-],(E)-acetyloxymethylimino-methyl-oxidoazanium,372.15,pubchem,1
1620,C(CO)C=CO,"(E)-but-1-ene-1,4-diol",401.15,pubchem,1
1621,C1CC=CCCC=CCCC=C1,"(1Z,5E,9E)-cyclododeca-1,5,9-triene",344.15,pubchem,1
1622,CC(C)N(C(C)C)C(=O)SCC(=CCl)Cl,"S-[(E)-2,3-dichloroprop-2-enyl] N,N-di(propan-2-yl)carbamothioate",369.15,pubchem,1
1623,CO[P+](=O)OC,dimethoxy(oxo)phosphanium,302.15,pubchem,1
1624,C[Si](C)Cl,InChI=1S/C2H6ClSi/c1-4(2)3/h1-2H3,264.15,pubchem,1
1625,[Si](Cl)Cl,InChI=1S/Cl2Si/c1-3-2,245.15,pubchem,1
1626,CC[Si](Cl)Cl,"InChI=1S/C2H5Cl2Si/c1-2-5(3)4/h2H2,1H3",272.15,pubchem,1
1627,CCCCO[P+](=O)OCCCC,dibutoxy(oxo)phosphanium,322.15,pubchem,1
1628,C[Si](Cl)Cl,InChI=1S/CH3Cl2Si/c1-4(2)3/h1H3,247.15,pubchem,1
1629,C1=CC=C(C=C1)[Sn](C2=CC=CC=C2)C3=CC=CC=C3.O,triphenyltin;hydrate,673.15,pubchem,1
1630,CCO[Si](OCC)OCC,"InChI=1S/C6H15O3Si/c1-4-7-10(8-5-2)9-6-3/h4-6H2,1-3H3",300.15,pubchem,1
1631,[B][B][B][B][B][B][B][B][B][B],λ1-boranyl-[[[[[[(λ1-boranyl-λ2-boranyl)-λ2-boranyl]-λ2-boranyl]-λ2-boranyl]-λ2-boranyl]-λ2-boranyl]-λ2-boranyl]boron,353.15,pubchem,1
1632,B#B,boranylidyneborane,183.15,pubchem,1
1633,C[Si]Cl,InChI=1S/CH3ClSi/c1-3-2/h1H3,264.15,pubchem,1
1634,[NH3+]S[NH3+],azaniumylsulfanylazanium,345.15,pubchem,1
1635,CC1=CCCC(=C)C2CC(C2CC1)(C)C,"(1R,4E,9R)-4,11,11-trimethyl-8-methylidenebicyclo[7.2.0]undec-4-ene",374.15,pubchem,1
1636,CC1(C2CCC1(C(C2)OC(=O)CSC#N)C)C,"[(2S)-1,7,7-trimethyl-2-bicyclo[2.2.1]heptanyl] 2-thiocyanatoacetate",355.15,pubchem,1
1637,C(C=CCCl)Cl,"(Z)-1,4-dichlorobut-2-ene",326.15,pubchem,1
1638,C1=CC=C(C=C1)C=C([N+](=O)[O-])Br,[(E)-2-bromo-2-nitroethenyl]benzene,327.15,pubchem,1
1639,CCC=C.CC=CC,but-1-ene;(E)-but-2-ene,375.15,pubchem,1
1640,CC1=CN(C(=O)NC1=O)C=CC=O,"(E)-3-(5-methyl-2,4-dioxopyrimidin-1-yl)prop-2-enal",480.15,pubchem,1
1641,CC1=C(C=CC=C1COC(=O)C2C(C2(C)C)C=C(C(F)(F)F)Cl)C3=CC=CC=C3,"(2-methyl-3-phenylphenyl)methyl (1R,3R)-3-[(Z)-2-chloro-3,3,3-trifluoroprop-1-enyl]-2,2-dimethylcyclopropane-1-carboxylate",438.15,pubchem,1
1642,C1=CC=C(C=C1)C=C([N+](=O)[O-])Br,[(Z)-2-bromo-2-nitroethenyl]benzene,327.15,pubchem,1
1643,CC1(C2CCC1(C(C2)O)C)C,"(1R,2S,4R)-1,7,7-trimethylbicyclo[2.2.1]heptan-2-ol",339.15,pubchem,1
1644,CC1CCC(C(C1)O)C(C)C,"(1R,2R,5S)-5-methyl-2-propan-2-ylcyclohexan-1-ol",364.15,pubchem,1
1645,CC1=CC=C(C=C1)C.CC1=CC(=CC=C1)C.CC1=CC=CC=C1C,"1,2-xylene;1,3-xylene;1,4-xylene",298.15,pubchem,1
1646,CC(=O)OC1CC2CCC1(C2(C)C)C,"[(1S,2S,4S)-1,7,7-trimethyl-2-bicyclo[2.2.1]heptanyl] acetate",361.15,pubchem,1
1647,CCC(CC)(C(=O)[O-])C(=O)[O-],"2,2-diethylpropanedioate",358.15,pubchem,1
1648,CC(C)(C1=CC=C(C=C1)OCC2CO2)C3=CC=C(C=C3)OCC4CO4,(2S)-2-[[4-[2-[4-[[(2S)-oxiran-2-yl]methoxy]phenyl]propan-2-yl]phenoxy]methyl]oxirane,352.15,pubchem,1
1649,CC1CC(=O)C=C2C1(CC(CC2)C(=C)C)C,"(4S,4aR,6S)-4,4a-dimethyl-6-prop-1-en-2-yl-3,4,5,6,7,8-hexahydronaphthalen-2-one",373.15,pubchem,1
1650,CC1(C2CCC1(C(=O)C2)C)C,"(1R)-1,7,7-trimethylbicyclo[2.2.1]heptan-2-one",337.15,pubchem,1
1651,CC(C)(C=NO)SC,(NE)-N-(2-methyl-2-methylsulfanylpropylidene)hydroxylamine,391.15,pubchem,1
1652,CC1=NN(C(=C1C=NOCC2=CC=C(C=C2)C(=O)OC(C)(C)C)OC3=CC=CC=C3)C,"tert-butyl 4-[[(E)-(1,3-dimethyl-5-phenoxypyrazol-4-yl)methylideneamino]oxymethyl]benzoate",358.15,pubchem,1
1653,CC1(C(C1C(=O)OC(C#N)C2=CC(=CC=C2)OC3=CC=CC=C3)C(C(Br)(Br)Br)Br)C,"[cyano-(3-phenoxyphenyl)methyl] 2,2-dimethyl-3-(1,2,2,2-tetrabromoethyl)cyclopropane-1-carboxylate",299.15,pubchem,1
1654,CC1CCC2(CC3CC(O2)CC=C(CC(C=CC=C4COC5C4(C(C=C(C5O)C)C(=O)O3)O)C)C)OC1C,"(1R,4S,5'S,6R,6'R,8R,10E,13R,14E,16E,20R,21R,24S)-21,24-dihydroxy-5',6',11,13,22-pentamethylspiro[3,7,19-trioxatetracyclo[15.6.1.14,8.020,24]pentacosa-10,14,16,22-tetraene-6,2'-oxane]-2-one",316.15,pubchem,1
1655,CC1=C(C(=O)CC1OC(=O)C2C(C2(C)C)C=C(C)C)CC#C,"(2-methyl-4-oxo-3-prop-2-ynylcyclopent-2-en-1-yl) 2,2-dimethyl-3-(2-methylprop-1-enyl)cyclopropane-1-carboxylate",412.15,pubchem,1
1656,CC1(C2CCC(=C)C1C2)C,"(1R,5R)-6,6-dimethyl-2-methylidenebicyclo[3.1.1]heptane",304.15,pubchem,1
1657,CC(C)C(C1=CC=C(C=C1)Cl)C(=O)OC(C#N)C2=CC(=CC=C2)OC3=CC=CC=C3,[(S)-cyano-(3-phenoxyphenyl)methyl] (2S)-2-(4-chlorophenyl)-3-methylbutanoate,529.15,pubchem,1
1658,CC=C1CC2CC1C=C2,"(1R,4R,5Z)-5-ethylidenebicyclo[2.2.1]hept-2-ene",299.15,pubchem,1
1659,CC1=C(C=CC=C1COC(=O)C2C(C2(C)C)C=C(C(F)(F)F)Cl)C3=CC=CC=C3,"(2-methyl-3-phenylphenyl)methyl (1S,3S)-3-[(Z)-2-chloro-3,3,3-trifluoroprop-1-enyl]-2,2-dimethylcyclopropane-1-carboxylate",438.15,pubchem,1
1660,CCCC=C(CC)C=O,(Z)-2-ethylhex-2-enal,341.15,pubchem,1
1661,CC(C)CCCCCCOC(=O)C1CCCCC1C(=O)OCCCCCCC(C)C,"bis(7-methyloctyl) cyclohexane-1,2-dicarboxylate",497.15,pubchem,1
1662,CC(CC1=CC=CC=C1)NC(=O)C(CCCCN)N,"(2S)-2,6-diamino-N-[(2S)-1-phenylpropan-2-yl]hexanamide",260.15,pubchem,1
1663,CC(=O)OCCCCCCBr,6-bromohexyl acetate,294.15,pubchem,1
1664,C1C2C(C(C1Cl)Cl)C3(C(=C(C2(C3(Cl)Cl)Cl)Cl)Cl)Cl,"(1R,7S)-1,3,4,7,8,9,10,10-octachlorotricyclo[5.2.1.02,6]dec-8-ene",380.15,pubchem,1
1665,CC(=CCCC(=CCCC(=CCCC=C(C)CCC=C(C)CCC=C(C)C)C)C)C,"(6Z,10E,14E,18E)-2,6,10,15,19,23-hexamethyltetracosa-2,6,10,14,18,22-hexaene",383.15,pubchem,1
1666,CC1(C2CCC1(C(C2)O)C)C,"(1R,4S)-1,7,7-trimethylbicyclo[2.2.1]heptan-2-ol",339.15,pubchem,1
1667,C1C2C(C(C1Cl)Cl)C3(C(=C(C2(C3(Cl)Cl)Cl)Cl)Cl)Cl,"(1S,2R,3R,4S,6R,7R)-1,3,4,7,8,9,10,10-octachlorotricyclo[5.2.1.02,6]dec-8-ene",380.15,pubchem,1
1668,C1C2C3C(C1C4C2O4)C5(C(=C(C3(C5(Cl)Cl)Cl)Cl)Cl)Cl,"(1R,2R,3R,6S,7S,8S,9S,11R)-3,4,5,6,13,13-hexachloro-10-oxapentacyclo[6.3.1.13,6.02,7.09,11]tridec-4-ene",300.15,pubchem,1
1669,C1C2C3C(C1C4C2O4)C5(C(=C(C3(C5(Cl)Cl)Cl)Cl)Cl)Cl,"(1R,2S,3S,6R,7R,8S,9R,11S)-3,4,5,6,13,13-hexachloro-10-oxapentacyclo[6.3.1.13,6.02,7.09,11]tridec-4-ene",300.15,pubchem,1
1670,CC=C1CC2CC1C=C2,"(1R,4R,5E)-5-ethylidenebicyclo[2.2.1]hept-2-ene",299.15,pubchem,1
1671,C1C=CC=C1.C1C=CC=C1.[Ni],"cyclopenta-1,3-diene;nickel",277.15,pubchem,1
1672,CC(=O)C=C=O,"but-1-ene-1,3-dione",306.15,pubchem,1
1673,CCOP(=O)([O-])[O-],ethyl phosphate,389.15,pubchem,1
1674,CC1C(SC(=O)N1C(=O)NC2CCCCC2)C3=CC=C(C=C3)Cl,"(4S,5S)-5-(4-chlorophenyl)-N-cyclohexyl-4-methyl-2-oxo-1,3-thiazolidine-3-carboxamide",373.15,pubchem,1