,smiles,compound,flashpoint,source,pure substance
1675,CC1(C2CCC1(C(C2)OC(=O)CSC#N)C)C,"[(1R,2R,4R)-1,7,7-trimethyl-2-bicyclo[2.2.1]heptanyl] 2-thiocyanatoacetate",355.15,pubchem,1
1676,C(CNC(=S)[S-])NC(=S)[S-].C(CNC(=S)[S-])NC(=S)[S-].[Mn+2].[Zn+2],zinc;manganese(2+);N-[2-(sulfidocarbothioylamino)ethyl]carbamodithioate,411.15,pubchem,1
1677,[CH-]1C=CC=C1.[CH-]1C=CC=C1.[Ni+2],"cyclopenta-1,3-diene;nickel(2+)",277.15,pubchem,1
1678,CCCCCCC(CC=CCCCCCCCC(=O)OCC(COC(=O)CCCCCCCC=CCC(CCCCCC)O)OC(=O)CCCCCCCC=CCC(CCCCCC)O)O,"2,3-bis[[(Z)-12-hydroxyoctadec-9-enoyl]oxy]propyl (Z)-12-hydroxyoctadec-9-enoate",502.15,pubchem,1
1679,CCCCC(CC)COP(=O)([O-])OCC(CC)CCCC,bis(2-ethylhexyl) phosphate,469.15,pubchem,1
1680,C1C=CC2C1C3CC2C=C3,"(2S,6R)-tricyclo[5.2.1.02,6]deca-3,8-diene",305.15,pubchem,1
1681,C1C=CC2C1C3CC2C=C3,"(1R,7S)-tricyclo[5.2.1.02,6]deca-3,8-diene",305.15,pubchem,1
1682,CCOP(=S)(C1=CC=CC=C1)OC2=CC=C(C=C2)[N+](=O)[O-],ethoxy-(4-nitrophenoxy)-phenyl-sulfanylidene-λ5-phosphane,303.15,pubchem,1
1683,C1=C(C=C(C(=C1O)O)O)C(=O)OC2=CC(=CC(=C2O)O)C(=O)OCC3C(C(C(C(O3)OC(=O)C4=CC(=C(C(=C4)OC(=O)C5=CC(=C(C(=C5)O)O)O)O)O)OC(=O)C6=CC(=C(C(=C6)OC(=O)C7=CC(=C(C(=C7)O)O)O)O)O)OC(=O)C8=CC(=C(C(=C8)OC(=O)C9=CC(=C(C(=C9)O)O)O)O)O)OC(=O)C1=CC(=C(C(=C1)OC(=O)C1=CC(=C(C(=C1)O)O)O)O)O,"[2,3-dihydroxy-5-[[(2R,3R,4S,5R,6S)-3,4,5,6-tetrakis[[3,4-dihydroxy-5-(3,4,5-trihydroxybenzoyl)oxybenzoyl]oxy]oxan-2-yl]methoxycarbonyl]phenyl] 3,4,5-trihydroxybenzoate",472.15,pubchem,1
1684,C1=C(C=C(C(=C1O)O)O)C(=O)OC2=CC(=CC(=C2O)O)C(=O)OCC3C(C(C(C(O3)OC(=O)C4=CC(=C(C(=C4)OC(=O)C5=CC(=C(C(=C5)O)O)O)O)O)OC(=O)C6=CC(=C(C(=C6)OC(=O)C7=CC(=C(C(=C7)O)O)O)O)O)OC(=O)C8=CC(=C(C(=C8)OC(=O)C9=CC(=C(C(=C9)O)O)O)O)O)OC(=O)C1=CC(=C(C(=C1)OC(=O)C1=CC(=C(C(=C1)O)O)O)O)O,"[2,3-dihydroxy-5-[[3,4,5,6-tetrakis[[3,4-dihydroxy-5-(3,4,5-trihydroxybenzoyl)oxybenzoyl]oxy]oxan-2-yl]methoxycarbonyl]phenyl] 3,4,5-trihydroxybenzoate",472.15,pubchem,1
1685,C1=C(C=C(C(=C1O)O)O)C(=O)OC2=CC(=CC(=C2O)O)C(=O)OCC3C(C(C(C(O3)OC(=O)C4=CC(=C(C(=C4)OC(=O)C5=CC(=C(C(=C5)O)O)O)O)O)OC(=O)C6=CC(=C(C(=C6)OC(=O)C7=CC(=C(C(=C7)O)O)O)O)O)OC(=O)C8=CC(=C(C(=C8)OC(=O)C9=CC(=C(C(=C9)O)O)O)O)O)OC(=O)C1=CC(=C(C(=C1)OC(=O)C1=CC(=C(C(=C1)O)O)O)O)O,"[2,3-dihydroxy-5-[[(2R,3R,4S,5R)-3,4,5,6-tetrakis[[3,4-dihydroxy-5-(3,4,5-trihydroxybenzoyl)oxybenzoyl]oxy]oxan-2-yl]methoxycarbonyl]phenyl] 3,4,5-trihydroxybenzoate",472.15,pubchem,1
1686,C1=C(C=C(C(=C1O)O)O)C(=O)OC2=CC(=CC(=C2O)O)C(=O)OCC3C(C(C(C(O3)OC(=O)C4=CC(=C(C(=C4)OC(=O)C5=CC(=C(C(=C5)O)O)O)O)O)OC(=O)C6=CC(=C(C(=C6)OC(=O)C7=CC(=C(C(=C7)O)O)O)O)O)OC(=O)C8=CC(=C(C(=C8)OC(=O)C9=CC(=C(C(=C9)O)O)O)O)O)OC(=O)C1=CC(=C(C(=C1)OC(=O)C1=CC(=C(C(=C1)O)O)O)O)O,"[2,3-dihydroxy-5-[[(2S,3S,4R,5S,6R)-3,4,5,6-tetrakis[[3,4-dihydroxy-5-(3,4,5-trihydroxybenzoyl)oxybenzoyl]oxy]oxan-2-yl]methoxycarbonyl]phenyl] 3,4,5-trihydroxybenzoate",472.15,pubchem,1
1687,C1=C(C=C(C(=C1O)O)O)C(=O)OC2=CC(=CC(=C2O)O)C(=O)OCC3C(C(C(C(O3)OC(=O)C4=CC(=C(C(=C4)OC(=O)C5=CC(=C(C(=C5)O)O)O)O)O)OC(=O)C6=CC(=C(C(=C6)OC(=O)C7=CC(=C(C(=C7)O)O)O)O)O)OC(=O)C8=CC(=C(C(=C8)OC(=O)C9=CC(=C(C(=C9)O)O)O)O)O)OC(=O)C1=CC(=C(C(=C1)OC(=O)C1=CC(=C(C(=C1)O)O)O)O)O,"[2,3-dihydroxy-5-[[(2R,3R,4S,5R,6R)-3,4,5,6-tetrakis[[3,4-dihydroxy-5-(3,4,5-trihydroxybenzoyl)oxybenzoyl]oxy]oxan-2-yl]methoxycarbonyl]phenyl] 3,4,5-trihydroxybenzoate",472.15,pubchem,1
1688,C=O.C1=CC=C(C=C1)N=C=O,formaldehyde;isocyanatobenzene,491.15,pubchem,1
1689,CC1=CC=C(C=C1)C=C.CC1=CC=CC(=C1)C=C.CC1=CC=CC=C1C=C,1-ethenyl-2-methylbenzene;1-ethenyl-3-methylbenzene;1-ethenyl-4-methylbenzene,325.15,pubchem,1
1690,CC(=O)O[Hg]C1=CC=CC=C1,acetyloxy(phenyl)mercury,333.15,pubchem,1
1691,CCCCCCCCCCCC(=O)O[Sn](CCCC)(CCCC)OC(=O)CCCCCCCCCCC,[dibutyl(dodecanoyloxy)stannyl] dodecanoate,508.15,pubchem,1
1692,CCCC[Sn](CCCC)(OC(=O)C)OC(=O)C,[acetyloxy(dibutyl)stannyl] acetate,416.15,pubchem,1
1693,CC[Al](CC)CC,triethylalumane,220.15,pubchem,1
1694,CC(C)C[Al](CC(C)C)CC(C)C,tris(2-methylpropyl)alumane,250.15,pubchem,1
1695,CC(CCl)Cl.C(C=CCl)Cl,"1,2-dichloropropane;(E)-1,3-dichloroprop-1-ene",290.15,pubchem,1
1696,CCC1CCC(C1)CCC(=O)O,3-(3-ethylcyclopentyl)propanoic acid,374.15,pubchem,1
1697,COC(COCCOCCOCCO)O,2-[2-[2-(2-hydroxyethoxy)ethoxy]ethoxy]-1-methoxyethanol,434.15,pubchem,1
1698,COP([O-])OC,dimethyl phosphite,343.15,pubchem,1
1699,CC(COC(C)COC(=O)C)OC,2-(2-methoxypropoxy)propyl acetate,359.15,pubchem,1
1700,C1C=CC=[C-]1.C1C=CC=[C-]1.[Ni+2],"cyclopenta-1,3-diene;nickel(2+)",277.15,pubchem,1
1701,CCCC(C)CC(=O)[O-],3-methylhexanoate,305.15,pubchem,1
1702,CC(C)CCCCCOP(=S)(OCCCCCC(C)C)[S-].CC(C)CCCCCOP(=S)(OCCCCCC(C)C)[S-].[Zn+2],zinc;bis(6-methylheptoxy)-sulfanylidene-sulfido-λ5-phosphane,433.15,pubchem,1
1703,CCCCCCCCCCCCCCCCCC(=O)O.[Zn+2],zinc;octadecanoic acid,550.15,pubchem,1
1704,CCC(O)OCCCOC,1-(3-methoxypropoxy)propan-1-ol,347.15,pubchem,1
1705,C1CC=CC(C1)C2=CC=C(C=C2)C3CCC=CC3,1-cyclohex-2-en-1-yl-4-cyclohex-3-en-1-ylbenzene,430.15,pubchem,1
1706,CCCCCCCCCCCCCC(=O)OC1C(C2(C(C=C(CC3(C2C=C(C3=O)C)O)CO)C4C1(C4(C)C)OC(=O)C)O)C,"[(1S,6R,10S,11R,13S,14R)-13-acetyloxy-1,6-dihydroxy-8-(hydroxymethyl)-4,12,12,15-tetramethyl-5-oxo-14-tetracyclo[8.5.0.02,6.011,13]pentadeca-3,8-dienyl] tetradecanoate",310.15,pubchem,1
1707,CC1(C(C1C(=O)OC(C#N)C2=CC(=CC=C2)OC3=CC=CC=C3)C(C(Br)(Br)Br)Br)C,"[cyano-(3-phenoxyphenyl)methyl] (1R,3S)-2,2-dimethyl-3-[(1S)-1,2,2,2-tetrabromoethyl]cyclopropane-1-carboxylate",299.15,pubchem,1
1708,C1C[NH2+]1,aziridin-1-ium,262.15,pubchem,1
1710,CCCCCCCCC=CCCCCCCCC(=O)[O-].[K+],potassium;(Z)-octadec-9-enoate,333.15,pubchem,1
1711,CCCCCCCCC=CCCCCCCCC(=O)[O-].[K+],potassium;(E)-octadec-9-enoate,333.15,pubchem,1
1712,CC(C)C1=CC2=CCC3C(C2CC1)(CCCC3(C)C(=O)O)C,"(4aR)-1,4a-dimethyl-7-propan-2-yl-2,3,4,4b,5,6,10,10a-octahydrophenanthrene-1-carboxylic acid",460.15,pubchem,1
1713,C1C2C(C(C1Cl)Cl)C3(C(=C(C2(C3(Cl)Cl)Cl)Cl)Cl)Cl,"(1S,2S,3R,4R,6S)-1,3,4,7,8,9,10,10-octachlorotricyclo[5.2.1.02,6]dec-8-ene",380.15,pubchem,1
1714,C1C=CC=[C-]1.C1C=CC=[C-]1.[Ni+2],"cyclopenta-1,3-diene;nickel(2+)",277.15,pubchem,1
1715,CCCCC(CC)CN1C(=O)C2C3CC(C2C1=O)C=C3,"(1S,7R)-4-(2-ethylhexyl)-4-azatricyclo[5.2.1.02,6]dec-8-ene-3,5-dione",450.15,pubchem,1
1719,CC1=C(C=CC=C1COC(=O)C2C(C2(C)C)C=C(C(F)(F)F)Cl)C3=CC=CC=C3,"(2-methyl-3-phenylphenyl)methyl (1R,3S)-3-[(E)-2-chloro-3,3,3-trifluoroprop-1-enyl]-2,2-dimethylcyclopropane-1-carboxylate",438.15,pubchem,1
1720,CC(COC(=O)C=C)O,[(2R)-2-hydroxypropyl] prop-2-enoate,338.15,pubchem,1
1722,CCCCCCCCC=CCCCCCCCC(=O)[O-].[K+],potassium;octadec-9-enoate,333.15,pubchem,1
1725,CC1(C2CCC1(C(C2)O)C)C,"(2S,4R)-1,7,7-trimethylbicyclo[2.2.1]heptan-2-ol",339.15,pubchem,1
1726,CC1C(SC(=O)N1C(=O)NC2CCCCC2)C3=CC=C(C=C3)Cl,"(4R)-5-(4-chlorophenyl)-N-cyclohexyl-4-methyl-2-oxo-1,3-thiazolidine-3-carboxamide",373.15,pubchem,1
1727,C1C2C3C(C1C4C2O4)C5(C(=C(C3(C5(Cl)Cl)Cl)Cl)Cl)Cl,"(1S,2S,3S,6S,7R,8S)-3,4,5,6,13,13-hexachloro-10-oxapentacyclo[6.3.1.13,6.02,7.09,11]tridec-4-ene",300.15,pubchem,1
1728,CCC1CCC(C1)CCC(=O)O,"3-[(1S,3R)-3-ethylcyclopentyl]propanoic acid",374.15,pubchem,1
1730,CCO[Si]([O-])([O-])[O-],ethoxy(trioxido)silane,310.15,pubchem,1
1734,C1CC(CCC1CO)CO.C1CC(CCC1CO)CO,[4-(hydroxymethyl)cyclohexyl]methanol,439.15,pubchem,1
1735,CCCCCC1C(O1)CC2C(O2)CCCCCCCC(=O)OCC(COC(=O)CCCCCCCC3C(O3)CC4C(O4)CCCCC)OC(=O)CCCCCCCC5C(O5)CC6C(O6)CCCCC,"2,3-bis[8-[3-[(3-pentyloxiran-2-yl)methyl]oxiran-2-yl]octanoyloxy]propyl 8-[3-[(3-pentyloxiran-2-yl)methyl]oxiran-2-yl]octanoate",580.15,pubchem,1
1736,C1C2C3C(C1C4C2O4)C5(C(=C(C3(C5(Cl)Cl)Cl)Cl)Cl)Cl,"(1R,2R,3S,6S,7R,8R,9S,11R)-3,4,5,6,13,13-hexachloro-10-oxapentacyclo[6.3.1.13,6.02,7.09,11]tridec-4-ene",300.15,pubchem,1
1737,B([O-])([O-])OC,methoxy(dioxido)borane,266.15,pubchem,1
1738,CCC1CCC(CC1)CCC(=O)[O-].CCC1CCC(C1)CCC(=O)[O-].[Cu+2],copper;3-(4-ethylcyclohexyl)propanoate;3-(3-ethylcyclopentyl)propanoate,311.15,pubchem,1
1739,CC1=C(C=CC=C1COC(=O)C2C(C2(C)C)C=C(C(F)(F)F)Cl)C3=CC=CC=C3,"(2-methyl-3-phenylphenyl)methyl (3S)-3-[(Z)-2-chloro-3,3,3-trifluoroprop-1-enyl]-2,2-dimethylcyclopropane-1-carboxylate",438.15,pubchem,1
1740,CC(C)CCCCCCCOP(=S)(OCCCCCCCC(C)C)[S-].CC(C)CCCCCCCOP(=S)(OCCCCCCCC(C)C)[S-].[Zn+2],zinc;bis(8-methylnonoxy)-sulfanylidene-sulfido-λ5-phosphane,553.15,pubchem,1
1741,CC(C)C1=CC(=CC(=C1)OO)C(C)C,"1-hydroperoxy-3,5-di(propan-2-yl)benzene",352.15,pubchem,1
1742,CCS(=O)C1=NC(=CC(=N1)C(F)(F)F)C2=CC(=CC=C2)OCC#C,2-ethylsulfinyl-4-(3-prop-2-ynoxyphenyl)-6-(trifluoromethyl)pyrimidine,513.15,pubchem,1
1743,COP(=O)(OC)OC1=C(C2C1CC=C2)Cl,"[(1R,5S)-7-chloro-6-bicyclo[3.2.0]hepta-2,6-dienyl] dimethyl phosphate",438.15,pubchem,1
1744,CCCCC(CC)CC1=C(C(=C(C=C1C(=O)OOOC(=O)C2=CC(=C(C(=C2)O)O)O)O)O)O,"(3,4,5-trihydroxybenzoyl)oxy 2-(2-ethylhexyl)-3,4,5-trihydroxybenzenecarboperoxoate",505.15,pubchem,1
1745,CCCCC(CC)CN1C(=O)C2C3CC(C2C1=O)C=C3,"(1S,2R,6S,7R)-4-(2-ethylhexyl)-4-azatricyclo[5.2.1.02,6]dec-8-ene-3,5-dione",450.15,pubchem,1
1746,C1C2C3C(C1C4C2O4)C5(C(=C(C3(C5(Cl)Cl)Cl)Cl)Cl)Cl,"(1R,2R,6S,7S,8S,9S,11R)-3,4,5,6,13,13-hexachloro-10-oxapentacyclo[6.3.1.13,6.02,7.09,11]tridec-4-ene",300.15,pubchem,1
1747,CC=C1CC2CC1C=C2,"(1S,4R)-5-ethylidenebicyclo[2.2.1]hept-2-ene",299.15,pubchem,1
1748,C1=C(C=C(C(=C1O)O)O)C(=O)OC2=CC(=CC(=C2O)O)C(=O)OCC3C(C(C(C(O3)OC(=O)C4=CC(=C(C(=C4)OC(=O)C5=CC(=C(C(=C5)O)O)O)O)O)OC(=O)C6=CC(=C(C(=C6)OC(=O)C7=CC(=C(C(=C7)O)O)O)O)O)OC(=O)C8=CC(=C(C(=C8)OC(=O)C9=CC(=C(C(=C9)O)O)O)O)O)OC(=O)C1=CC(=C(C(=C1)OC(=O)C1=CC(=C(C(=C1)O)O)O)O)O,"[2,3-dihydroxy-5-[[(2R,3R,4R,5R,6S)-3,4,5,6-tetrakis[[3,4-dihydroxy-5-(3,4,5-trihydroxybenzoyl)oxybenzoyl]oxy]oxan-2-yl]methoxycarbonyl]phenyl] 3,4,5-trihydroxybenzoate",472.15,pubchem,1
1749,CC(=CCCC(=CCCC(=CCCC=C(C)CCC=C(C)CCC=C(C)C)C)C)C,"(10E,14E,18E)-2,6,10,15,19,23-hexamethyltetracosa-2,6,10,14,18,22-hexaene",383.15,pubchem,1
1750,C1C2C(C(C1Cl)Cl)C3(C(=C(C2(C3(Cl)Cl)Cl)Cl)Cl)Cl,"(1S,7S)-1,3,4,7,8,9,10,10-octachlorotricyclo[5.2.1.02,6]dec-8-ene",380.15,pubchem,1
1751,C1C2C3C(C1C4C2O4)C5(C(=C(C3(C5(Cl)Cl)Cl)Cl)Cl)Cl,"(1R,2R,3S,6R,7S,8R,9R,11S)-3,4,5,6,13,13-hexachloro-10-oxapentacyclo[6.3.1.13,6.02,7.09,11]tridec-4-ene",300.15,pubchem,1
1752,CCCCCCCCCCCCCC(=O)OC1C(C2(C(C=C(CC3(C2C=C(C3=O)C)O)CO)C4C1(C4(C)C)OC(=O)C)O)C,"[(1S,2S,6R,10S,11R,13S)-13-acetyloxy-1,6-dihydroxy-8-(hydroxymethyl)-4,12,12,15-tetramethyl-5-oxo-14-tetracyclo[8.5.0.02,6.011,13]pentadeca-3,8-dienyl] tetradecanoate",310.15,pubchem,1
1753,C1C(C(OC1N2C=NC3=C2N=CNC3=O)COP(=O)(O)OP(=O)(O)O)O,"[(2R,3S,5R)-3-hydroxy-5-(6-oxo-1H-purin-9-yl)oxolan-2-yl]methyl phosphono hydrogen phosphate",502.15,pubchem,1
1754,CCC(=NOCC=CCl)C1=C(CC(CC1=O)CC(C)SCC)O,2-[(E)-N-[(E)-3-chloroprop-2-enoxy]-C-ethylcarbonimidoyl]-5-(2-ethylsulfanylpropyl)-3-hydroxycyclohex-2-en-1-one,345.15,pubchem,1
1755,C1C(C(OC1N2C=NC3=C2N=CNC3=O)COP(=O)([O-])OP(=O)([O-])[O-])O,"[[(2R,3S,5R)-3-hydroxy-5-(6-oxo-1H-purin-9-yl)oxolan-2-yl]methoxy-oxidophosphoryl] phosphate",502.15,pubchem,1
1756,CCCCC,pentane,233.0,carroll11,1
1757,CCCCCC,hexane,247.0,carroll11,1
1758,CCCCCCC,heptane,269.0,carroll11,1
1759,CCCCCCCC,octane,286.0,carroll11,1
1760,CCCCCCCCC,nonane,304.0,carroll11,1
1761,CCCCCCCCCC,decane,319.0,carroll11,1
1762,CCCCCCCCCCC,undecane,333.0,carroll11,1
1763,CCCCCCCCCCCC,dodecane,344.0,carroll11,1
1764,CCCCCCCCCCCCC,tridecane,367.0,carroll11,1
1765,CCCCCCCCCCCCCC,tetradecane,373.0,carroll11,1
1766,CCCCCCCCCCCCCCC,pentadecane,388.0,carroll11,1
1767,CCCCCCCCCCCCCCCC,hexadecane,408.0,carroll11,1
1768,CCCCCCCCCCCCCCCCC,heptadecane,421.0,carroll11,1
1769,CC(C)CC,2-methylbutane,222.0,carroll11,1
1770,CC(C)CCC,2-methylpentane,241.0,carroll11,1
1771,CC(C)CCCCC,2-methylheptane,277.0,carroll11,1
1772,CC(C)CCCCCC,2-methyloctane,297.0,carroll11,1
1773,CC(C)CCCCCCC,2-methylnonane,311.0,carroll11,1
1774,CC(C)CCCCCCCC,2-methyldecane,323.0,carroll11,1
1775,CC(C)CCCCCCCCC,2-methylundecane,334.0,carroll11,1
1776,CC(C)CCCCCCCCCC,2-methyldodecane,344.0,carroll11,1
1777,C1CCCC1,cyclopentane,236.0,carroll11,1
1778,CC(C)(CC)C,"2,2-dimethylbutane",244.0,carroll11,1
1779,CC(C)C(C)C,"2,3-dimethylbutane",244.0,carroll11,1
1780,CC1CCCC1,methylcyclopentane,250.0,carroll11,1
1781,CC(C)(CCC)C,"2,2-dimethylpentane",250.0,carroll11,1
1782,CC(C)(C(C)C)C,"2,2,3-trimethylbutane",249.0,carroll11,1
1783,CC(C)CC(C)C,"2,4-dimethylpentane",261.0,carroll11,1
1784,C1CCCCC1,cyclohexane,255.0,carroll11,1
1785,CC(CC)(CC)C,"3,3-dimethylpentane",254.0,carroll11,1
1786,CC1(CCCC1)C,"1,1-dimethylcyclopentane",257.0,carroll11,1
1787,CC(C)C(CC)C,"2,3-dimethylpentane",258.0,carroll11,1
1788,CC(CC)CC,3-methylpentane,241.0,carroll11,1
1789,CC(CC)CCC,3-methylhexane,258.0,carroll11,1
1790,CC(CC)CCCC,3-methylheptane,279.0,carroll11,1
1791,CC(CC)CCCCC,3-methyloctane,297.0,carroll11,1
1792,CC(CC)CCCCCC,3-methylnonane,314.0,carroll11,1
1793,C(C)C(CC)CC,3-ethylpentane,261.0,carroll11,1
1794,CC(C)(CC(C)C)C,"2,2,4-trimethylpentane",266.0,carroll11,1
1795,C[C@H]1[C@H](CCC1)C,"cis-1,2-dimethylcyclopentane",269.0,carroll11,1
1796,CC1CCCCC1,methylcyclohexane,269.0,carroll11,1
1797,C(C)C1CCCC1,ethylcyclopentane,269.0,carroll11,1
1798,CC(C)(CCCC)C,"2,2-dimethylhexane",270.0,carroll11,1
1799,CC(C)(C(C)(C)C)C,"2,2,3,3-tetramethylbutane",273.0,carroll11,1
1800,CC(C)CCC(C)C,"2,5-dimethylhexane",271.0,carroll11,1
1801,CC(C)(C(CC)C)C,"2,2,3-trimethylpentane",270.0,carroll11,1
1802,CC(CC)(CCC)C,"3,3-dimethylhexane",272.0,carroll11,1
1803,CC(C)C(C(C)C)C,"2,3,4-trimethylpentane",273.0,carroll11,1
1804,CC(C)C(CC)(C)C,"2,3,3-trimethylpentane",278.0,carroll11,1
1805,C(C)C(C(C)C)CC,3-ethyl-2-methylpentane,276.0,carroll11,1
1806,CC(C)C(CCC)C,"2,3-dimethylhexane",278.0,carroll11,1
1807,CC(CC)C(CC)C,"3,4-dimethylhexane",279.0,carroll11,1
1808,CC(CCC)CCC,4-methylheptane,278.0,carroll11,1
1809,C(C)C(CC)(CC)C,3-ethyl-3-methylpentane,276.0,carroll11,1
1810,C(C)C(CC)CCC,3-ethylhexane,278.0,carroll11,1
1811,C1CCCCCC1,cycloheptane,279.0,carroll11,1
1812,C[C@@H]1CC[C@H](CC1)C,"trans-1,4-dimethylcyclohexane",279.0,carroll11,1
1813,C[C@@H]1C[C@@H](CCC1)C,"cis-1,3-dimethylcyclohexane",279.0,carroll11,1
1814,CC1(CCCCC1)C,"1,1-dimethylcyclohexane",280.0,carroll11,1
1815,CC(C)(CC(C)(C)C)C,"2,2,4,4-tetramethylpentane",279.0,carroll11,1
1816,C(C)C1(CCCC1)C,1-ethyl-1-methylcyclopentane,279.0,carroll11,1
1817,CC(C)(CCC(C)C)C,"2,2,5-trimethylhexane",286.0,carroll11,1
1818,C[C@@H]1C[C@H](CCC1)C,"trans-1,3-dimethylcyclohexane",281.0,carroll11,1
1819,C[C@@H]1CC[C@@H](CC1)C,"cis-1,4-dimethylcyclohexane",279.0,carroll11,1
1820,C(C)(C)C1CCCC1,isopropylcyclopentane,287.0,carroll11,1
1821,CC(C)(CC(CC)C)C,"2,2,4-trimethylhexane",286.0,carroll11,1
1822,C[C@H]1[C@H](CCCC1)C,"cis-1,2-dimethylcyclohexane",285.0,carroll11,1
1823,CC(C)CC(CC)(C)C,"2,4,4-trimethylhexane",288.0,carroll11,1
1824,CC(C)C(CC(C)C)C,"2,3,5-trimethylhexane",288.0,carroll11,1
1825,C(CC)C1CCCC1,propylcyclopentane,289.0,carroll11,1
1826,C(C)C1CCCCC1,ethylcyclohexane,291.0,carroll11,1
1827,CC(C)(C(C(C)C)C)C,"2,2,3,4-tetramethylpentane",284.0,carroll11,1
1828,CC(C)CC(CCC)C,"2,4-dimethylheptane",288.0,carroll11,1
1829,CC(C)(CCCCC)C,"2,2-dimethylheptane",297.0,carroll11,1
1830,C(C)C(C(C)(C)C)CC,"3-ethyl-2,2-dimethylpentane",286.0,carroll11,1
1831,CC(C)(C(CCC)C)C,"2,2,3-trimethylhexane",288.0,carroll11,1
1832,CC(CCC)(CCC)C,"4,4-dimethylheptane",288.0,carroll11,1
1833,CC(C)CCC(CC)C,"2,5-dimethylheptane",288.0,carroll11,1
1834,CC(C)CCCC(C)C,"2,6-dimethylheptane",299.0,carroll11,1
1835,CC(CC)CC(CC)C,"3,5-dimethylheptane",288.0,carroll11,1
1836,C(C)C(C(C)C)C(C)C,"3-ethyl-2,4-dimethylpentane",288.0,carroll11,1
1837,CC(C)(CCC(C)(C)C)C,"2,2,5,5-tetramethylhexane",289.0,carroll11,1
1838,CC(C)C(CCC)(C)C,"2,3,3-trimethylhexane",288.0,carroll11,1
1839,CC(C)C(C(CC)C)C,"2,3,4-trimethylhexane",288.0,carroll11,1
1840,CC(C)C(C(C)C)(C)C,"2,3,3,4-tetramethylpentane",284.0,carroll11,1
1841,CC(C)C(CCCC)C,"2,3-dimethylheptane",288.0,carroll11,1
1842,CC(C)(C(CC)(C)C)C,"2,2,3,3-tetramethylpentane",289.0,carroll11,1
1843,C(C)C(CCC)CCC,4-ethylheptane,288.0,carroll11,1
1844,C(C)C(CC)C(CC)C,3-ethyl-4-methylhexane,288.0,carroll11,1
1845,CC(CC)C(CCC)C,"3,4-dimethylheptane",288.0,carroll11,1
1846,CC(CC)(C(CC)C)C,"3,3,4-trimethylhexane",288.0,carroll11,1
1847,C(C)C(C(C)C)(CC)C,"3-ethyl-2,3-dimethylpentane",288.0,carroll11,1
1848,CC(CCC)CCCC,4-methyloctane,295.0,carroll11,1
1849,C(C)C(CC)(CC)CC,"3,3-diethylpentane",294.0,carroll11,1
1850,CC(C)CC(CC(C)C)C,"2,4,6-trimethylheptane",304.0,carroll11,1
1851,C1CCCCCCC1,cyclooctane,301.0,carroll11,1
1852,CC(C)(CC(CC)(C)C)C,"2,2,4,4-tetramethylhexane",304.0,carroll11,1
1853,CC(C)(CCCCCC)C,"2,2-dimethyloctane",304.0,carroll11,1
1854,CC(C)(C(C(CC)C)C)C,"2,2,3,4-tetramethylhexane",304.0,carroll11,1
1855,C(C)(C)C1CCCCC1,isopropylcyclohexane,308.0,carroll11,1
1856,CC(CC)(CC(CC)C)C,"3,3,5-trimethylheptane",304.0,carroll11,1
1857,CC(C)C(C(C(C)C)C)C,"2,3,4,5-tetramethylhexane",304.0,carroll11,1
1858,C(CC)C1CCCCC1,propylcyclohexane,304.0,carroll11,1
1859,C(CCC)C1CCCC1,butylcyclopentane,305.0,carroll11,1
1860,C(C)C(CC)CC(CC)C,3-ethyl-5-methylheptane,304.0,carroll11,1
1861,CC(C)CCCC(CC)C,"2,6-dimethyloctane",307.0,carroll11,1
1862,C(C)C(C(C)(C)C)CCC,"3-ethyl-2,2-dimethylhexane",311.0,carroll11,1
1863,CC(CC)CC(CCC)C,"3,5-dimethyloctane",314.0,carroll11,1
1864,CC(C)(C(CCC)(C)C)C,"2,2,3,3-tetramethylhexane",304.0,carroll11,1
1865,CC(CC)(CCCCC)C,"3,3-dimethyloctane",314.0,carroll11,1
1866,CC(C)C(C(CC)(C)C)C,"2,3,4,4-tetramethylhexane",304.0,carroll11,1
1867,C(CC)C(CCC)CCC,4-propylheptane,308.0,carroll11,1
1868,C(C)C(CCC)CCCC,4-ethyloctane,314.0,carroll11,1
1869,CC(CC)C(C(CC)C)C,"3,4,5-trimethylheptane",304.0,carroll11,1
1870,CC(C)C(CCCCC)C,"2,3-dimethyloctane",309.0,carroll11,1
1871,C(C)C(CC)(CCCC)C,3-ethyl-3-methylheptane,314.0,carroll11,1
1872,CC(C)C(C(CC)C)(C)C,"2,3,3,4-tetramethylhexane",304.0,carroll11,1
1873,CC(CCCC)CCCC,5-methylnonane,310.0,carroll11,1
1874,CC(CCC)CCCCC,4-methylnonane,311.0,carroll11,1
1875,C(C)C(C(CC)C)CCC,4-ethyl-3-methylheptane,314.0,carroll11,1
1876,C(C)C(C(C)C)(C(C)C)C,"3-ethyl-2,3,4-trimethylpentane",304.0,carroll11,1
1877,CC(CC)(C(CC)(C)C)C,"3,3,4,4-tetramethylhexane",304.0,carroll11,1
1878,C(C)(C)(C)C1CCCCC1,tert-butylcyclohexane,313.0,carroll11,1
1879,C1CCCCCCCC1,cyclononane,316.0,carroll11,1
1880,C(CCC)C1CCCCC1,butylcyclohexane,321.0,carroll11,1
1881,C1CCC[C@@H]2CCCC[C@@H]12,trans-decalin,326.0,carroll11,1
1882,C1CCC[C@@H]2CCCC[C@H]12,cis-decalin,330.0,carroll11,1
1883,C1CCCCCCCCC1,cyclodecane,332.0,carroll11,1
1884,C(CCCC)C1CCCCC1,pentylcyclohexane,336.0,carroll11,1
1885,C1(CCCCC1)C1CCCCC1,bicyclohexyl,365.0,carroll11,1
1886,CC(C)(CC(CC(CC(C)(C)C)C)(C)C)C,"2,2,4,4,6,8,8-heptamethylnonane",368.0,carroll11,1
1887,C=CCCC,1-pentene,222.0,carroll11,1
1888,C=CCCCC,1-hexene,247.0,carroll11,1
1889,C=CCCCCC,1-heptene,264.0,carroll11,1
1890,C=CCCCCCCC,1-nonene,298.0,carroll11,1
1891,C=CCCCCCCCC,1-decene,311.0,carroll11,1
1892,C=CCCCCCCCCC,1-undecene,327.0,carroll11,1
1893,C=CCCCCCCCCCC,1-dodecene,346.0,carroll11,1
1894,C=CCCCCCCCCCCC,1-tridecene,365.0,carroll11,1
1895,C=CCCCCCCCCCCCC,1-tetradecene,370.0,carroll11,1
1896,C=CCCCCCCCCCCCCC,1-pentadecene,386.0,carroll11,1
1897,C=CCCCCCCCCCCCCCC,1-hexadecene,402.0,carroll11,1
1898,C=CCCCCCCCCCCCCCCC,1-heptadecene,414.0,carroll11,1
1899,C=CCCCCCCCCCCCCCCCC,1-octadecene,427.0,carroll11,1
1900,C\C=C/CC,cis-2-pentene,227.0,carroll11,1
1901,C\C=C\CC,trans-2-pentene,228.0,carroll11,1
1902,CC\C=C/CC,cis-3-hexene,248.0,carroll11,1
1903,CC\C=C\CC,trans-3-hexene,248.0,carroll11,1
1904,C\C=C\CCC,trans-2-hexene,248.0,carroll11,1
1905,C\C=C/CCC,cis-2-hexene,248.0,carroll11,1
1906,CC\C=C/CCC,cis-3-heptene,264.0,carroll11,1
1907,CC\C=C\CCC,trans-3-heptene,266.0,carroll11,1
1908,C\C=C\CCCC,trans-2-heptene,267.0,carroll11,1
1909,C\C=C/CCCC,cis-2-heptene,267.0,carroll11,1
1910,CCC\C=C\CCC,trans-4-octene,281.0,carroll11,1
1911,CC\C=C\CCCC,trans-3-octene,282.0,carroll11,1
1912,CCC\C=C/CCC,cis-4-octene,290.0,carroll11,1
1913,CC\C=C/CCCC,cis-3-octene,287.0,carroll11,1
1914,C\C=C\CCCCC,trans-2-octene,287.0,carroll11,1
1915,CC(=C)CC,2-methyl-1-butene,226.0,carroll11,1
1916,CC(C)=CC,2-methyl-2-butene,228.0,carroll11,1
1917,C1=CCCC1,cyclopentene,243.0,carroll11,1
1918,CC(CC=C)C,4-methyl-1-pentene,241.0,carroll11,1