,smiles,compound,flashpoint,source,pure substance
2939,OCCC(C)O,"butane-1,3-diol",382.0,Saldana11,1
2940,OCCCCO,"butane-1,4-diol",407.0,Saldana11,1
2941,CC(O)C(C)O,"butane-2,3-diol",358.0,Saldana11,1
2942,CCCCCCCCCCO,decan-1-ol,378.0,Saldana11,1
2943,OCCO,"ethane-1,2-diol",383.0,Saldana11,1
2944,CCO,ethanol,286.0,Saldana11,1
2945,CCCCCCCO,heptan-1-ol,346.0,Saldana11,1
2946,CCCCCC(C)O,heptan-2-ol,332.0,Saldana11,1
2947,CCCCCCO,hexan-1-ol,335.0,Saldana11,1
2948,CCCCC(C)O,hexan-2-ol,314.0,Saldana11,1
2949,OCCCCC(O)CO,"hexane-1,2,6-triol",471.0,Saldana11,1
2950,OCCCCCCO,"hexane-1,6-diol",420.0,Saldana11,1
2951,CC(O)CCC(C)O,"hexane-2,5-diol",374.0,Saldana11,1
2952,CO,methanol,284.0,Saldana11,1
2953,CCCCCCCCCO,nonan-1-ol,353.0,Saldana11,1
2954,CCCCCC(O)C=C,oct-1-en-3-ol,341.0,Saldana11,1
2955,CCCCCCCCO,octan-1-ol,354.0,Saldana11,1
2956,CCCCCCC(C)O,octan-2-ol,358.0,Saldana11,1
2957,CCCCCO,pentan-1-ol,330.0,Saldana11,1
2958,CCCC(C)O,pentan-2-ol,314.0,Saldana11,1
2959,CCC(O)CC,pentan-3-ol,313.0,Saldana11,1
2960,OCCCCCO,"pentane-1,5-diol",402.0,Saldana11,1
2961,CC(O)CC(C)O,"pentane-2,4-diol",374.0,Saldana11,1
2962,OCC=C,prop-2-en-1-ol,294.0,Saldana11,1
2963,CCCO,propan-1-ol,298.0,Saldana11,1
2964,CC(C)O,propan-2-ol,285.0,Saldana11,1
2965,CCC(O)O,"propane-1,1-diol",372.0,Saldana11,1
2966,OCC(C)O,"propane-1,2-diol",372.0,Saldana11,1
2967,OCC(O)CO,"propane-1,2,3-triol",433.0,Saldana11,1
2968,OCCCO,"propane-1,3-diol",352.0,Saldana11,1
2969,CCCCCCCCCCCCCCO,tetradecan-1-ol,418.0,Saldana11,1
2970,CCCCCCCCCCCCCO,tridecan-1-ol,394.0,Saldana11,1
2971,CCCCCCC(C)c1ccccc1,(1-methylheptyl)benzene,373.0,Saldana11,1
2972,C/C=C/c1ccccc1,(1E)-prop-1-en-1-ylbenzene,325.0,Saldana11,1
2973,C/C=C\c1ccccc1,(1Z)-prop-1-enylbenzene,311.0,Saldana11,1
2974,CCC(C)Cc1ccccc1,(2-methylbutyl)benzene,337.0,Saldana11,1
2975,CC(C)(C)Cc1ccccc1,"(2,2-dimethylpropyl)benzene",323.0,Saldana11,1
2976,CC(C)c1ccccc1C,1-ethyl-2-isopropylbenzene,331.0,Saldana11,1
2977,CCc1ccccc1C,1-ethyl-2-methylbenzene,312.0,Saldana11,1
2978,CCc1cccc(C)c1C,"1-ethyl-2,3-dimethylbenzene",338.0,Saldana11,1
2979,CCc1ccc(C)cc1C,"1-ethyl-2,4-dimethylbenzene",330.0,Saldana11,1
2980,CCc1cccc(C)c1,1-ethyl-3-methylbenzene,311.0,Saldana11,1
2981,CCc1ccc(C)cc1,1-ethyl-4-methylbenzene,309.0,Saldana11,1
2982,C=Cc1ccccc1C,1-methyl-2-ethenylbenzene,320.0,Saldana11,1
2983,Cc1cccc(c1)C(C)C,1-methyl-3-(propan-2-yl)benzene,323.0,Saldana11,1
2984,C=Cc1cccc(C)c1,1-methyl-3-ethenylbenzene,324.0,Saldana11,1
2985,CCCc1cccc(C)c1,1-methyl-3-propylbenzene,325.0,Saldana11,1
2986,C=Cc1ccc(C)cc1,1-methyl-4-ethenylbenzene,319.0,Saldana11,1
2987,CC(c1ccccc1)c1ccccc1,"1,1-diphenylethane",402.0,Saldana11,1
2988,CCc1ccccc1CC,"1,2-diethylbenzene",330.0,Saldana11,1
2989,CCCc1cccc(C)c1C,"1,2-dimethyl-3-propylbenzene",345.0,Saldana11,1
2990,Cc1ccccc1C,"1,2-dimethylbenzene",290.0,Saldana11,1
2991,c1ccc(cc1)c1ccccc1c1ccccc1,"1,2-diphenylbenzene",436.0,Saldana11,1
2992,c1ccc(cc1)CCc1ccccc1,"1,2-diphenylethane",402.0,Saldana11,1
2993,Cc1cccc(C)c1C,"1,2,3-trimethylbenzene",317.0,Saldana11,1
2994,Cc1ccc(C)c(C)c1C,"1,2,3,4-tetramethylbenzene",341.0,Saldana11,1
2995,Cc1cc(C)c(C)c(C)c1,"1,2,3,5-tetramethylbenzene",336.0,Saldana11,1
2996,CCc1ccc(CC)c(CC)c1,"1,2,4-triethylbenzene",353.0,Saldana11,1
2997,Cc1ccc(C)c(C)c1,"1,2,4-trimethylbenzene",319.0,Saldana11,1
2998,Cc1cc(C)c(C)cc1C,"1,2,4,5-tetramethylbenzene",328.0,Saldana11,1
2999,CC(C)c1cccc(c1)C(C)C,"1,3-di(propan-2-yl)benzene",349.0,Saldana11,1
3000,CCc1cccc(CC)c1,"1,3-diethylbenzene",329.0,Saldana11,1
3001,c1ccc(cc1)c1cccc(c1)c1ccccc1,"1,3-diphenylbenzene",464.0,Saldana11,1
3002,Cc1cccc(C)c1,"1,3-xylene",298.0,Saldana11,1
3003,CCc1cc(CC)cc(CC)c1,"1,3,5-triethylbenzene",354.0,Saldana11,1
3004,CC(C)c1cc(cc(c1)C(C)C)C(C)C,"1,3,5-triisopropylbenzene",360.0,Saldana11,1
3005,Cc1cc(C)cc(C)c1,"1,3,5-trimethylbenzene",318.0,Saldana11,1
3006,CCc1ccc(CC)cc1,"1,4-diethylbenzene",329.0,Saldana11,1
3007,CC(C)c1ccc(cc1)C(C)C,"1,4-diisopropylbenzene",349.0,Saldana11,1
3008,Cc1ccc(C)cc1,"1,4-dimethylbenzene",298.0,Saldana11,1
3009,c1ccc(cc1)c1ccc(cc1)c1ccccc1,"1,4-diphenylbenzene",480.0,Saldana11,1
3010,CCc1cc(C)ccc1C,"2-ethyl-1,4-dimethylbenzene",329.0,Saldana11,1
3011,CCC(C)(C)c1ccccc1,2-phenyl-2-methylbutane,338.0,Saldana11,1
3012,CC(C)(c1ccccc1)c1ccccc1,"2,2-diphenylpropane",383.0,Saldana11,1
3013,CCc1ccc(C)c(C)c1,"4-ethyl-1,2-dimethylbenzene",331.0,Saldana11,1
3014,Cc1ccc(cc1)C(C)C,4-isopropyltoluene,320.0,Saldana11,1
3015,CC(=C)c1ccccc1,alpha-methylstyrene,313.0,Saldana11,1
3016,c1ccccc1,benzene,262.0,Saldana11,1
3017,c1ccc(cc1)c1ccccc1,biphenyl,386.0,Saldana11,1
3018,C1CCC(CC1)c1ccccc1,cyclohexylbenzene,372.0,Saldana11,1
3019,c1ccc(cc1)Cc1ccccc1,diphenylmethane,403.0,Saldana11,1
3020,C=Cc1ccccc1,ethenylbenzene,305.0,Saldana11,1
3021,CCc1ccccc1,ethylbenzene,288.0,Saldana11,1
3022,c1ccc2CCCc2c1,indane,322.0,Saldana11,1
3023,CC(C)Cc1ccccc1,isobutylbenzene,325.0,Saldana11,1
3024,CC(C)CCc1ccccc1,isopentylbenzene,335.0,Saldana11,1
3025,CC(C)c1ccccc1,isopropylbenzene,304.0,Saldana11,1
3026,CCCCc1ccccc1,n-butylbenzene,323.0,Saldana11,1
3027,CCCCCCCCCCc1ccccc1,n-decylbenzene,380.0,Saldana11,1
3028,CCCCCCCCCCCCc1ccccc1,n-dodecylbenzene,414.0,Saldana11,1
3029,CCCCCCCc1ccccc1,n-heptylbenzene,368.0,Saldana11,1
3030,CCCCCCc1ccccc1,n-hexylbenzene,353.0,Saldana11,1
3031,CCCc1ccccc1,n-propylbenzene,303.0,Saldana11,1
3032,CCCCCCCCCCCc1ccccc1,n-undecylbenzene,417.0,Saldana11,1
3033,CCCCCCCCCc1ccccc1,nonylbenzene,372.0,Saldana11,1
3034,CCCCCCCCc1ccccc1,octylbenzene,380.0,Saldana11,1
3035,Cc1cc(C)c(C)c(C)c1C,pentamethylbenzene,364.0,Saldana11,1
3036,CCCCCc1ccccc1,pentylbenzene,338.0,Saldana11,1
3037,CCC(C)c1ccccc1,sec-butylbenzene,325.0,Saldana11,1
3038,CC(C)(C)c1ccccc1,tert-butylbenzene,333.0,Saldana11,1
3039,C1CCc2ccccc2C1,tetralin,350.0,Saldana11,1
3040,Cc1ccccc1,toluene,277.0,Saldana11,1
3041,C[C@@H](O)c1ccccc1,(1R)-1-phenylethan-1-ol,358.0,Saldana11,1
3042,OCc1ccccc1C,(2-methylphenyl)methanol,377.0,Saldana11,1
3043,OCc1cccc(C)c1,(3-methylphenyl)methanol,378.0,Saldana11,1
3044,OCc1ccc(CO)cc1,[4-(hydroxymethyl)phenyl]methanol,461.0,Saldana11,1
3045,O=C(OCC1CCC(CC1)COC(=O)c1ccccc1)c1ccccc1,{4-[(benzoyloxy)methyl]cyclohexyl}methyl benzoate,434.0,Saldana11,1
3046,CCC(O)c1ccccc1,1-phenylpropan-1-ol,363.0,Saldana11,1
3047,CC(O)Cc1ccccc1,1-phenylpropan-2-ol,358.0,Saldana11,1
3048,CCc1ccccc1O,2-ethylphenol,351.0,Saldana11,1
3049,OCc1ccco1,2-furylmethanol,356.0,Saldana11,1
3050,Cc1ccccc1O,2-methylphenol,354.0,Saldana11,1
3051,OCCc1ccccc1,2-phenylethanol,369.0,Saldana11,1
3052,OCC(C)c1ccccc1,2-phenylpropan-1-ol,366.0,Saldana11,1
3053,CC(C)(O)c1ccccc1,2-phenylpropan-2-ol,360.0,Saldana11,1
3054,Cc1cc(c(O)c(c1)C(C)(C)C)C(C)(C)C,"2,6-di-tert-butyl-p-cresol",390.0,Saldana11,1
3055,CCc1cccc(O)c1,3-ethylphenol,367.0,Saldana11,1
3056,Cc1cccc(O)c1,3-methylphenol,368.0,Saldana11,1
3057,OCCCc1ccccc1,3-phenylpropan-1-ol,373.0,Saldana11,1
3058,CCC(C)(C)c1ccc(O)cc1,4-(2-methylbutan-2-yl)phenol,384.0,Saldana11,1
3059,Oc1ccc(cc1)C(C)(C)c1ccc(O)cc1,4-[2-(4-hydroxyphenyl)propan-2-yl]phenol,480.0,Saldana11,1
3060,CCc1ccc(O)cc1,4-ethylphenol,373.0,Saldana11,1
3061,Cc1ccc(O)cc1,4-methylphenol,368.0,Saldana11,1
3062,Oc1ccc(cc1O)C(C)(C)C,"4-tert-butylbenzene-1,2-diol",403.0,Saldana11,1
3063,Oc1ccc(cc1)C(C)(C)C,4-tert-butylphenol,386.0,Saldana11,1
3064,Oc1ccccc1O,"benzene-1,2-diol",400.0,Saldana11,1
3065,Oc1cccc(O)c1,"benzene-1,3-diol",400.0,Saldana11,1
3066,Oc1ccc(O)cc1,"benzene-1,4-diol",438.0,Saldana11,1
3067,O=C(OCc1ccccc1)c1ccccc1,benzyl benzoate,418.0,Saldana11,1
3068,CC(=O)OCc1ccccc1,benzyl ethanoate,363.0,Saldana11,1
3069,O=COCc1ccccc1,benzyl methanoate,355.0,Saldana11,1
3070,CCCCOC(=O)c1ccccc1,butyl benzoate,379.0,Saldana11,1
3071,CCCCOC(=O)c1ccccc1C(=O)OCCCC,di-n-butyl phthalate,430.0,Saldana11,1
3072,CCCCCCCCCCOC(=O)c1ccccc1C(=O)OCCCCCCCCCC,di-n-decyl phthalate,505.0,Saldana11,1
3073,CCCCCCOC(=O)c1ccccc1C(=O)OCCCCCC,di-n-hexyl phthalate,466.0,Saldana11,1
3074,CCCCCCCCCOC(=O)c1ccccc1C(=O)OCCCCCCCCC,di-n-nonyl phthalate,489.0,Saldana11,1
3075,CCOC(=O)c1ccccc1C(=O)OCC,diethyl phthalate,390.0,Saldana11,1
3076,CC(C)COC(=O)c1ccccc1C(=O)OCC(C)C,diisobutyl phthalate,434.0,Saldana11,1
3077,CC(C)CCCCCCCOC(=O)c1ccccc1C(=O)OCCCCCCCC(C)C,diisodecyl phthalate,505.0,Saldana11,1
3078,COC(=O)c1cccc(c1)C(=O)OC,dimethyl isophthalate,411.0,Saldana11,1
3079,COC(=O)c1ccccc1C(=O)OC,dimethyl phthalate,419.0,Saldana11,1
3080,CCCCC(CC)COC(=O)c1ccccc1C(=O)OCC(CC)CCCC,dioctyl phthalate,489.0,Saldana11,1
3081,CCOC(=O)c1ccccc1,ethyl benzoate,357.0,Saldana11,1
3082,COC(=O)c1ccccc1,methyl benzoate,355.0,Saldana11,1
3083,CCCOC(=O)c1ccccc1,n-propyl benzoate,371.0,Saldana11,1
3084,CCCCCCCCCc1ccccc1O,nonylphenol,411.0,Saldana11,1
3085,Oc1ccccc1,phenol,353.0,Saldana11,1
3086,OCc1ccccc1,phenylmethanol,374.0,Saldana11,1
3087,Cc1ccc(O)c(C)c1,"xylen-2,4-ol",368.0,Saldana11,1
3088,Oc1c(C)cccc1C,"xylen-2,6-ol",346.0,Saldana11,1
3089,C[C@H]1CC[C@H](C(C)C)[C@@H](O)C1,"(1R,2S,5R)-5-methyl-2-propan-2-ylcyclohexan-1-ol",366.0,Saldana11,1
3090,CC1(O)CCCCC1,1-methylcyclohexan-1-ol,338.0,Saldana11,1
3091,OCC1CCC=CC1,"1,2,3,6-tetrahydrobenzyl alcohol",346.0,Saldana11,1
3092,OCC1CCC(CO)CC1,"1,4-cyclohexanedimethanol",434.0,Saldana11,1
3093,CC1=CCC(CC1)C(C)(C)O,2-(4-methylcyclohex-3-en-1-yl)propan-2-ol,367.0,Saldana11,1
3094,OCC1CCC(C)CC1,4-methyl-cyclohexane-methanol,354.0,Saldana11,1
3095,CC1CCC(=O)O1,5-methyloxolan-2-one,354.0,Saldana11,1
3096,C[C@H]1CCCC[C@H]1O,cis-2-methylcyclohexanol,331.0,Saldana11,1
3097,C[C@H]1CCC[C@@H](O)C1,cis-3-methylcyclohexanol,335.0,Saldana11,1
3098,C[C@@H]1CC[C@H](O)CC1,cis-4-methylcyclohexanol,343.0,Saldana11,1
3099,OC1CCCCC1,cyclohexanol,341.0,Saldana11,1
3100,CC(=O)OC1CCCCC1,cyclohexyl ethanoate,330.0,Saldana11,1
3101,O=COC1CCCCC1,cyclohexyl methanoate,324.0,Saldana11,1
3102,COC(=O)C1CCC(CC1)C(=O)OC,"dimethyl-1,4-cyclohexanedicarboxylate",383.0,Saldana11,1
3103,O=C1CCCCCO1,oxepan-2-one,382.0,Saldana11,1
3104,C1COC1=O,oxetan-2-one,343.0,Saldana11,1
3105,O=C1CCCO1,oxolan-2-one,371.0,Saldana11,1
3106,C[C@@H]1CCCC[C@H]1O,trans-2-methylcyclohexanol,331.0,Saldana11,1
3107,C[C@@H]1CCC[C@@H](O)C1,trans-3-methylcyclohexanol,335.0,Saldana11,1
3108,CCC(CC)OC(=O)C,1-ethylpropyl ethanoate,318.0,Saldana11,1
3109,CC(=C)OC(=O)C,1-methylethenyl ethanoate,283.0,Saldana11,1
3110,CC(=O)OC(C)C(C)C,"1,2-dimethylpropyl ethanoate",316.0,Saldana11,1
3111,CCCCC(CC)COC(=O)C,2-ethylhexyl ethanoate,344.0,Saldana11,1
3112,CCCCC(CC)COC(=O)C=C,2-ethylhexyl prop-2-enoate,355.0,Saldana11,1
3113,O=COCC(C)(C)C,"2,2-dimethylpropyl methanoate",311.0,Saldana11,1
3114,CCC(=O)OCC(C)(C)C,"2,2-dimethylpropyl propanoate",334.0,Saldana11,1
3115,C=CCOC(=O)C(=C)C,allyl 2-methylpropenoate,306.0,Saldana11,1
3116,CC(=O)OCC=C,allyl ethanoate,295.0,Saldana11,1
3117,C=CC(OC(=O)C)OC(=O)C,allylidene diethanoate,355.0,Saldana11,1
3118,CCCCOC(=O)C(=C)C,butyl 2-methylprop-2-enoate,322.0,Saldana11,1
3119,CCCCOC(=O)CCC,butyl butanoate,326.0,Saldana11,1
3120,CCCCOC(=O)C,butyl ethanoate,295.0,Saldana11,1
3121,CCCCOC=O,butyl methanoate,291.0,Saldana11,1
3122,CCCCOC(=O)C=C,butyl prop-2-enoate,312.0,Saldana11,1
3123,CCCCOC(=O)CC,butyl propanoate,305.0,Saldana11,1
3124,CCCCCCCCCCOC(=O)C,decyl ethanoate,378.0,Saldana11,1
3125,CCCCCCCCCCOC=O,decyl methanoate,373.0,Saldana11,1
3126,CCCCC(CC)COC(=O)CCCCC(=O)OCC(CC)CCCC,di(2-ethylhexyl)hexanedioate,466.0,Saldana11,1
3127,C=CCOC(=O)/C=C\C(=O)OCC=C,diallyl (2Z)-but-2-enedioate,393.0,Saldana11,1
3128,CCCCOC(=O)/C=C\C(=O)OCCCC,dibutyl (2Z)-but-2-enedioate,413.0,Saldana11,1
3129,CCCCOC(=O)CCCCCCCCC(=O)OCCCC,dibutyl decanedioate,451.0,Saldana11,1
3130,CCOC(=O)/C=C\C(=O)OCC,diethyl (2Z)-but-2-enedioate,366.0,Saldana11,1
3131,CCOC(=O)CCC(=O)OCC,diethyl butanedioate,363.0,Saldana11,1
3132,CCOC(=O)OCC,diethyl carbonate,298.0,Saldana11,1
3133,CCOC(=O)C(=O)OCC,diethyl oxalate,395.0,Saldana11,1
3134,CCOC(=O)CC(=O)OCC,diethyl propanedioate,366.0,Saldana11,1
3135,CCCCCCOC(=O)CCCCC(=O)OCCCCCC,dihexyl hexanedioate,464.0,Saldana11,1
3136,COC(=O)/C=C\C(=O)OC,dimethyl (2Z)-but-2-enedioate,368.0,Saldana11,1
3137,COC(=O)CC(=O)OC,dimethyl propanedioate,363.0,Saldana11,1
3138,CCCCCCCCOC(=O)CCCCC(=O)OCCCCCCCC,dioctyl hexanedioate,452.0,Saldana11,1
3139,CCCCCCCCCCCCOC(=O)CCC,dodecyl butanoate,433.0,Saldana11,1
3140,CCCCCCCCCCCCOC(=O)C,dodecyl ethanoate,389.0,Saldana11,1
3141,CCCCCCCCCCCCOC(=O)CC,dodecyl propanoate,421.0,Saldana11,1
3142,C=COC(=O)C(C)(C)C,"ethenyl 2,2-dimethylpropanoate",282.0,Saldana11,1
3143,CC(=O)OC=C,ethenyl ethanoate,265.0,Saldana11,1
3144,C=COC=O,ethenyl methanoate,256.0,Saldana11,1
3145,CCC(=O)OC=C,ethenyl propanoate,274.0,Saldana11,1
3146,CCOC(=O)/C=C/C=C/C,"ethyl (2E,4E)-hexa-2,4-dienoate",342.0,Saldana11,1
3147,CCCCC/C=C\C=C\C(=O)OCC,"ethyl (2E,4Z)-deca-2,4-dienoate",386.0,Saldana11,1
3148,CCOC(=O)/C=C/C,ethyl (2E)-but-2-enoate,275.0,Saldana11,1
3149,CCCCCCC/C=C/C(=O)OCC,ethyl (2E)-dec-2-enoate,364.0,Saldana11,1
3150,CC/C=C/CC(=O)OCC,ethyl (2E)-hex-3-enoate,332.0,Saldana11,1
3151,CCCCC/C=C/C(=O)OCC,ethyl (2E)-oct-2-enoate,371.0,Saldana11,1
3152,CCC/C=C/CCC(=O)OCC,ethyl (2E)-oct-4-enoate,352.0,Saldana11,1
3153,CCCCCCCC/C=C\CCCCCCCC(=O)OCC,ethyl (9Z)-octadec-9-enoate,365.0,Saldana11,1
3154,CCOC(=O)C(C)O,ethyl 2-hydroxypropanoate,319.0,Saldana11,1
3155,CCOC(=O)C(=C)C,ethyl 2-methylprop-2-enoate,293.0,Saldana11,1
3156,CCOC(=O)C=C=C,"ethyl buta-2,3-dienoate",320.0,Saldana11,1
3157,CCCC(=O)OCC,ethyl butanoate,297.0,Saldana11,1
3158,CCCCCCCCCC(=O)OCC,ethyl decanoate,375.0,Saldana11,1
3159,CCCCCCCCCCCC(=O)OCC,ethyl dodecanoate,386.0,Saldana11,1
3160,CCCCCCCCCCCCCCCCCCCC(=O)OCC,ethyl eicosanoate,444.0,Saldana11,1
3161,CCOC(=O)C,ethyl ethanoate,269.0,Saldana11,1
3162,C=CCCCCC(=O)OCC,ethyl hept-6-enoate,352.0,Saldana11,1
3163,CCCCCCCCCCCCCCCCC(=O)OCC,ethyl heptadecanoate,428.0,Saldana11,1
3164,CCCCCCC(=O)OCC,ethyl heptanoate,347.0,Saldana11,1
3165,CCCCCCCCCCCCCCCC(=O)OCC,ethyl hexadecanoate,386.0,Saldana11,1
3166,CCCCCC(=O)OCC,ethyl hexanoate,326.0,Saldana11,1
3167,CCOC(=O)C(C)C,ethyl isobutanoate,287.0,Saldana11,1
3168,CCOC(=O)CC(C)C,ethyl isopentanoate,298.0,Saldana11,1
3169,CCOC=O,ethyl methanoate,253.0,Saldana11,1
3170,CCCCCCCCC(=O)OCC,ethyl nonanoate,367.0,Saldana11,1
3171,CCCCCCCCCCCCCCCCCC(=O)OCC,ethyl octadecanoate,441.0,Saldana11,1
3172,CCCCCCCC(=O)OCC,ethyl octanoate,354.0,Saldana11,1
3173,CCCCC(=O)OCC,ethyl pentanoate,307.0,Saldana11,1
3174,CCOC(=O)C=C,ethyl prop-2-enoate,282.0,Saldana11,1
3175,CCOC(=O)CC,ethyl propanoate,285.0,Saldana11,1
3176,CCCCCCCCCCCCCC(=O)OCC,ethyl tetradecanoate,386.0,Saldana11,1
3177,C=CCCCCCCCCC(=O)OCC,ethyl undec-10-enoate,386.0,Saldana11,1
3178,CCCCCCCCCCC(=O)OCC,ethyl undecanoate,386.0,Saldana11,1
3179,CC(=O)OCCOC(=O)C,ethylene glycol diethanoate,361.0,Saldana11,1
3180,C=CC(=O)OCCOC(=O)C=C,ethylene glycol diprop-2-enoate,373.0,Saldana11,1
3181,CCCCCCCOC(=O)C,heptyl ethanoate,349.0,Saldana11,1
3182,CCCCCCOC(=O)C,hexyl ethanoate,310.0,Saldana11,1
3183,CCCCCCOC=O,hexyl methanoate,330.0,Saldana11,1
3184,CC(C)COC(=O)C(C)C,isobutyl 2-methylpropanoate,311.0,Saldana11,1
3185,CC(C)COC(=O)C(=C)C,isobutyl 2-methylpropenoate,314.0,Saldana11,1
3186,CCCC(=O)OCC(C)C,isobutyl butanoate,330.0,Saldana11,1
3187,CC(C)COC(=O)C,isobutyl ethanoate,291.0,Saldana11,1
3188,O=COCC(C)C,isobutyl methanoate,302.0,Saldana11,1
3189,C=CC(=O)OCC(C)C,isobutyl prop-2-enoate,304.0,Saldana11,1
3190,CCC(=O)OCC(C)C,isobutyl propanoate,320.0,Saldana11,1
3191,CCCC(=O)OCCC(C)C,isopentyl butanoate,331.0,Saldana11,1
3192,CCCCCCCCCCCC(=O)OCCC(C)C,isopentyl dodecanoate,386.0,Saldana11,1
3193,CC(C)CCOC(=O)C,isopentyl ethanoate,298.0,Saldana11,1
3194,CCCCCC(=O)OCCC(C)C,isopentyl hexanoate,358.0,Saldana11,1
3195,CC(C)CCOC(=O)CC(C)C,isopentyl isopentanoate,345.0,Saldana11,1
3196,O=COCCC(C)C,isopentyl methanoate,314.0,Saldana11,1
3197,CCC(=O)OCCC(C)C,isopentyl propanoate,321.0,Saldana11,1
3198,CC(C)OC(=O)C,isopropyl ethanoate,275.0,Saldana11,1
3199,CCCCCC/C=C/CCCCCCCCCC(=O)OC,methyl (11E)-octadec-11-enoate,335.0,Saldana11,1
3200,CCCCCCCC/C=C\CCCCCCCCCC(=O)OC,methyl (11Z)-eicos-11-enoate,386.0,Saldana11,1
3201,CCCCCC/C=C\CCCCCCCCCC(=O)OC,methyl (11Z)-octadec-11-enoate,335.0,Saldana11,1
3202,CCCCCCCC/C=C\CCCCCCCCCCCC(=O)OC,methyl (13Z)-docos-13-enoate,306.0,Saldana11,1
3203,CCCCCC/C=C/C(=O)OC,methyl (2E)-non-2-enoate,364.0,Saldana11,1
3204,CCCCC/C=C/C(=O)OC,methyl (2E)-oct-2-enoate,356.0,Saldana11,1
3205,COC(=O)/C=C/C=C,"methyl (2E)-penta-2,4-dienoate",310.0,Saldana11,1
3206,COC(=O)/C=C\C=C,"methyl (2Z)-penta-2,4-dienoate",310.0,Saldana11,1
3207,CC/C=C/CC(=O)OC,methyl (3E)-hex-3-enoate,319.0,Saldana11,1
3208,CCCCC/C=C/CC(=O)OC,methyl (3E)-non-3-enoate,361.0,Saldana11,1
3209,C/C=C/CC(=O)OC,methyl (3E)-pent-3-enoate,297.0,Saldana11,1
3210,CCCCC/C=C\CC(=O)OC,methyl (3Z)-non-3-enoate,361.0,Saldana11,1
3211,C/C=C\C/C=C\C/C=C\C/C=C\C/C=C\C/C=C\CCCC(=O)OC,"methyl (4Z,7Z,10Z,13Z,16Z,19Z)-docosa-4,7,10,13,16,19-hexaenoate",366.0,Saldana11,1
3212,CC/C=C\C/C=C\C/C=C\C/C=C\C/C=C\CCCC(=O)OC,"methyl (5Z,8Z,11Z,14Z,17Z)-eicosa-5,8,11,14,17-pentaenoate",377.0,Saldana11,1
3213,CCCCC/C=C/C/C=C/C/C=C/CCCCC(=O)OC,"methyl (6E,9E,12E)-octadeca-6,9,12-trienoate",335.0,Saldana11,1
3214,CCCCC/C=C\C/C=C/C/C=C/CCCCC(=O)OC,"methyl (6E,9E,12Z)-octadeca-6,9,12-trienoate",335.0,Saldana11,1
3215,CCCCC/C=C/C/C=C\C/C=C/CCCCC(=O)OC,"methyl (6E,9Z,12E)-octadeca-6,9,12-trienoate",335.0,Saldana11,1
3216,CCCCC/C=C\C/C=C\C/C=C/CCCCC(=O)OC,"methyl (6E,9Z,12Z)-octadeca-6,9,12-trienoate",335.0,Saldana11,1
3217,CCCCC/C=C/C/C=C/C/C=C\CCCCC(=O)OC,"methyl (6Z,9E,12E)-octadeca-6,9,12-trienoate",335.0,Saldana11,1
3218,CCCCC/C=C\C/C=C/C/C=C\CCCCC(=O)OC,"methyl (6Z,9E,12Z)-octadeca-6,9,12-trienoate",335.0,Saldana11,1
3219,CCCCC/C=C/C/C=C\C/C=C\CCCCC(=O)OC,"methyl (6Z,9Z,12E)-octadeca-6,9,12-trienoate",335.0,Saldana11,1
3220,CCCCC/C=C\C/C=C\C/C=C\CCCCC(=O)OC,"methyl (6Z,9Z,12Z)-octadeca-6,9,12-trienoate",335.0,Saldana11,1
3221,CC/C=C\C/C=C\C/C=C\CCCCCCCC(=O)OC,"methyl (9Z,12Z,15Z)-octadeca-9,12,15-trienoate",386.0,Saldana11,1
3222,CCCCC/C=C\C/C=C\CCCCCCCC(=O)OC,"methyl (9Z,12Z)-octadeca-9,12-dienoate",386.0,Saldana11,1
3223,CCCCCC/C=C\CCCCCCCC(=O)OC,methyl (9Z)-hexadec-9-enoate,386.0,Saldana11,1
3224,CCCCCCCC/C=C\CCCCCCCC(=O)OC,methyl (9Z)-octadec-9-enoate,386.0,Saldana11,1
3225,C=CCCCCCCCCC(=O)OC,methyl 10-undecenoate,373.0,Saldana11,1
3226,COC(=O)C(=C)C,methyl 2-methylprop-2-enoate,284.0,Saldana11,1
3227,COC(=O)C(C)C,methyl 2-methylpropanoate,276.0,Saldana11,1
3228,COC(=O)CC=C,methyl but-3-enoate,293.0,Saldana11,1
3229,CCCC(=O)OC,methyl butanoate,287.0,Saldana11,1
3230,CCCCCCCCCC(=O)OC,methyl decanoate,367.0,Saldana11,1
3231,CCCCCCCCCCCC(=O)OC,methyl dodecanoate,386.0,Saldana11,1
3232,CCCCCCCCCCCCCCCCCCCC(=O)OC,methyl eicosanoate,386.0,Saldana11,1
3233,COC(=O)C,methyl ethanoate,263.0,Saldana11,1
3234,CCCCCCCCCCCCCCCCCCCCC(=O)OC,methyl heneicosanoate,386.0,Saldana11,1
3235,CCCCCCCCCCCCCCCCC(=O)OC,methyl heptadecanoate,383.0,Saldana11,1
3236,CCCCCCC(=O)OC,methyl heptanoate,325.0,Saldana11,1
3237,C=CCCCC(=O)OC,methyl hex-5-enoate,319.0,Saldana11,1
3238,CCCCCCCCCCCCCCCC(=O)OC,methyl hexadecanoate,425.0,Saldana11,1
3239,CCCCCC(=O)OC,methyl hexanoate,316.0,Saldana11,1
3240,COC=O,methyl methanoate,254.0,Saldana11,1
3241,CCCCCCCCCCCCCCCCCCC(=O)OC,methyl nonadecanoate,386.0,Saldana11,1
3242,CCCCCCCCC(=O)OC,methyl nonanoate,360.0,Saldana11,1
3243,CCCCCCCCCCCCCCCCCC(=O)OC,methyl octadecanoate,388.0,Saldana11,1
3244,CCCCCCCC(=O)OC,methyl octanoate,342.0,Saldana11,1
3245,COC(=O)CCC=C,methyl pent-4-enoate,302.0,Saldana11,1
3246,CCCCCCCCCCCCCCC(=O)OC,methyl pentadecanoate,386.0,Saldana11,1
3247,COC(=O)C=C,methyl prop-2-enoate,270.0,Saldana11,1
3248,CCC(=O)OC,methyl propanoate,271.0,Saldana11,1
3249,CCCCCCCCCCCCC(=O)OC,methyl tridecanoate,386.0,Saldana11,1
3250,CCCCCCCCCCCCCCCCCC(=O)OCCCC,n-butyl octadecanoate,433.0,Saldana11,1
3251,CCCOC(=O)C,n-propyl ethanoate,288.0,Saldana11,1
3252,CCCOC=O,n-propyl methanoate,270.0,Saldana11,1
3253,CCCOC(=O)CC,n-propyl propanoate,292.0,Saldana11,1
3254,CC(=O)OCC(C)(C)C,neopentyl ethanoate,316.0,Saldana11,1
3255,CCCCCCCCCOC(=O)C,nonyl ethanoate,372.0,Saldana11,1
3256,CCCCCCCCCOC=O,nonyl methanoate,360.0,Saldana11,1