,smiles,compound,flashpoint,source,pure substance
3584,CCCC[O-].CCCC[O-].CCCC[O-].CCCC[O-].[Ti+4],TITANIUM n-BUTOXIDE,349.15,gelest_metal-organics,1
3585,CC(C)[O-].CC(C)[O-].CC(C)[O-].[Cl-].[Ti+4],TITANIUM CHLORIDE TRIISOPROPOXIDE,295.15,gelest_metal-organics,1
3586,CC[O-].CC[O-].CC[O-].CC[O-].[Ti+4],TITANIUM ETHOXIDE,301.15,gelest_metal-organics,1
3587,CC[O-].CC[O-].CC[O-].CC[O-].[Ti+4],TITANIUM ETHOXIDE,303.15,gelest_metal-organics,1
3588,CC(C)[O-].CC(C)[O-].CCCC(=O)CC(=O)[O-].CCCC(=O)CC(=O)[O-].[Ti+4],TITANIUM DIISOPROPOXIDE BIS(ETHYLACETOACETATE),300.15,gelest_metal-organics,1
3589,CC(C)C[O-].CC(C)C[O-].CC(C)C[O-].CC(C)C[O-].[Ti+4],TITANIUM ISOBUTOXIDE,350.15,gelest_metal-organics,1
3590,CC(C)[O-].CC(C)[O-].CC(C)[O-].CC(C)[O-].[Ti+4],TITANIUM ISOPROPOXIDE,298.15,gelest_metal-organics,1
3591,C[O-].C[O-].C[O-].C[O-].[Ti+4],TITANIUM METHOXIDE,321.15,gelest_metal-organics,1
3592,Cc1ccccc1[O-].Cc1ccccc1[O-].Cc1ccccc1[O-].Cc1ccccc1[O-].[Ti+4],TITANIUM METHYLPHENOXIDE,339.15,gelest_metal-organics,1
3593,CCC[O-].CCC[O-].CCC[O-].CCC[O-].[Ti+4],TITANIUM n-PROPOXIDE,318.15,gelest_metal-organics,1
3594,CC(C)CCCCCCCCCCCCCCC(=O)C(C(=O)CCCCCCCCCCCCCCC(C)C)(C(=O)CCCCCCCCCCCCCCC(C)C)C(C)[O-].CC(C)CCCCCCCCCCCCCCC(=O)C(C(=O)CCCCCCCCCCCCCCC(C)C)(C(=O)CCCCCCCCCCCCCCC(C)C)C(C)[O-].CC(C)CCCCCCCCCCCCCCC(=O)C(C(=O)CCCCCCCCCCCCCCC(C)C)(C(=O)CCCCCCCCCCCCCCC(C)C)C(C)[O-].CC(C)CCCCCCCCCCCCCCC(=O)C(C(=O)CCCCCCCCCCCCCCC(C)C)(C(=O)CCCCCCCCCCCCCCC(C)C)C(C)[O-].[Ti+4],TITANIUM TRIISOSTEAROYLISOPROPOXIDE,366.15,gelest_metal-organics,1
3595,CC(C)(C)[O-].CC(C)(C)[O-].CC(C)(C)[O-].CC(C)(C)[O-].[Zr+4],ZIRCONIUM t-BUTOXIDE,358.15,gelest_metal-organics,1
3596,CCCCC(CC)C(=O)[O-].CCCCC(CC)C(=O)[O-].[Ca+2],CALCIUM 2-ETHYLHEXANOATE,400.15,gelest_metal-organics,1
3597,CC(C)(C)CCCCCC(=O)[O-].[Ag+],SILVER NEODECANOATE,375.15,gelest_metal-organics,1
3598,CCCCC(CC)C(=O)[O-].CCCCC(CC)C(=O)[O-].[Zn+2],ZINC 2-ETHYLHEXANOATE,400.15,gelest_metal-organics,1
3599,CC(C)(C)CCCCCC(=O)[O-].CC(C)(C)CCCCCC(=O)[O-].[Zn+2],ZINC NEODECANOATE,375.15,gelest_metal-organics,1
3600,Cl[Ti](Cl)(Cl)Cl,TITANIUM TETRACHLORIDE,377.15,gelest_metal-organics,1
3601,C[Al](C)Cl,DIMETHYLALUMINUM CHLORIDE,255.15,gelest_metal-organics,1
3602,CC(C)O[Al](C)C,DIMETHYLISOPROPOXYALUMINUM,278.15,gelest_metal-organics,1
3603,C[Cd]C,DIMETHYLCADMIUM,255.15,gelest_metal-organics,1
3604,C=C[c-]1cccc1.[Fe+2].c1cc[cH-]c1,VINYLFERROCENE,335.15,gelest_metal-organics,1
3605,C[Ga](C)C,TRIMETHYLGALLIUM,272.15,gelest_metal-organics,1
3606,CN(C)[Ga](N(C)C)N(C)C,TRIS(DIMETHYLAMINO)GALLIUM,329.15,gelest_metal-organics,1
3607,CC[N-]C.CC[N-]C.CC[N-]C.CC[N-]C.[Hf+4],HAFNIUM TETRAKIS(ETHYLMETHYLAMIDE),283.15,gelest_metal-organics,1
3608,CC[N-]C.CC[N-]C.CC[N-]C.CC[N-]C.[Hf+4],HAFNIUM TETRAKIS(ETHYLMETHYLAMIDE),283.15,gelest_metal-organics,1
3609,C1CCC(PC2CCCCC2)CC1,DICYCLOHEXYLPHOSPHINE,383.15,gelest_metal-organics,1
3610,CCOP([O-])OCC,DIETHYLPHOSPHITE,363.15,gelest_metal-organics,1
3611,c1ccc(Pc2ccccc2)cc1,DIPHENYLPHOSPHINE,383.15,gelest_metal-organics,1
3612,[N-]=[N+]=NP(=O)(c1ccccc1)c1ccccc1,DIPHENYLPHOSPHORYL AZIDE,385.15,gelest_metal-organics,1
3613,CCCCCCCCCCCCCC[P+](CCCCCC)(CCCCCC)CCCCCC.[Cl-],TETRADECYL(TRIHEXYL)PHOSPHONIUM CHLORIDE,391.15,gelest_metal-organics,1
3614,CCOP(=O)(OCC)OCC,TRIETHYLPHOSPHATE,389.15,gelest_metal-organics,1
3615,CCOP(OCC)OCC,TRIETHYLPHOSPHITE,327.15,gelest_metal-organics,1
3616,COP(OC)OC,TRIMETHYLPHOSPHITE,300.15,gelest_metal-organics,1
3617,CCCCCCCCP(CCCCCCCC)CCCCCCCC,TRIOCTYLPHOSPHINE,420.15,gelest_metal-organics,1
3618,c1ccc(P(c2ccccc2)c2ccccc2)cc1,TRIPHENYLPHOSPHINE,455.15,gelest_metal-organics,1
3619,CCN(CC)[Ta](=NC(C)(C)C)(N(CC)CC)N(CC)CC,TRIS(DIETHYLAMINO)(t-BUTYLIMINO) TANTALUM,319.15,gelest_metal-organics,1
3620,CC[N-]CC.CC[N-]CC.CC[N-]CC.CC[N-]CC.[Ti+4],TITANIUM TETRAKIS(DIETHYLAMIDE),310.15,gelest_metal-organics,1
3621,C[N-]C.C[N-]C.C[N-]C.C[N-]C.[Ti+4],TITANIUM TETRAKIS(DIMETHYLAMIDE),281.15,gelest_metal-organics,1
3622,CC[N-]C.CC[N-]C.CC[N-]C.CC[N-]C.[Ti+4],TITANIUM TETRAKIS(ETHYLMETHYLAMIDE),283.15,gelest_metal-organics,1
3623,CC[N-]C.CC[N-]C.CC[N-]C.CC[N-]C.[Zr+4],ZIRCONIUM TETRAKIS(ETHYLMETHYLAMIDE),283.15,gelest_metal-organics,1
3624,CC[Pb](CC)(CC)CC,TETRAETHYLLEAD,346.15,gelest_metal-organics,1
3625,C[Si](C)(C)OB(O[Si](C)(C)C)O[Si](C)(C)C,TRIS(TRIMETHYLSILOXY)BORON,315.15,gelest_metal-organics,1
3626,Cl[SiH](Cl)Cl,Trichlorosilane,245.0,pan12,1
3627,Cl[SiH2]Cl,Dichlorosilane,236.0,pan12,1
3628,C[Si](Cl)(Cl)Cl,Methyltrichlorosilane,276.0,pan12,1
3629,C[SiH](Cl)Cl,Methyldichlorosilane,241.0,pan12,1
3630,ClC(Cl)[Si](Cl)(Cl)C,Dichloromethylmethyldichlorosilane,301.0,pan12,1
3631,C(C)[Si](Cl)(Cl)Cl,Ethyltrichlorosilane,295.0,pan12,1
3632,C[Si](Cl)(Cl)C,Dimethyldichlorosilane,257.0,pan12,1
3633,C[SiH](Cl)C,Dimethylchlorosilane,245.0,pan12,1
3634,FC(C(C)[Si](Cl)(Cl)Cl)(F)F,"1,1,1-Trifluoropropyltrichlorosilane",288.0,pan12,1
3635,C(C=C)[Si](Cl)(Cl)Cl,Allyltrichlorosilane,304.0,pan12,1
3636,CC=C[SiH](Cl)Cl,Methylvinyldichlorosilane,272.0,pan12,1
3637,ClCCC[Si](Cl)(Cl)Cl,3-Chloropropyltrichlorosilane,357.0,pan12,1
3638,BrC[Si](Cl)(C)C,Bromomethyldimethylchlorosilane,314.0,pan12,1
3639,ClC[Si](Cl)(C)C,Chloromethyldimethylchlorosilane,295.0,pan12,1
3640,C[Si](Br)(C)C,Trimethylbromosilane,270.0,pan12,1
3641,C[Si](Cl)(C)C,Trimethylchlorosilane,255.0,pan12,1
3642,CO[SiH](OC)OC,Trimethoxysilane,264.0,pan12,1
3643,C[SiH](C)C,Trimethylsilane,204.0,pan12,1
3644,C(#N)CC[Si](Cl)(Cl)C,Cyanoethylmethyldichlorosilane,333.0,pan12,1
3645,C(C=C)C[SiH](Cl)Cl,Allylmethyldichlorosilane,300.0,pan12,1
3646,ClCCC[Si](Cl)(Cl)C,3-Chloropropylmethyldichlorosilane,359.0,pan12,1
3647,C(C)(C)(C)[Si](Cl)(Cl)Cl,t-Butyltrichlorosilane,294.0,pan12,1
3648,C(C(C)C)[Si](Cl)(Cl)Cl,Isobutyltrichlorosilane,310.0,pan12,1
3649,C(CCC)[Si](Cl)(Cl)Cl,n-Butyltrichlorosilane,327.0,pan12,1
3650,C(CC)[Si](Cl)(Cl)C,n-Propylmethyldichlorosilane,300.0,pan12,1
3651,BrC[Si](C)(C)C,Bromomethyltrimethylsilane,289.0,pan12,1
3652,C(C)[Si](Cl)(C)C,Ethyldimethylchlorosilane,269.0,pan12,1
3653,Cl[Si](O[Si](Cl)(C)C)(C)C,"1,3-Dichlorotetramethyldisiloxane",288.0,pan12,1
3654,C[Si](OC)(OC)C,Dimethyldimethoxysilane,265.0,pan12,1
3655,C[Si](OC)(OC)OC,Methyltrimethoxysilane,284.0,pan12,1
3656,CO[Si](OC)(OC)OC,Tetramethoxysilane,294.0,pan12,1
3657,C[Si](C)(C)C,Tetramethylsilane,245.0,pan12,1
3658,CN(C)[SiH](C)C,"(N,N-Dimethylamino)dimethylsilane",260.0,pan12,1
3659,C[SiH](O[SiH](C)C)C,"1,1,3,3-Tetramethyldisiloxane",251.0,pan12,1
3660,CN([Si](C)(C)C)[SiH3],Tetramethyldisilazane,284.0,pan12,1
3661,C1(CCCC1)[Si](Cl)(Cl)Cl,Cyclopentyltrichlorosilane,350.0,pan12,1
3662,C[Si](C)(C)OC(C(F)(F)F)=O,Trimethylsilyltrifluoroacetate,273.0,pan12,1
3663,C1(CCCC1)[SiH](Cl)Cl,Cyclopentyldichlorosilane,316.0,pan12,1
3664,C(C=C)[Si](Cl)(C)C,Allyldimethylchlorosilane,278.0,pan12,1
3665,ClCC(C[Si](Cl)(Cl)C)C,3-Chloro-2-methylpropylmethyldichlorosilane,363.0,pan12,1
3666,C(CCC)[Si](Cl)(Cl)C,n-Butylmethyldichlorosilane,303.0,pan12,1
3667,CC=C[SiH](OC)OC,Methylvinyldimethoxysilane,277.0,pan12,1
3668,CC(=C(C)C)[SiH3],Trimethylvinylsilane,239.0,pan12,1
3669,C(C)[Si](Cl)(C)CC,Diethylmethylchlorosilane,288.0,pan12,1
3670,ClC[Si](OCC)(C)C,Chloromethyldimethylethoxysilane,299.0,pan12,1
3671,C(C)[Si](OC)(OC)OC,Ethyltrimethoxysilane,300.0,pan12,1
3672,CN(C)[Si](C)(C)C,"(N,N-Dimethylamino)trimethylsilane",254.0,pan12,1
3673,CN(C)C(N(C)C)[SiH3],Bis(dimethylamino)methylsilane,270.0,pan12,1
3674,C[SiH](O[Si](C)(C)C)C,Pentamethyldisiloxane,254.0,pan12,1
3675,C1(=CC=CC=C1)[SiH](Cl)Cl,Phenyldichlorosilane,333.0,pan12,1
3676,C1(=CC=CC=C1)[SiH3],Phenylsilane,281.0,pan12,1
3677,C(=CCCCC)[Si](Cl)(Cl)Cl,1-Hexenyltrichlorosilane,333.0,pan12,1
3678,ClC[Si](O[Si](C)(C)C)(C)CCl,Bis(chloromethyl)tetramethyldisiloxane,346.0,pan12,1
3679,CN(C(C(F)(F)F)=O)[Si](C)(C)C,N-Methyl-N-trimethylsilyltrifluoroacetamide,298.0,pan12,1
3680,C(C#C)O[Si](C)(C)C,Propargyloxytrimethylsilane,300.0,pan12,1
3681,C[Si](OC(C)=O)(OC(C)=O)C,Dimethyldiacetoxysilane,310.0,pan12,1
3682,C(=C)[Si](C)(C)C=C,Divinyldimethylsilane,281.0,pan12,1
3683,C(CCCCC)[Si](Cl)(Cl)Cl,n-Hexyltrichlorosilane,358.0,pan12,1
3684,C(=C)[Si](OCC)(C)C,Vinyldimethylethoxysilane,277.0,pan12,1
3685,C[Si]1(OCCCC1)C,"1,1-Dimethyl-1-sila-2-oxacyclohexane",287.0,pan12,1
3686,C(C=C)O[Si](C)(C)C,Allyloxytrimethylsilane,273.0,pan12,1
3687,C(C)(=O)OC[Si](C)(C)C,Acetoxymethyltrimethylsilane,293.0,pan12,1
3688,C(C=C)[Si](C)(C)C,Allyltrimethylsilane,280.0,pan12,1
3689,C(C)[Si](Cl)(CC)CC,Triethylchlorosilane,303.0,pan12,1
3690,C(C)(C)(C)[Si](Cl)(C)C,t-Butyldimethylchlorosilane,295.0,pan12,1
3691,ClCCC[Si](OC)(OC)OC,3-Chloropropyltrimethoxysilane,348.0,pan12,1
3692,C[Si](OCCC)(C)C,Trimethyl-n-propoxysilane,283.0,pan12,1
3693,C(C)(C)(C)[Si](O)(C)C,t-Butyldimethylsilanol,318.0,pan12,1
3694,C[Si](OCC)(OCC)C,Dimethyldiethoxysilane,284.0,pan12,1
3695,C(C)[SiH](CC)CC,Triethylsilane,270.0,pan12,1
3696,C(CCCCC)[SiH3],Hexylsilane,285.0,pan12,1
3697,C(C)(C)(C)[SiH](C)C,t-Butyldimethylsilane,251.0,pan12,1
3698,CN(C)[Si](C)(C)N(C)C,Bis(dimethylamino)dimethylsilane,266.0,pan12,1
3699,C[Si]1(O[Si](O[Si](O1)(C)C)(C)C)C,Hexamethylcyclotrisiloxane,305.0,pan12,1
3700,C[Si](S[Si](C)(C)C)(C)C,Hexamethyldisilthiane,299.0,pan12,1
3701,C[Si]([Si](C)(C)C)(C)C,Hexamethyldisilane,272.0,pan12,1
3702,CN(C)[SiH](N(C)C)N(C)C,Tris(dimethylamino)silane,298.0,pan12,1
3703,C[Si](O[SiH2]O[Si](C)(C)C)(C)C,Hexamethyltrisiloxane,293.0,pan12,1
3704,C1(=CC=CC=C1)C[SiH](Cl)Cl,Phenylmethyldichlorosilane,355.0,pan12,1
3705,C1(=CC=CC=C1)C[SiH2]Cl,Phenylmethylchlorosilane,355.0,pan12,1
3706,C(=C)C(C=C)(C=C)[SiH3],Trivinylmethylsilane,288.0,pan12,1
3707,C1(CCCCC1)C[SiH](Cl)Cl,Cyclohexylmethyldichlorosilane,355.0,pan12,1
3708,C[Si](OC=CC=C)(C)C,"1-(Trimethylsiloxy)-1,3-butadiene",298.0,pan12,1
3709,ClCC(=C)C[Si](C)(C)C,2-Chloromethyl-3-trimethylsilyl-1-propene,316.0,pan12,1
3710,C(CCCCC)[Si](Cl)(Cl)C,n-Hexylmethyldichlorosilane,358.0,pan12,1
3711,C(=C)C[SiH](OCC)OCC,Vinylmethyldiethoxysilane,289.0,pan12,1
3712,C(=C)[Si](C)(CC)CC,Vinyldiethylmethylsilane,288.0,pan12,1
3713,C[Si](N1CCOCC1)(C)C,N-(Trimethylsilyl)morpholine,300.0,pan12,1
3714,C[Si](C)(C)N=C=N[Si](C)(C)C,Bis(trimethylsilyl)carbodiimide,315.0,pan12,1
3715,C(C)(C)(C)O[Si](C)(C)C,t-Butoxytrimethylsilane,287.0,pan12,1
3716,C(=C)[Si](O[Si](C)(C)C)(C)C,Vinylpentamethyldisiloxane,285.0,pan12,1
3717,C(C(C)C)[Si](OC)(OC)OC,Isobutyltrimethoxysilane,315.0,pan12,1
3718,C[Si](OCC)(OCC)OCC,Methyltriethoxysilane,297.0,pan12,1
3719,C(C)N(CC)[Si](C)(C)C,(Diethylamino)trimethylsilane,283.0,pan12,1
3720,C[Si](C)(C)C[Si](C)(C)C,Bis(trimethylsilyl)methane,285.0,pan12,1
3721,C1(=CC=CC=C1)CC[SiH](Cl)Cl,Phenylethyldichlorosilane,365.0,pan12,1
3722,C1(=CC=CC=C1)[Si](Cl)(C)C,Phenyldimethylchlorosilane,334.0,pan12,1
3723,CN(C)[Si](CC)(CC)CC,"(N,N-Dimethylamino)triethylsilane",299.0,pan12,1
3724,C(=C)[Si](C=C)(C=C)C=C,Tetravinylsilane,291.0,pan12,1
3725,C1(=CC=CC=C1)[SiH](C)C,Phenyldimethylsilane,311.0,pan12,1
3726,C(C)[Si](OC(C)=O)(OC(C)=O)OC(C)=O,Ethyltriacetoxysilane,377.0,pan12,1
3727,C1(C=CC=C1)[Si](C)(C)C,Cyclopentadienyltrimethylsilane,302.0,pan12,1
3728,C[Si](C1C=CCC1)(C)C,3-(Trimethylsilyl)cyclopentene,299.0,pan12,1
3729,C(C=CC=C)[Si](C)(C)C,"(2,4-Pentadienyl)trimethylsilane",291.0,pan12,1
3730,C(CCCCCCC)[Si](Cl)(Cl)Cl,n-Octyltrichlorosilane,369.0,pan12,1
3731,C(CCCCCC)[Si](Cl)(Cl)C,n-Heptylmethyldichlorosilane,339.0,pan12,1
3732,C(C)C(C(=O)O[SiH3])(CC)CC,Triethylacetoxysilane,314.0,pan12,1
3733,C(=C)[Si](OCC)(OCC)OCC,Vinyltriethoxysilane,307.0,pan12,1
3734,C(=C)[Si](CC)(CC)CC,Vinyltriethylsilane,298.0,pan12,1
3735,C(=C)[Si](N[Si](C=C)(C)C)(C)C,"1,3-Divinyltetramethyldisilazane",307.0,pan12,1
3736,C(C)O[Si](OCC)(OCC)OCC,Tetraethoxysilane,323.0,pan12,1
3737,C(C)[Si](CC)(CC)CC,Tetraethylsilane,299.0,pan12,1
3738,C(CCCCCCC)[SiH3],n-Octylsilane,309.0,pan12,1
3739,NCCNCCC[Si](OC)(OC)OC,Aminoethylaminopropyltrimethoxysilane,369.0,pan12,1
3740,C[Si](O[Si](O[Si](C)(C)C)(C)C)(C)C,Octamethyltrisiloxane,303.0,pan12,1
3741,C[Si]1(O[Si](O[Si](O[Si](O1)(C)C)(C)C)(C)C)C,Octamethylcyclotetrasiloxane,330.0,pan12,1
3742,C[Si]1(N[Si](N[Si](N[Si](N1)(C)C)(C)C)(C)C)C,Octamethylcyclotetrasilazane,339.0,pan12,1
3743,C[SiH](O[Si](O[SiH](C)C)(O[SiH](C)C)O[SiH](C)C)C,Tetrakisdimethylsiloxysilane,340.0,pan12,1
3744,ClC1=CC=C(C=C1)[Si](C)(C)C,p-Chlorophenyltrimethylsilane,322.0,pan12,1
3745,C[Si](OC)(OC)C1=CC=CC=C1,Methylphenyldimethoxysilane,349.0,pan12,1
3746,C1(=CC=CC=C1)[Si](OC)(OC)OC,Phenyltrimethoxysilane,358.0,pan12,1
3747,C[Si](C1=CC=CC=C1)(C)C,Trimethylphenylsilane,313.0,pan12,1
3748,C(#N)CC[Si](OCC)(OCC)OCC,2-Cyanoethyltriethoxysilane,359.0,pan12,1
3749,C1(CCCCC1)C[SiH](OC)OC,Cyclohexylmethyldimethoxysilane,343.0,pan12,1
3750,C(C1CO1)OCCC[Si](OC)(OC)OC,3-Glycidoxypropyltrimethoxysilane,383.0,pan12,1
3751,C(C)(C)(C)[Si](Cl)(C)C(C)(C)C,Di-t-butylmethylchlorosilane,342.0,pan12,1
3752,C(CCCCC)[Si](OC)(OC)OC,Hexyltrimethoxysilane,335.0,pan12,1
3753,C(C)(C)[SiH](C(C)C)C(C)C,Triisopropylsilane,310.0,pan12,1
3754,C(CC)[SiH](CCC)CCC,Tri-n-propylsilane,316.0,pan12,1
3755,C(C)(C)N(C(C)C)[Si](C)(C)C,(Diisopropylamino)trimethylsilane,301.0,pan12,1
3756,Cl[Si](O[Si](O[Si](O[Si](C)(C)C)(C)C)(C)C)(C)C,1-Chlorononamethyltetrasiloxane,347.0,pan12,1
3757,C(CC)[Si](O[SiH](C)C)(O[SiH](C)C)O[SiH](C)C,Propyltris(dimethylsiloxy)silane,323.0,pan12,1
3758,C(C1=CC=CC=C1)[Si](C)(C)C,Benzyltrimethylsilane,335.0,pan12,1
3759,C(C(=C)C)(=O)OCCC[Si](OC)(OC)OC,3-Methacryloxypropyltrimethoxysilane,365.0,pan12,1
3760,C(CCCCCCC)[Si](Cl)(C)C,n-Octyldimethylchlorosilane,370.0,pan12,1
3761,C(C)N(CC)[Si](C)(C)N(CC)CC,Bis(diethylamino)dimethylsilane,308.0,pan12,1
3762,C[Si](O[Si](O[Si](O[Si](C)(C)C)(C)C)(C)C)(C)C,Decamethyltetrasiloxane,335.0,pan12,1
3763,C[Si]1(O[Si](O[Si](O[Si](O[Si](O1)(C)C)(C)C)(C)C)(C)C)C,Decamethylcyclopentasiloxane,350.0,pan12,1
3764,C1(CC2C(CC1)O2)CC[Si](OC)(OC)OC,"2-(3,4-epoxycyclohexyl)ethyltrimethoxysilane",419.0,pan12,1
3765,C(CCCCCCCCC)[Si](Cl)(Cl)C,n-Decylmethyldichlorosilane,393.0,pan12,1
3766,C(=C)[Si](CC)(CC)CC,Vinyltriethylsilane,318.0,pan12,1
3767,C1(=CC=CC=C1)[Si](OCC)(OCC)OCC,Phenyltriethoxysilane,393.0,pan12,1
3768,C1(=CC=CC=C1)[SiH2]C1=CC=CC=C1,Diphenylsilane,371.0,pan12,1
3769,C[Si]1([Si]([Si]([Si]1(C=C)C)(C=C)C)(C=C)C)C=C,Tetramethyltetravinylcyclotetrasilane,385.0,pan12,1
3770,C(CCCCCCCCCCC)[Si](Cl)(Cl)Cl,n-Dodecyltrichlorosilane,435.0,pan12,1
3771,C(C)[Si](O[Si](CC)(CC)CC)(CC)CC,Hexaethyldisiloxane,349.0,pan12,1
3772,C[Si](O[Si](O[Si](O[Si](O[Si](C)(C)C)(C)C)(C)C)(C)C)(C)C,Dodecamethylpentasiloxane,352.0,pan12,1
3773,C[Si]1(O[Si](O[Si](O[Si](O[Si](O[Si](O1)(C)C)(C)C)(C)C)(C)C)(C)C)C,Dodecamethylcyclohexasiloxane,366.0,pan12,1
3774,C[Si](Cl)(C1=CC=CC=C1)C1=CC=CC=C1,Methyldiphenylchlorosilane,411.0,pan12,1
3775,C(CCCCCCCCCCC)[Si](Cl)(Cl)C,n-Dodecylmethyldichlorosilane,416.0,pan12,1
3776,C1(=CC=CC=C1)[Si](OC)(OC)C1=CC=CC=C1,Diphenyldimethoxysilane,394.0,pan12,1
3777,C(CCCCCCC)[Si](OCC)(OCC)OCC,Octyltriethoxysilane,373.0,pan12,1
3778,C[Si](O[Si](O[Si](O[Si](O[Si](O[Si](C)(C)C)(C)C)(C)C)(C)C)(C)C)(C)C,Tetradecamethylhexasiloxane,375.0,pan12,1
3779,C(CCCCCCCCCCCCCCCCC)[Si](Cl)(Cl)Cl,n-Octadecyltrichlorosilane,466.0,pan12,1
3780,C[Si](O[Si](O[Si](O[Si](O[Si](O[Si](O[Si](O[Si](C)(C)C)(C)C)(C)C)(C)C)(C)C)(C)C)(C)C)(C)C,Octadecamethyloctasiloxane,417.0,pan12,1
3781,C(=C)[Si](Cl)(Cl)Cl,Vinyltrichlorosilane,294.0,pan12,1
3782,C(C)[SiH3],Ethylsilane,213.0,pan12,1
3783,C(CC)[Si](Cl)(Cl)Cl,n-Propyltrichlorosilane,310.0,pan12,1
3784,C[Si](F)(C)C,Trimethylfluorosilane,238.0,pan12,1
3785,CC(=C[SiH2]Cl)C,Dimethylvinylchlorosilane,268.0,pan12,1
3786,C[Si](C)(C)N=C=S,Trimethylsilylisothiocyanate,308.0,pan12,1
3787,CO[Si](C)(C)C,Methoxytrimethylsilane,243.0,pan12,1
3788,C(C)[SiH2]CC,Diethylsilane,253.0,pan12,1
3789,N(=C=O)[Si](N=C=O)(N=C=O)N=C=O,Tetraisocyanatosilane,323.0,pan12,1
3790,C(C)(CCC)[Si](Cl)(Cl)Cl,sec-Amyltrichlorosilane,303.0,pan12,1
3791,C(=C)[Si](OC)(OC)OC,Vinyltrimethoxysilane,296.0,pan12,1
3792,C(C)O[Si](C)(C)C,Ethoxytrimethylsilane,246.0,pan12,1
3793,C1(=CC=CC=C1)[Si](Cl)(Cl)Cl,Phenyltrichlorosilane,364.0,pan12,1
3794,C1(CCCCC1)[Si](Cl)(Cl)Cl,Cyclohexyltrichlorosilane,358.0,pan12,1
3795,C[Si](C#CC)(C)C,1-Trimethylsilylpropyne,270.0,pan12,1
3796,C(CCCCC)[SiH](Cl)Cl,Hexyldichlorosilane,337.0,pan12,1
3797,C(C=C)[Si](OC)(OC)OC,Allyltrimethoxysilane,319.0,pan12,1
3798,ClCCC[Si](OC)(OC)C,3-Chloropropylmethyldimethoxysilane,318.0,pan12,1
3799,C(CC)[Si](OC)(OC)OC,n-Propyltrimethoxysilane,298.0,pan12,1
3800,C[Si](O[Si](C)(C)C)(C)C,Hexamethyldisiloxane,270.0,pan12,1
3801,C[Si](N[Si](C)(C)C)(C)C,Hexamethyldisilazane,281.0,pan12,1
3802,C[Si](OC(C)=O)(OC(C)=O)OC(C)=O,Methyltriacetoxysilane,358.0,pan12,1
3803,C(CCCCCC)[Si](Cl)(Cl)Cl,n-Heptyltrichlorosilane,337.0,pan12,1
3804,COCC(C)O[Si](C)(C)C,(1-Methoxy-2-propoxy)trimethylsilane,293.0,pan12,1
3805,C[Si](N([Si](C)(C)C)C)(C)C,Heptamethyldisilazane,300.0,pan12,1
3806,C(=C)[Si](OC(C)=O)(OC(C)=O)OC(C)=O,Vinyltriacetoxysilane,361.0,pan12,1
3807,C1(=CCCC1)O[Si](C)(C)C,(Cyclopentenyloxy)trimethylsilane,311.0,pan12,1
3808,C[Si](O[Si](C=C)(C=C)C)(C)C,Tetramethyldivinyldisiloxane,292.0,pan12,1
3809,C(C)[Si](OCC)(OCC)CC,Diethyldiethoxysilane,316.0,pan12,1
3810,CC(C(O[Si]([O])OCC)(C)C)C,Tetramethyldiethoxysiloxane,311.0,pan12,1
3811,C(CC)[Si](Cl)(CCC)CCC,Tri-n-propylchlorosilane,349.0,pan12,1
3812,C[Si](OB(O[Si](C)(C)C)O[Si](C)(C)C)(C)C,Tris(trimethylsiloxy)boron,315.0,pan12,1
3813,C(#CCCCCC)[Si](C)(C)C,1-Heptynyltrimethylsilane,315.0,pan12,1
3814,C[Si](OC(O[Si](C)(C)C)(O[Si](C)(C)C)[SiH3])(C)C,Tristrimethylsiloxymethylsilane,336.0,pan12,1
3815,C1(=CC=CC=C1)[Si](Cl)(Cl)C1=CC=CC=C1,Diphenyldichlorosilane,415.0,pan12,1
3816,C(CC)O[Si](OCCC)(OCCC)OCCC,Tetra-n-propoxysilane,368.0,pan12,1
3817,C1(=CC=CC=C1)C(C1=CC=CC=C1)[SiH3],Diphenylmethylsilane,393.0,pan12,1
3818,C[Si](O[Si](O[Si](O[Si](O[Si](O[Si](O[Si](C)(C)C)(C)C)(C)C)(C)C)(C)C)(C)C)(C)C,Hexadecamethylheptasiloxane,406.0,pan12,1
3819,CC(=O)OCC[Si](C)(C)Cl,ACETOXYETHYLDIMETHYLCHLOROSILANE,336.15,gelest_silanes,1
3820,CC(=O)OCC[Si](C)(Cl)Cl,ACETOXYETHYLMETHYLDICHLOROSILANE,338.15,gelest_silanes,1
3821,CC(=O)OCC[Si](Cl)(Cl)Cl,ACETOXYETHYLTRICHLOROSILANE,355.15,gelest_silanes,1
3822,CCO[Si](CCOC(C)=O)(OCC)OCC,ACETOXYETHYLTRIETHOXYSILANE,372.15,gelest_silanes,1
3823,CC(=O)OC[Si](C)(C)C,ACETOXYMETHYLTRIMETHYLSILANE,293.15,gelest_silanes,1
3824,CC(=O)OCCC[Si](C)(Cl)Cl,3-ACETOXYPROPYLMETHYLDICHLOROSILANE,358.15,gelest_silanes,1
3825,CO[Si](CCCOC(C)=O)(OC)OC,3-ACETOXYPROPYLTRIMETHOXYSILANE,366.15,gelest_silanes,1
3826,CC(=O)O[Si](C)(C)C,ACETOXYTRIMETHYLSILANE,277.15,gelest_silanes,1
3827,CC(=O)[Si](C)(C)C,ACETYLTRIMETHYLSILANE,281.15,gelest_silanes,1
3828,C=CC(=O)OC[Si](OC)(OC)OC,ACRYLOXYMETHYLTRIMETHOXYSILANE,335.15,gelest_silanes,1
3829,C=CC(=O)OCCC[Si](C)(C)OC,(3-ACRYLOXYPROPYL)DIMETHYLMETHOXYSILANE,358.15,gelest_silanes,1
3830,C=CC(=O)OCCC[Si](OC)(OC)OC,(3-ACRYLOXYPROPYL)TRIMETHOXYSILANE,396.15,gelest_silanes,1
3831,C=CC(=O)OCCC[Si](O[Si](C)(C)C)(O[Si](C)(C)C)O[Si](C)(C)C,(3-ACRYLOXYPROPYL)TRIS(TRIMETHYLSILOXY)SILANE,366.15,gelest_silanes,1
3832,C=CC(=O)O[Si](C)(C)C,ACRYLOXYTRIMETHYLSILANE,299.15,gelest_silanes,1
3833,C=CCNCCC[Si](OC)(OC)OC,3-(N-ALLYLAMINO)PROPYLTRIMETHOXYSILANE,361.15,gelest_silanes,1
3834,C=CCN[Si](C)(C)C,ALLYLAMINOTRIMETHYLSILANE,283.15,gelest_silanes,1
3835,C=CC[Si](C)(C)CCl,ALLYL(CHLOROMETHYL)DIMETHYLSILANE,300.15,gelest_silanes,1
3836,C=CC[Si](Cl)(Cl)CCCCl,ALLYL(3-CHLOROPROPYL)DICHLOROSILANE,349.15,gelest_silanes,1
3837,C=CC[SiH](Cl)Cl,ALLYLDICHLOROSILANE,269.15,gelest_silanes,1
3838,C=CC[Si](C)(C)N(C(C)C)C(C)C,ALLYLDIMETHYL(DIISOPROPYLAMINO)SILANE,335.15,gelest_silanes,1
3839,C=CC[SiH](C)C,ALLYLDIMETHYLSILANE,253.15,gelest_silanes,1
3840,C=CC[Si](C)(C)c1ccc(OC)cc1,ALLYL(4-METHOXYPHENYL)DIMETHYLSILANE,375.15,gelest_silanes,1
3841,C=CCC[SiH](Cl)Cl,ALLYLMETHYLDICHLOROSILANE,300.15,gelest_silanes,1
3842,C=CCO[Si](C)(C)C(C)(C)C,ALLYLOXY-t-BUTYLDIMETHYLSILANE,305.15,gelest_silanes,1
3843,C=CCO[Si](C)(C)C,ALLYLOXYTRIMETHYLSILANE,273.15,gelest_silanes,1
3844,C=CC[Si](Cl)(Cl)c1ccccc1,ALLYLPHENYLDICHLOROSILANE,349.15,gelest_silanes,1