,smiles,compound,flashpoint,source,pure substance
1919,CC(C=C)CC,3-methyl-1-pentene,240.0,carroll11,1
1920,CC(\C=C/C)C,cis-4-methyl-2-pentene,240.0,carroll11,1
1921,CC(/C=C/C)C,trans-4-methyl-2-pentene,246.0,carroll11,1
1922,CC(=C)CCC,2-methyl-1-pentene,246.0,carroll11,1
1923,C(C)C(=C)CC,2-ethyl-1-butene,247.0,carroll11,1
1924,CC(C)=C(C)C,"2,3-dimethyl-2-butene",253.0,carroll11,1
1925,C=C1CCCC1,methylenecyclopentane,255.0,carroll11,1
1926,CC1=CCCC1,1-methylcyclopentene,254.0,carroll11,1
1927,CC(=C)C(C)(C)C,"2,3,3-trimethyl-1-butene",256.0,carroll11,1
1928,C1=CCCCC1,cyclohexene,256.0,carroll11,1
1929,CC(C=C)CCC,3-methyl-1-hexene,255.0,carroll11,1
1930,CC(=C)C(CC)C,"2,3-dimethyl-1-pentene",256.0,carroll11,1
1931,C(C)C(C=C)CC,3-ethyl-1-pentene,256.0,carroll11,1
1932,CC(CCC=C)C,5-methyl-1-hexene,263.0,carroll11,1
1933,CC(CC=C)CC,4-methyl-1-hexene,258.0,carroll11,1
1934,CC(=C)CCCC,2-methyl-1-hexene,265.0,carroll11,1
1935,C(C)C(=C)CCC,2-ethyl-1-pentene,263.0,carroll11,1
1936,C(C)C(=CC)CC,3-ethyl-2-pentene,267.0,carroll11,1
1937,C12C=CC(CC1)C2,2-norbornene,259.0,carroll11,1
1938,CC(=C)CC(C)(C)C,"2,4,4-trimethyl-1-pentene",269.0,carroll11,1
1939,CC1CC=CCC1,4-methylcyclohexene,272.0,carroll11,1
1940,C=C1CCCCC1,methylenecyclohexane,271.0,carroll11,1
1941,CC1C=CCCC1,3-methylcyclohexene,270.0,carroll11,1
1942,CC(C)=CC(C)(C)C,"2,4,4-trimethyl-2-pentene",272.0,carroll11,1
1943,CC1=CCCCC1,1-methylcyclohexene,272.0,carroll11,1
1944,C(C)C(C=C)CCC,3-ethyl-1-hexene,274.0,carroll11,1
1945,CC(CC=C)CCC,4-methyl-1-heptene,275.0,carroll11,1
1946,CC(=C)CCCCC,2-methyl-1-heptene,283.0,carroll11,1
1947,CC(C)=CCCCC,2-methyl-2-heptene,282.0,carroll11,1
1948,C(C=C)C1CCCC1,allylcyclopentane,285.0,carroll11,1
1949,C(=C)C1CCCCC1,vinylcyclohexane,294.0,carroll11,1
1950,CC(CCCCC=C)C,7-methyl-1-octene,291.0,carroll11,1
1951,C12C=C(CCC1C2(C)C)C,2-carene,311.0,carroll11,1
1952,C=CC(C)=C,isoprene,225.0,carroll11,1
1953,CC(=C)C(=C)C,"2,3-dimethyl-1,3-butadiene",251.0,carroll11,1
1954,CC(=CC=C)C,"4-methyl-1,3-pentadiene",255.0,carroll11,1
1955,C=CCCCC=C,"1,6-heptadiene",263.0,carroll11,1
1956,C=CCCCCC=C,"1,7-octadiene",278.0,carroll11,1
1957,CC(C)=CC=C(C)C,"2,5-dimethyl-2,4-hexadiene",297.0,carroll11,1
1958,C=CCCCCCC=C,"1,8-nonadiene",299.0,carroll11,1
1959,C1=CC=CCC1,"1,3-cyclohexadiene",257.0,carroll11,1
1960,C1=CCC=CC1,"1,4-cyclohexadiene",262.0,carroll11,1
1961,C(=C)C1CC=CCC1,4-vinyl-1-cyclohexene,289.0,carroll11,1
1962,C1=CCCC=CCC1,"1,5-cyclooctadiene",308.0,carroll11,1
1963,C12C=CC(C=C1)C2,"2,5-norbornadiene",262.0,carroll11,1
1964,C(C)=C1C2C=CC(C1)C2,5-ethylidene-2-norbornene,302.0,carroll11,1
1965,C1=CC=CC=CC=C1,"1,3,5,7-cyclooctatetraene",295.0,carroll11,1
1966,C#CCCC,1-pentyne,239.0,carroll11,1
1967,C#CCCCC,1-hexyne,253.0,carroll11,1
1968,C#CCCCCC,1-heptyne,271.0,carroll11,1
1969,C#CCCCCCC,1-octyne,289.0,carroll11,1
1970,C#CCCCCCCC,1-nonyne,306.0,carroll11,1
1971,C#CCCCCCCCC,1-decyne,321.0,carroll11,1
1972,C#CCCCCCCCCC,1-undecyne,338.0,carroll11,1
1973,C#CCCCCCCCCCC,1-dodecyne,352.0,carroll11,1
1974,C#CCCCCCCCCCCC,1-tridecyne,366.0,carroll11,1
1975,CC#CCC,2-pentyne,243.0,carroll11,1
1976,CC#CCCC,2-hexyne,263.0,carroll11,1
1977,CC#CCCCC,2-heptyne,281.0,carroll11,1
1978,CC#CCCCCC,2-octyne,297.0,carroll11,1
1979,CC#CCCCCCC,2-nonyne,312.0,carroll11,1
1980,CC#CCCCCCCC,2-decyne,326.0,carroll11,1
1981,CC#CCCCCCCCCC,2-dodecyne,351.0,carroll11,1
1982,CCC#CCC,3-hexyne,259.0,carroll11,1
1983,CCC#CCCC,3-heptyne,278.0,carroll11,1
1984,CCC#CCCCCC,3-nonyne,311.0,carroll11,1
1985,CCCC#CCCCC,4-nonyne,308.0,carroll11,1
1986,CCCC#CCCC,4-octyne,291.0,carroll11,1
1987,CCC#CCCCCCC,3-decyne,325.0,carroll11,1
1988,CCCC#CCCCCC,4-decyne,325.0,carroll11,1
1989,CCCC#CCCCCCC,4-undecyne,339.0,carroll11,1
1990,CCCCC#CCCCCC,5-undecyne,339.0,carroll11,1
1991,CC(C#C)(C)C,"3,3-dimethyl-1-butyne",239.0,carroll11,1
1992,CC(CC#C)C,4-methyl-1-pentyne,249.0,carroll11,1
1993,CC(C#CC)(C)C,"4,4-dimethyl-2-pentyne",263.0,carroll11,1
1994,CC(CCC#C)C,5-methyl-1-hexyne,266.0,carroll11,1
1995,C#CCCCC#C,"1,6-heptadiyne",282.0,carroll11,1
1996,C#CCCCCC#C,"1,7-octadiyne",296.0,carroll11,1
1997,C#CCCCCCC#C,"1,8-nonadiyne",315.0,carroll11,1
1998,C1=CC=CC=C1,benzene,262.0,carroll11,1
1999,CC1=CC=CC=C1,toluene,280.0,carroll11,1
2000,C(C)C1=CC=CC=C1,ethylbenzene,294.0,carroll11,1
2001,C(CC)C1=CC=CC=C1,propylbenzene,303.0,carroll11,1
2002,C(CCC)C1=CC=CC=C1,butylbenzene,323.0,carroll11,1
2003,C(CCCC)C1=CC=CC=C1,pentylbenzene,339.0,carroll11,1
2004,C(CCCCC)C1=CC=CC=C1,hexylbenzene,356.0,carroll11,1
2005,C(CCCCCC)C1=CC=CC=C1,heptylbenzene,368.0,carroll11,1
2006,C(CCCCCCC)C1=CC=CC=C1,octylbenzene,380.0,carroll11,1
2007,C(CCCCCCCC)C1=CC=CC=C1,nonylbenzene,390.0,carroll11,1
2008,C(CCCCCCCCCC)C1=CC=CC=C1,undecylbenzene,417.0,carroll11,1
2009,C1(=CC=C(C=C1)C)C,p-xylene,298.0,carroll11,1
2010,C1(=CC(=CC=C1)C)C,m-xylene,298.0,carroll11,1
2011,C=1(C(=CC=CC1)C)C,o-xylene,303.0,carroll11,1
2012,C1(=CC=CC=C1)C(C)C,cumene,304.0,carroll11,1
2013,C(C)C1=CC=C(C)C=C1,p-ethyltoluene,309.0,carroll11,1
2014,C(C)C=1C=C(C)C=CC1,m-ethyltoluene,311.0,carroll11,1
2015,C(C)C1=C(C)C=CC=C1,o-ethyltoluene,312.0,carroll11,1
2016,CC1=CC(=CC(=C1)C)C,"1,3,5-trimethylbenzene",317.0,carroll11,1
2017,CC1=C(C=C(C=C1)C)C,"1,2,4-trimethylbenzene",319.0,carroll11,1
2018,C(C)(C)(C)C1=CC=CC=C1,tert-butylbenzene,317.0,carroll11,1
2019,C(C(C)C)C1=CC=CC=C1,isobutylbenzene,323.0,carroll11,1
2020,C(C)(C)C=1C=C(C)C=CC1,m-isopropyltoluene,320.0,carroll11,1
2021,CC1=C(C(=CC=C1)C)C,"1,2,3-trimethylbenzene",324.0,carroll11,1
2022,C(C)(C)C1=CC=C(C)C=C1,p-isopropyltoluene,320.0,carroll11,1
2023,C(C)(C)C1=C(C)C=CC=C1,o-isopropyltoluene,323.0,carroll11,1
2024,C(C)C1=CC(=CC=C1)CC,m-diethylbenzene,324.0,carroll11,1
2025,C(CC)C=1C=C(C)C=CC1,m-propyltoluene,325.0,carroll11,1
2026,C(C)C1=CC=C(C=C1)CC,p-diethylbenzene,328.0,carroll11,1
2027,C(C)C1=C(C=CC=C1)CC,o-diethylbenzene,328.0,carroll11,1
2028,C(C(C)(C)C)C1=CC=CC=C1,neopentylbenzene,323.0,carroll11,1
2029,C(C)C1=C(C=CC(=C1)C)C,"2-ethyl-1,4-dimethylbenzene",329.0,carroll11,1
2030,C(C)C1=C(C=C(C=C1)C)C,"1-ethyl-2,4-dimethylbenzene",330.0,carroll11,1
2031,C(C)C1=CC(=C(C=C1)C)C,"4-ethyl-1,2-dimethylbenzene",331.0,carroll11,1
2032,C(C)C1=CC(=CC=C1)C(C)C,1-ethyl-3-isopropylbenzene,336.0,carroll11,1
2033,C(C)C1=C(C(=CC=C1)C)C,"1-ethyl-2,3-dimethylbenzene",338.0,carroll11,1
2034,C1(=CC=CC=C1)CC(CC)C,1-phenyl-2-methylbutane,337.0,carroll11,1
2035,C(CC(C)C)C1=CC=CC=C1,isopentylbenzene,335.0,carroll11,1
2036,CC1=C(C(=CC(=C1)C)C)C,"1,2,3,5-tetramethylbenzene",336.0,carroll11,1
2037,C(C)(C)C1=CC(=CC=C1)C(C)C,"1,3-diisopropylbenzene",349.0,carroll11,1
2038,CC1=C(C(=C(C=C1)C)C)C,"1,2,3,4-tetramethylbenzene",341.0,carroll11,1
2039,C1(=CC=CC=C1)C(C)(CC)C,2-phenyl-2-methylbutane,332.0,carroll11,1
2040,CC1=C(C(=CC=C1)CCC)C,"1,2-dimethyl-3-propylbenzene",345.0,carroll11,1
2041,C(C)(C)C1=CC=C(C=C1)C(C)C,"1,4-diisopropylbenzene",349.0,carroll11,1
2042,C1CCCC2=CC=CC=C12,"1,2,3,4-tetrahydronaphthalene",344.0,carroll11,1
2043,C1(CCCCC1)C1=CC=CC=C1,cyclohexylbenzene,371.0,carroll11,1
2044,CC(CCCCCC)C1=CC=CC=C1,(1-methylheptyl)benzene,373.0,carroll11,1
2045,C1(=CC=CC=C1)CC1=CC=CC=C1,diphenylmethane,400.0,carroll11,1
2046,C(C)OC=O,ethylformate,254.0,carroll11,1
2047,C(CC)OC=O,propylformate,270.0,carroll11,1
2048,C(CCC)OC=O,butylformate,291.0,carroll11,1
2049,C(CCCC)OC=O,pentylformate,299.0,carroll11,1
2050,C(CCCCC)OC=O,hexylformate,317.0,carroll11,1
2051,C(CCCCCC)OC=O,heptylformate,333.0,carroll11,1
2052,C(CCCCCCC)OC=O,octylformate,342.0,carroll11,1
2053,C(CCCCCCCC)OC=O,nonylformate,361.0,carroll11,1
2054,C(CCCCCCCCC)OC=O,decylformate,373.0,carroll11,1
2055,C(C)(C)OC=O,isopropylformate,259.0,carroll11,1
2056,C(C)(C)(C)OC=O,tert-butylformate,264.0,carroll11,1
2057,C(CC(C)C)OC=O,isopentylformate,295.0,carroll11,1
2058,C(C(C)C)OC=O,isobutylformate,277.0,carroll11,1
2059,C1(CCCCC1)C(=O)[O-],cyclohexylformate,324.0,carroll11,1
2060,COC(C)=O,methylacetate,260.0,carroll11,1
2061,C(C)OC(C)=O,ethylacetate,269.0,carroll11,1
2062,C(CC)OC(C)=O,propylacetate,283.0,carroll11,1
2063,C(CCC)OC(C)=O,butylacetate,298.0,carroll11,1
2064,C(CCCC)OC(C)=O,pentylacetate,312.0,carroll11,1
2065,C(CCCCC)OC(C)=O,hexylacetate,328.0,carroll11,1
2066,C(CCCCCC)OC(C)=O,heptylacetate,340.0,carroll11,1
2067,C(CCCCCCC)OC(C)=O,octylacetate,355.0,carroll11,1
2068,C(CCCCCCCC)OC(C)=O,nonylacetate,364.0,carroll11,1
2069,C(CCCCCCCCC)OC(C)=O,decylacetate,377.0,carroll11,1
2070,C(CCCCCCCCCC)OC(C)=O,undecylacetate,384.0,carroll11,1
2071,C(CCCCCCCCCCC)OC(C)=O,dodecylacetate,393.0,carroll11,1
2072,C(C)(C)OC(C)=O,isopropylacetate,275.0,carroll11,1
2073,C(C)(C)(C)OC(C)=O,tert-butylacetate,277.0,carroll11,1
2074,C(C)(CC)OC(C)=O,sec-butylacetate,289.0,carroll11,1
2075,C(C(C)C)OC(C)=O,isobutylacetate,291.0,carroll11,1
2076,C(CCCC)CC(=O)[O-],2-pentylacetate,305.0,carroll11,1
2077,C(CC(C)C)OC(C)=O,isopentylacetate,309.0,carroll11,1
2078,C(C)(C)(CC)OC(C)=O,tert-pentylacetate,298.0,carroll11,1
2079,C1(CCCCC1)CC(=O)[O-],cyclohexylacetate,331.0,carroll11,1
2080,C1(CCCCCCCCC1)CC(=O)[O-],cyclodecylacetate,379.0,carroll11,1
2081,COC(CC)=O,methylpropanoate,271.0,carroll11,1
2082,C(C)OC(CC)=O,ethylpropanoate,285.0,carroll11,1
2083,C(C)(C)(C)OC(CC)=O,tert-butylpropanoate,293.0,carroll11,1
2084,C(CC)OC(CC)=O,propylpropanoate,295.0,carroll11,1
2085,C(CCC)OC(CC)=O,butylpropanoate,311.0,carroll11,1
2086,C(CC(C)C)OC(CC)=O,isopentylpropanoate,319.0,carroll11,1
2087,C(CCCC)OC(CC)=O,pentylpropanoate,326.0,carroll11,1
2088,C(CCCCC)OC(CC)=O,hexylpropanoate,338.0,carroll11,1
2089,C1(CCCCC1)OC(CC)=O,cyclohexylpropanoate,341.0,carroll11,1
2090,C(C)OC(CCC)=O,ethylbutanoate,293.0,carroll11,1
2091,C(C)(C)OC(CCC)=O,isopropylbutanoate,297.0,carroll11,1
2092,C(CC)OC(CCC)=O,propylbutanoate,308.0,carroll11,1
2093,C(C(C)C)OC(CCC)=O,isobutylbutanoate,319.0,carroll11,1
2094,C(CCC)OC(CCC)=O,butylbutanoate,322.0,carroll11,1
2095,C(CC(C)C)OC(CCC)=O,isopentylbutanoate,332.0,carroll11,1
2096,COC(CCCC)=O,methylpentanoate,295.0,carroll11,1
2097,C(C)OC(CCCC)=O,ethylpentanoate,308.0,carroll11,1
2098,COC(CCCCC)=O,methylhexanoate,314.0,carroll11,1
2099,COC(CCCCCC)=O,methylheptanoate,325.0,carroll11,1
2100,COC(CCCCCCC)=O,methyloctanoate,342.0,carroll11,1
2101,COC(C(C)C)=O,methyl2-methylpropanoate,276.0,carroll11,1
2102,C(C)OC(C(C)C)=O,ethyl2-methylpropanoate,286.0,carroll11,1
2103,COC(=O)C1CC1,methylcyclopropanecarboxylate,291.0,carroll11,1
2104,C(CC)OC(C(C)C)=O,propyl2-methylpropanoate,303.0,carroll11,1
2105,C(C(C)C)OC(C(C)C)=O,isobutyl2-methylpropanoate,311.0,carroll11,1
2106,COC(=O)C1CCCCC1,methylcyclohexanecarboxylate,333.0,carroll11,1
2107,CC1(CCC(=O)O1)C=C,4-methyl-4-vinylbutyrolactone,348.0,carroll11,1
2108,C(C)(C)OC,isopropylmethylether,226.0,carroll11,1
2109,C(C)OCC,diethylether,233.0,carroll11,1
2110,C1C(C)O1,propyleneoxide,236.0,carroll11,1
2111,C(C)(C)(C)OC,tert-butylmethylether,245.0,carroll11,1
2112,C(C(C)C)OC,isobutylmethylether,244.0,carroll11,1
2113,COC(C)CC,2-methoxybutane,244.0,carroll11,1
2114,C(C)OCCC,ethylpropylether,248.0,carroll11,1
2115,O1CCCC1,tetrahydrofuran,252.0,carroll11,1
2116,C(C)(C)OC(C)C,diisopropylether,245.0,carroll11,1
2117,C(CCC)OC,butylmethylether,263.0,carroll11,1
2118,CC1OCCC1,2-methyltetrahydrofuran,261.0,carroll11,1
2119,COC(C)(C)CC,methyltert-pentylether,266.0,carroll11,1
2120,C(CCC)OCC,butylethylether,268.0,carroll11,1
2121,C1(CCCC1)OC,cyclopentylmethylether,272.0,carroll11,1
2122,C(C)(CC)OC(C)CC,di-sec-butylether,288.0,carroll11,1
2123,C12C(CCCC1)O2,cyclohexeneoxide,297.0,carroll11,1
2124,C1(CCCCC1)OC,cyclohexylmethylether,294.0,carroll11,1
2125,C(CCC)OCCCC,dibutylether,298.0,carroll11,1
2126,C(CC(C)C)OCCC(C)C,diisopentylether,319.0,carroll11,1
2127,C(CCCC)OCCCCC,dipentylether,330.0,carroll11,1
2128,C(C)OCOCC,diethoxymethane,268.0,carroll11,1
2129,COC(C)OC,"1,1-dimethoxyethane",256.0,carroll11,1
2130,COCCOC,"1,2-dimethoxyethane",271.0,carroll11,1
2131,C(C)(C)OCC1CO1,isopropylglycidylether,306.0,carroll11,1
2132,C(C)OC(OCC)OCC,triethoxymethane,308.0,carroll11,1
2133,O1COCC1,"1,3-dioxolane",267.0,carroll11,1
2134,CC1OCCO1,"2-methyl-1,3-dioxolane",271.0,carroll11,1
2135,O1CCOCC1,"1,4-dioxane",284.0,carroll11,1
2136,C(CC)=O,propanal,246.0,carroll11,1
2137,C(CCC)=O,butanal,266.0,carroll11,1
2138,C(CCCC)=O,pentanal,281.0,carroll11,1
2139,C(CCCCC)=O,hexanal,298.0,carroll11,1
2140,C(CCCCCC)=O,heptanal,313.0,carroll11,1
2141,C(CCCCCCC)=O,octanal,324.0,carroll11,1
2142,C(CCCCCCCC)=O,nonanal,336.0,carroll11,1
2143,C(CCCCCCCCC)=O,decanal,356.0,carroll11,1
2144,C(CCCCCCCCCC)=O,undecanal,368.0,carroll11,1
2145,C(CCCCCCCCCCC)=O,dodecanal,375.0,carroll11,1
2146,CC(C=O)C,2-methylpropanal,254.0,carroll11,1
2147,CC(=O)C,acetone,253.0,carroll11,1
2148,CC(CC)=O,2-butanone,266.0,carroll11,1
2149,CC(CCCCC)=O,2-heptanone,312.0,carroll11,1
2150,CC(CCCCCC)=O,2-octanone,329.0,carroll11,1
2151,CC(CCCCCCC)=O,2-nonanone,341.0,carroll11,1
2152,CC(CCCCCCCC)=O,2-decanone,358.0,carroll11,1
2153,CC(CCCCCCCCC)=O,2-undecanone,362.0,carroll11,1
2154,CC(CCCCCCCCCC)=O,2-dodecanone,381.0,carroll11,1
2155,CCC(CC)=O,3-pentanone,280.0,carroll11,1
2156,CCC(CCC)=O,3-hexanone,296.0,carroll11,1
2157,CCC(CCCC)=O,3-heptanone,311.0,carroll11,1
2158,CCC(CCCCC)=O,3-octanone,324.0,carroll11,1
2159,CCC(CCCCCC)=O,3-nonanone,336.0,carroll11,1
2160,CCC(CCCCCCCC)=O,3-undecanone,362.0,carroll11,1
2161,CC(C(C)=O)C,3-methyl-2-butanone,272.0,carroll11,1
2162,C1(CCC1)=O,cyclobutanone,283.0,carroll11,1
2163,CC(C(C)(C)C)=O,pinacolone,278.0,carroll11,1
2164,C1(CC1)C(=O)C,cyclopropylmethylketone,286.0,carroll11,1
2165,CC(C)C(CC)=O,2-methyl-3-pentanone,289.0,carroll11,1
2166,CC(CC(C)=O)C,4-methyl-2-pentanone,287.0,carroll11,1
2167,C(C)C(C=O)CC,2-ethylbutanal,294.0,carroll11,1
2168,CC(C(C)=O)CC,3-methyl-2-pentanone,285.0,carroll11,1
2169,C1(CCCC1)=O,cyclopentanone,299.0,carroll11,1
2170,C(C)C1CC(CC1)=O,3-ethylcyclopentanone,319.0,carroll11,1
2171,C[C@@H]1CC(C[C@H]1C)=O,"trans-3,4-dimethylcyclopentanone",314.0,carroll11,1
2172,C(CCC)C1C(CCC1)=O,2-butylcyclopentanone,341.0,carroll11,1
2173,CC1CC(CC1)=O,3-methylcyclopentanone,307.0,carroll11,1
2174,CC1C(CCC1)=O,2-methylcyclopentanone,299.0,carroll11,1
2175,C(CCCC)C1C(CCC1)=O,2-pentylcyclopentanone,351.0,carroll11,1
2176,C[C@@H]1C(C[C@H](C1)C)=O,"trans-2,4-dimethylcyclopentanone",315.0,carroll11,1
2177,CC1(C(CCC1)=O)C,"2,2-dimethylcyclopentanone",306.0,carroll11,1
2178,C1(CCCC1)C1C(CCC1)=O,2-cyclopentylcyclopentanone,363.0,carroll11,1
2179,CC1C(CC(C1)(C)C)=O,"2,4,4-trimethylcyclopentanone",316.0,carroll11,1
2180,C(C)(C)(C)C1CC(CC1)=O,3-tert-butylcyclopentanone,337.0,carroll11,1
2181,C1(CCCC1)C=O,cyclopentanecarboxaldehyde,301.0,carroll11,1
2182,CC(CCC(C)=O)C,5-methyl-2-hexanone,309.0,carroll11,1
2183,C1(CCCCC1)=O,cyclohexanone,316.0,carroll11,1
2184,COC1C(CCCC1)=O,2-methoxycyclohexanone,342.0,carroll11,1
2185,CC1CC(CCC1)=O,3-methylcyclohexanone,321.0,carroll11,1
2186,C(C)C1C(CCCC1)=O,2-ethylcyclohexanone,332.0,carroll11,1
2187,C(C)(C)C1C(CCCC1)=O,2-isopropylcyclohexanone,338.0,carroll11,1
2188,CC1C(CCCC1)=O,2-methylcyclohexanone,319.0,carroll11,1
2189,CC1CCC(CC1)=O,4-methylcyclohexanone,321.0,carroll11,1
2190,C(C)C1CCC(CC1)=O,4-ethylcyclohexanone,336.0,carroll11,1
2191,C(CC)C1CCC(CC1)=O,4-propylcyclohexanone,359.0,carroll11,1
2192,C(C)(C)C1CCC(CC1)=O,4-isopropylcyclohexanone,338.0,carroll11,1
2193,CC(CC(CC)=O)CC,5-methyl-3-heptanone,316.0,carroll11,1
2194,C1(CCCCC1)C=O,cyclohexanecarboxaldehyde,314.0,carroll11,1
2195,C(C)C(C=O)CCCC,2-ethylhexanal,319.0,carroll11,1
2196,CCCC(CCCC)=O,4-octanone,318.0,carroll11,1
2197,CCCC(CCCCC)=O,4-nonanone,335.0,carroll11,1
2198,CCCC(CCCCCC)=O,4-decanone,344.0,carroll11,1
2199,CCCC(CCCCCCC)=O,4-undecanone,365.0,carroll11,1
2200,C(C(C)C)C(=O)CC(C)C,diisobutylketone,322.0,carroll11,1
2201,C1(CCCCCC1)=O,cycloheptanone,329.0,carroll11,1
2202,C(C)C1C(CCCCC1)=O,2-ethylcycloheptanone,344.0,carroll11,1
2203,CC1CCCC(CCC1)=O,5-methylcyclooctanone,344.0,carroll11,1
2204,CC1C(CCCCCC1)=O,2-methylcyclooctanone,344.0,carroll11,1
2205,CCCCC(CCCC)=O,5-nonanone,333.0,carroll11,1
2206,C(C)(C)(C)C1C(CCCC1)=O,2-tert-butylcyclohexanone,345.0,carroll11,1
2207,CC1(CC(CC(C1)(C)C)=O)C,"3,3,5,5-tetramethylcyclohexanone",346.0,carroll11,1
2208,CCCCCC(CCCCC)=O,6-undecanone,361.0,carroll11,1
2209,COC(OC)=O,dimethylcarbonate,287.0,carroll11,1
2210,C(C)OC(OCC)=O,diethylcarbonate,306.0,carroll11,1
2211,C(CC)OC(OCCC)=O,dipropylcarbonate,328.0,carroll11,1
2212,C(C=C)CCOC([O-])=O,allylethylcarbonate,319.0,carroll11,1
2213,C(C)O,ethanol,285.0,carroll11,1
2214,C(CC)O,1-propanol,296.0,carroll11,1
2215,C(CCC)O,1-butanol,307.0,carroll11,1
2216,C(CCCC)O,1-pentanol,322.0,carroll11,1
2217,C(CCCCC)O,1-hexanol,332.0,carroll11,1
2218,C(CCCCCC)O,1-heptanol,343.0,carroll11,1
2219,C(CCCCCCCC)O,1-nonanol,371.0,carroll11,1
2220,C(CCCCCCCCC)O,1-decanol,381.0,carroll11,1
2221,C(CCCCCCCCCCC)O,1-dodecanol,400.0,carroll11,1
2222,C(CCCCCCCCCC)O,1-undecanol,388.0,carroll11,1
2223,CC(C)O,2-propanol,285.0,carroll11,1
2224,CC(CC)O,2-butanol,297.0,carroll11,1
2225,CC(CCC)O,2-pentanol,307.0,carroll11,1
2226,CC(CCCC)O,2-hexanol,319.0,carroll11,1
2227,CC(CCCCC)O,2-heptanol,332.0,carroll11,1
2228,CC(CCCCCC)O,2-octanol,345.0,carroll11,1
2229,CC(CCCCCCC)O,2-nonanol,355.0,carroll11,1
2230,CC(CCCCCCCC)O,2-decanol,358.0,carroll11,1
2231,CC(CCCCCCCCC)O,2-undecanol,380.0,carroll11,1
2232,CC(CCCCCCCCCC)O,2-dodecanol,386.0,carroll11,1
2233,CCC(CC)O,3-pentanol,306.0,carroll11,1
2234,CCC(CCC)O,3-hexanol,318.0,carroll11,1
2235,CCC(CCCC)O,3-heptanol,328.0,carroll11,1
2236,CCC(CCCCCC)O,3-nonanol,352.0,carroll11,1
2237,CCC(CCCCCCC)O,3-decanol,372.0,carroll11,1
2238,CCC(CCCCC)O,3-octanol,341.0,carroll11,1
2239,C(C)(C)(C)O,tert-butylalcohol,284.0,carroll11,1
2240,CC(C)(CC)O,2-methyl-2-butanol,294.0,carroll11,1
2241,C(C=C)O,allylalcohol,295.0,carroll11,1
2242,CC(CO)C,2-methyl-1-propanol,301.0,carroll11,1
2243,CC(C(C)O)C,3-methyl-2-butanol,300.0,carroll11,1
2244,CC(C)C(CC)O,2-methyl-3-pentanol,319.0,carroll11,1
2245,CC(CO)CC,2-methyl-1-butanol,316.0,carroll11,1
2246,CC(CCO)C,3-methyl-1-butanol,316.0,carroll11,1
2247,CC(CC(C)O)C,4-methyl-2-pentanol,314.0,carroll11,1
2248,CC(C(C)O)CC,3-methyl-2-pentanol,314.0,carroll11,1
2249,C1(CCCC1)O,cyclopentanol,324.0,carroll11,1
2250,CC(CO)CCC,2-methyl-1-pentanol,324.0,carroll11,1
2251,C(C)C(CO)CC,2-ethyl-1-butanol,330.0,carroll11,1
2252,CC(CCCO)C,4-methyl-1-pentanol,324.0,carroll11,1
2253,CC(CCO)CC,3-methyl-1-pentanol,331.0,carroll11,1
2254,C1(CCCCC1)O,cyclohexanol,336.0,carroll11,1
2255,C1(CCCC1)CO,cyclopentylmethanol,335.0,carroll11,1
2256,C[C@@H]1[C@@H](CCCC1)O,cis-2-methylcyclohexanol,332.0,carroll11,1
2257,C[C@H]1[C@@H](CCCC1)O,trans-2-methylcyclohexanol,332.0,carroll11,1
2258,C[C@@H]1CC[C@H](CC1)O,trans-4-methylcyclohexanol,343.0,carroll11,1
2259,C(C)C(CO)CCCC,2-ethyl-1-hexanol,347.0,carroll11,1
2260,C1(CCCCCC1)O,cycloheptanol,344.0,carroll11,1
2261,CC(CCO)CC(C)(C)C,"3,5,5-trimethyl-1-hexanol",353.0,carroll11,1
2262,CC(C(C)O)O,"2,3-butanediol",358.0,carroll11,1
2263,C(C(C)O)O,"1,2-propanediol",372.0,carroll11,1
2264,C(C(CC)O)O,"1,2-butanediol",366.0,carroll11,1
2265,C(CO)O,"1,2-ethanediol",381.0,carroll11,1
2266,C(C(CCC)O)O,"1,2-pentanediol",378.0,carroll11,1
2267,C(CC(C)O)O,"1,3-butanediol",382.0,carroll11,1
2268,C(C(CCCC)O)O,"1,2-hexanediol",395.0,carroll11,1
2269,C(CCCO)O,"1,4-butanediol",394.0,carroll11,1
2270,C(CCCCO)O,"1,5-pentanediol",402.0,carroll11,1
2271,C1(CCCCCCC1)O,cyclooctanol,361.0,carroll11,1
2272,C(C)(=O)O,aceticacid,313.0,carroll11,1
2273,C(CC)(=O)O,propionicacid,331.0,carroll11,1
2274,C(CCC)(=O)O,butanoicacid,342.0,carroll11,1
2275,C(CCCC)(=O)O,pentanoicacid,358.0,carroll11,1
2276,C(CCCCC)(=O)O,hexanoicacid,375.0,carroll11,1
2277,C(CCCCCC)(=O)O,heptanoicacid,382.0,carroll11,1
2278,CC(C(=O)O)C,2-methylpropanoicacid,332.0,carroll11,1
2279,CC(CC(=O)O)C,3-methylbutanoicacid,347.0,carroll11,1
2280,CC(C(=O)O)CC,2-methylbutanoicacid,350.0,carroll11,1
2281,C(C)C(C(=O)O)CC,2-ethylbutanoicacid,360.0,carroll11,1
2282,CC(CC(=O)O)(C)C,"3,3-dimethylbutanoicacid",361.0,carroll11,1
2283,CC(CCC(=O)O)C,4-methylpentanoicacid,370.0,carroll11,1
2284,CC(C(=O)O)CCC,2-methylpentanoicacid,364.0,carroll11,1