,smiles,compound,flashpoint,source,pure substance
0,CC(CN)O,1-aminopropan-2-ol,350.15,pubchem,1
1,C1=CC(=C(C=C1[N+](=O)[O-])[N+](=O)[O-])Cl,"1-chloro-2,4-dinitrobenzene",467.15,pubchem,1
2,C(CCl)Cl,"1,2-dichloroethane",286.15,pubchem,1
3,C1=CC(=C(C=C1Cl)Cl)Cl,"1,2,4-trichlorobenzene",383.15,pubchem,1
4,C(C=O)Cl,2-chloroacetaldehyde,361.15,pubchem,1
5,C(CCl)O,2-chloroethanol,333.15,pubchem,1
6,C(CO)O,"ethane-1,2-diol",384.15,pubchem,1
7,CC(=O)O,acetic acid,313.15,pubchem,1
8,CC=O,acetaldehyde,233.15,pubchem,1
9,CC(C(=O)C)O,3-hydroxybutan-2-one,314.15,pubchem,1
10,CC(=O)C,propan-2-one,255.15,pubchem,1
11,C(CCC(=O)O)CC(=O)O,hexanedioic acid,464.15,pubchem,1
12,N,azane,405.15,pubchem,1
13,C1=CC=C(C(=C1)C(=O)O)N,2-aminobenzoic acid,444.15,pubchem,1
14,C1=CC=C(C=C1)C=O,benzaldehyde,337.15,pubchem,1
15,C1=CC=CC=C1,benzene,262.15,pubchem,1
16,C1=CC=C(C=C1)C(=O)[O-],benzoate,394.15,pubchem,1
17,C1=CC=C(C=C1)C(=O)O,benzoic acid,394.15,pubchem,1
18,C1=CC=C(C=C1)CO,phenylmethanol,374.15,pubchem,1
19,CCCC=O,butanal,266.15,pubchem,1
20,CC(C(C)O)O,"butane-2,3-diol",358.15,pubchem,1
21,CCCCO,butan-1-ol,302.15,pubchem,1
22,CCCC(=O)O,butanoic acid,350.15,pubchem,1
23,C(CCN)CCN,"pentane-1,5-diamine",335.15,pubchem,1
24,C(=O)O,formic acid,342.15,pubchem,1
25,C1=CC=C(C(=C1)O)O,"benzene-1,2-diol",400.15,pubchem,1
26,C,methane,85.14999999999998,pubchem,1
27,C(C(=O)O)Cl,2-chloroacetic acid,423.15,pubchem,1
28,C1=CC=C(C=C1)C=CC=O,3-phenylprop-2-enal,393.15,pubchem,1
29,C1=CC=C(C=C1)C=CCO,3-phenylprop-2-en-1-ol,399.15,pubchem,1
30,C(C(=O)O)C(CC(=O)O)(C(=O)O)O,"2-hydroxypropane-1,2,3-tricarboxylic acid",373.15,pubchem,1
31,C1=CC=C2C(=C1)C=CC(=O)O2,chromen-2-one,424.15,pubchem,1
32,CC1=CC=CC=C1O,2-methylphenol,354.15,pubchem,1
33,C1=CC=C(C(=C1)C(=O)O)O,2-hydroxybenzoic acid,430.15,pubchem,1
34,CC1=CC(=CC=C1)O,3-methylphenol,359.15,pubchem,1
35,CCCCCCCC,octane,286.15,pubchem,1
36,CCCCCCCC(=O)O,octanoic acid,383.15,pubchem,1
37,CC(C)[N+](=O)[O-],2-nitropropane,297.15,pubchem,1
38,S,sulfane,480.15,pubchem,1
39,C1=CC(=CC=C1N)O,4-aminophenol,468.15,pubchem,1
40,C(CN)CN,"propane-1,3-diamine",297.15,pubchem,1
41,CCCCCCCC=O,octanal,325.15,pubchem,1
42,COC1=CC=CC=C1O,2-methoxyphenol,347.15,pubchem,1
43,CCC=O,propanal,264.15,pubchem,1
44,CC(C(=O)O)O,2-hydroxypropanoic acid,386.15,pubchem,1
45,CC(=O)C(=O)C,"butane-2,3-dione",300.15,pubchem,1
46,C1CC(=O)OC2=CC=CC=C21,"3,4-dihydrochromen-2-one",403.15,pubchem,1
47,CNC,N-methylmethanamine,266.15,pubchem,1
48,CS(=O)C,methylsulfinylmethane,368.15,pubchem,1
49,C(CO)N,2-aminoethanol,366.15,pubchem,1
50,CCO,ethanol,286.15,pubchem,1
51,C=O,formaldehyde,333.15,pubchem,1
52,C(=O)N,formamide,427.15,pubchem,1
53,C(C(CO)O)O,"propane-1,2,3-triol",433.15,pubchem,1
54,C#N,formonitrile,255.15,pubchem,1
55,C1=CC(=CC=C1O)O,"benzene-1,4-diol",438.15,pubchem,1
56,NO,hydroxylamine,402.15,pubchem,1
57,C1=CN=CN1,1H-imidazole,418.15,pubchem,1
58,C(C(C(=O)O)O)(C(=O)O)O,"2,3-dihydroxybutanedioic acid",483.15,pubchem,1
59,CS,methanethiol,255.15,pubchem,1
60,CO,methanol,284.15,pubchem,1
61,CC(=O)NC1=CC=CC=C1,N-phenylacetamide,447.15,pubchem,1
62,C1=CC=C2C=CC=CC2=C1,naphthalene,361.15,pubchem,1
63,C1=CC(=CN=C1)C(=O)N,pyridine-3-carboxamide,455.15,pubchem,1
64,C1=CC(=CN=C1)C(=O)O,pyridine-3-carboxylic acid,466.15,pubchem,1
65,CN1CCCC1C2=CN=CC=C2,3-(1-methylpyrrolidin-2-yl)pyridine,374.15,pubchem,1
66,CN(C)C1=CC=CC=C1,"N,N-dimethylaniline",336.15,pubchem,1
67,CCCCCCCCO,octan-1-ol,354.15,pubchem,1
68,C1=CC(=CC=C1[N+](=O)[O-])O,4-nitrophenol,465.15,pubchem,1
69,CCOP(=S)(OCC)OC1=CC=C(C=C1)[N+](=O)[O-],diethoxy-(4-nitrophenoxy)-sulfanylidene-λ5-phosphane,393.15,pubchem,1
70,C1=CC=C2C(=C1)C=CC3=CC=CC=C32,phenanthrene,444.15,pubchem,1
71,C1=CC=C(C=C1)O,phenol,352.15,pubchem,1
72,C1=CC=C(C=C1)CC(=O)O,2-phenylacetic acid,405.15,pubchem,1
73,C1=CC=C(C(=C1)C(=O)O)C(=O)O,phthalic acid,441.15,pubchem,1
74,CC(CO)O,"propane-1,2-diol",372.15,pubchem,1
75,CCCO,propan-1-ol,298.15,pubchem,1
76,CCC(=O)O,propanoic acid,327.15,pubchem,1
77,C1=CC=NC=C1,pyridine,293.15,pubchem,1
78,CSC,methylsulfanylmethane,235.15,pubchem,1
79,C(CC(=O)O)C(=O)O,butanedioic acid,433.15,pubchem,1
80,C1CCSC1,thiolane,286.15,pubchem,1
81,C(C(=O)O)S,2-sulfanylacetic acid,386.15,pubchem,1
82,CC1=CC=CC=C1,toluene,277.15,pubchem,1
83,COC1=C(C=CC(=C1)C=O)O,4-hydroxy-3-methoxybenzaldehyde,426.15,pubchem,1
84,CC(CC1=CC=CC=C1)NC,N-methyl-1-phenylpropan-2-amine,282.15,pubchem,1
85,CC1CCC(C(C1)O)C(C)C,5-methyl-2-propan-2-ylcyclohexan-1-ol,364.15,pubchem,1
86,C(CS)O,2-sulfanylethanol,347.15,pubchem,1
87,C1=CN=CC=C1N,pyridin-4-amine,437.15,pubchem,1
88,CC1=C(C=CC(=C1)O)Cl,4-chloro-3-methylphenol,383.15,pubchem,1
89,CCCCCCCCCC1=CC=C(C=C1)O,4-nonylphenol,386.15,pubchem,1
90,CCC1=C(C(=CC=C1)CC)N(COC)C(=O)CCl,"2-chloro-N-(2,6-diethylphenyl)-N-(methoxymethyl)acetamide",410.15,pubchem,1
91,CC(=O)OC1=CC=CC=C1C(=O)O,2-acetyloxybenzoic acid,523.15,pubchem,1
92,C(CCCC(=O)O)CCCC(=O)O,nonanedioic acid,483.15,pubchem,1
93,C1=CC=C(C=C1)COC(=O)C2=CC=CC=C2,benzyl benzoate,421.15,pubchem,1
94,CCCCOC(=O)C1=CC=CC=C1C(=O)OCC2=CC=CC=C2,"2-O-benzyl 1-O-butyl benzene-1,2-dicarboxylate",472.15,pubchem,1
95,C1COC1=O,oxetan-2-one,343.15,pubchem,1
96,C(C(CO)([N+](=O)[O-])Br)O,"2-bromo-2-nitropropane-1,3-diol",440.15,pubchem,1
97,CC1(C2CCC1(C(=O)C2)C)C,"1,7,7-trimethylbicyclo[2.2.1]heptan-2-one",339.15,pubchem,1
98,CCOP(=S)(OCC)OC1=NC(=C(C=C1Cl)Cl)Cl,"diethoxy-sulfanylidene-(3,5,6-trichloropyridin-2-yl)oxy-λ5-phosphane",301.15,pubchem,1
99,CC1(C2CCC(O1)(CC2)C)C,"1,3,3-trimethyl-2-oxabicyclo[2.2.2]octane",322.15,pubchem,1
100,CC1=CC=C(C=C1)O,4-methylphenol,359.15,pubchem,1
101,C1CNP(=O)(OC1)N(CCCl)CCCl,"N,N-bis(2-chloroethyl)-2-oxo-1,3,2λ5-oxazaphosphinan-2-amine",386.15,pubchem,1
102,CCCCCCCCCC(=O)O,decanoic acid,386.15,pubchem,1
103,CC(CC1=CC=CC=C1)N,1-phenylpropan-2-amine,300.15,pubchem,1
104,CCCCOC(=O)C1=CC=CC=C1C(=O)OCCCC,"dibutyl benzene-1,2-dicarboxylate",430.15,pubchem,1
105,C1C2C3C(C1C4C2O4)C5(C(=C(C3(C5(Cl)Cl)Cl)Cl)Cl)Cl,"3,4,5,6,13,13-hexachloro-10-oxapentacyclo[6.3.1.13,6.02,7.09,11]tridec-4-ene",300.15,pubchem,1
106,CNC(=O)CSP(=S)(OC)OC,2-dimethoxyphosphinothioylsulfanyl-N-methylacetamide,324.15,pubchem,1
107,CCCC(CCC)C(=O)O,2-propylpentanoic acid,384.15,pubchem,1
108,CCOCC,ethoxyethane,228.15,pubchem,1
109,CCOP(=S)(OCC)SCSP(=S)(OCC)OCC,diethoxyphosphinothioylsulfanylmethylsulfanyl-diethoxy-sulfanylidene-λ5-phosphane,449.15,pubchem,1
110,CCOC1=CC2=C(C=C1)NC(C=C2C)(C)C,"6-ethoxy-2,2,4-trimethyl-1H-quinoline",380.15,pubchem,1
111,C(CN)N,"ethane-1,2-diamine",307.15,pubchem,1
112,COC1=C(C=CC(=C1)CC=C)O,2-methoxy-4-prop-2-enylphenol,377.15,pubchem,1
113,CC1=C(C=CC(=C1)OP(=S)(OC)OC)SC,dimethoxy-(3-methyl-4-methylsulfanylphenoxy)-sulfanylidene-λ5-phosphane,443.15,pubchem,1
114,C1=COC(=C1)CN,furan-2-ylmethanamine,310.15,pubchem,1
115,C1=C(C(=C(C(=C1Cl)Cl)CC2=C(C(=CC(=C2Cl)Cl)Cl)O)O)Cl,"3,4,6-trichloro-2-[(2,3,5-trichloro-6-hydroxyphenyl)methyl]phenol",319.15,pubchem,1
116,C1=CN=CC=C1C(=O)NN,pyridine-4-carbohydrazide,463.15,pubchem,1
117,CC(C)O,propan-2-ol,285.15,pubchem,1
118,CCCCCCCCCCCC(=O)O,dodecanoic acid,386.15,pubchem,1
119,CC(=C)C(=O)O,2-methylprop-2-enoic acid,350.15,pubchem,1
120,C1N2CN3CN1CN(C2)C3,"1,3,5,7-tetrazatricyclo[3.3.1.13,7]decane",523.15,pubchem,1
121,COC(C(Cl)Cl)(F)F,"2,2-dichloro-1,1-difluoro-1-methoxyethane",336.15,pubchem,1
122,COC(=O)C1=CC=CC=C1O,methyl 2-hydroxybenzoate,369.15,pubchem,1
123,COS(=O)(=O)C,methyl methanesulfonate,377.15,pubchem,1
124,CCN(CC)C(=O)C1=CC(=CC=C1)C,"N,N-diethyl-3-methylbenzamide",428.15,pubchem,1
125,COC1=CC(=C(C=C1)C(=O)C2=CC=CC=C2)O,(2-hydroxy-4-methoxyphenyl)-phenylmethanone,373.15,pubchem,1
126,C1=CC(=O)C=CC1=O,"cyclohexa-2,5-diene-1,4-dione",566.15,pubchem,1
127,C1=CC(=CC=C1O)Cl,4-chlorophenol,394.15,pubchem,1
128,C1=CC(=CC=C1Cl)Cl,"1,4-dichlorobenzene",339.15,pubchem,1
129,C1=CC(=CC=C1C(=N)N)OCCCCCOC2=CC=C(C=C2)C(=N)N,4-[5-(4-carbamimidoylphenoxy)pentoxy]benzenecarboximidamide,376.15,pubchem,1
130,CCC1(C(=O)NC(=O)NC1=O)C2=CC=CC=C2,"5-ethyl-5-phenyl-1,3-diazinane-2,4,6-trione",447.15,pubchem,1
131,CCOP(=S)(OCC)SCSCC,diethoxy-(ethylsulfanylmethylsulfanyl)-sulfanylidene-λ5-phosphane,433.15,pubchem,1
132,CCCCCCCCCCCCCC(=O)OC1C(C2(C(C=C(CC3(C2C=C(C3=O)C)O)CO)C4C1(C4(C)C)OC(=O)C)O)C,"[13-acetyloxy-1,6-dihydroxy-8-(hydroxymethyl)-4,12,12,15-tetramethyl-5-oxo-14-tetracyclo[8.5.0.02,6.011,13]pentadeca-3,8-dienyl] tetradecanoate",310.15,pubchem,1
133,CCOP(=S)(OCC)SCN1C2=C(C=C(C=C2)Cl)OC1=O,"6-chloro-3-(diethoxyphosphinothioylsulfanylmethyl)-1,3-benzoxazol-2-one",373.15,pubchem,1
134,C1CNCCN1,piperazine,361.15,pubchem,1
135,CCCNCC(COC1=CC=CC=C1C(=O)CCC2=CC=CC=C2)O,1-[2-[2-hydroxy-3-(propylamino)propoxy]phenyl]-3-phenylpropan-1-one,472.15,pubchem,1
136,CC(C)(C)C1=CC=C(C=C1)OC2CCCCC2OS(=O)OCC#C,[2-(4-tert-butylphenoxy)cyclohexyl] prop-2-ynyl sulfite,301.15,pubchem,1
137,CCCOC(=O)C1=CC(=C(C(=C1)O)O)O,"propyl 3,4,5-trihydroxybenzoate",460.15,pubchem,1
138,C1CN(CCN1CCOCCO)C2=NC3=CC=CC=C3SC4=CC=CC=C42,"2-[2-(4-benzo[b][1,4]benzothiazepin-6-ylpiperazin-1-yl)ethoxy]ethanol",282.15,pubchem,1
139,C1=CC(=CC(=C1)O)O,"benzene-1,3-diol",400.15,pubchem,1
140,CC(CO)N,2-aminopropan-1-ol,336.15,pubchem,1
141,C=CCC1=CC2=C(C=C1)OCO2,"5-prop-2-enyl-1,3-benzodioxole",371.15,pubchem,1
142,C(CCCCC(=O)O)CCCC(=O)O,decanedioic acid,493.15,pubchem,1
143,CC=CC=CC(=O)O,"hexa-2,4-dienoic acid",400.15,pubchem,1
144,CCCCCCCCCCCCCCCCCC(=O)O,octadecanoic acid,469.15,pubchem,1
145,C(CSCCO)O,2-(2-hydroxyethylsulfanyl)ethanol,386.15,pubchem,1
146,CN(C)C(=S)SSC(=S)N(C)C,"dimethylcarbamothioylsulfanyl N,N-dimethylcarbamodithioate",411.15,pubchem,1
147,CCN(CC)C(=O)C1=CN=CC=C1,"N,N-diethylpyridine-3-carboxamide",386.15,pubchem,1
148,CC(=O)OCC(COC(=O)C)OC(=O)C,"2,3-diacetyloxypropyl acetate",411.15,pubchem,1
149,CC(C)N(C(C)C)C(=O)SCC(=C(Cl)Cl)Cl,"S-(2,3,3-trichloroprop-2-enyl) N,N-di(propan-2-yl)carbamothioate",363.15,pubchem,1
150,C(CNCCNCCN)N,"N'-[2-(2-aminoethylamino)ethyl]ethane-1,2-diamine",408.15,pubchem,1
151,CCOC(=O)N,ethyl carbamate,365.15,pubchem,1
152,C(C(C(C(C(CO)O)O)O)O)O,"(2R,3R,4R,5S)-hexane-1,2,3,4,5,6-hexol",556.15,pubchem,1
153,CCCCOCCOCCOCC1=CC2=C(C=C1CCC)OCO2,"5-[2-(2-butoxyethoxy)ethoxymethyl]-6-propyl-1,3-benzodioxole",444.15,pubchem,1
154,C1=CC=C(C(=C1)N)O,2-aminophenol,441.15,pubchem,1
155,CCN(CC)N=O,"N,N-diethylnitrous amide",336.15,pubchem,1
156,C(CN)CNCCCN,"N'-(3-aminopropyl)propane-1,3-diamine",352.15,pubchem,1
157,C=CCN=C=S,3-isothiocyanatoprop-1-ene,319.15,pubchem,1
158,CN(C)N,"1,1-dimethylhydrazine",258.15,pubchem,1
159,C1C2C(C(C1Cl)Cl)C3(C(=C(C2(C3(Cl)Cl)Cl)Cl)Cl)Cl,"1,3,4,7,8,9,10,10-octachlorotricyclo[5.2.1.02,6]dec-8-ene",380.15,pubchem,1
160,CC1=C2C=CC3=CC=CC=C3C2=C(C4=CC=CC=C14)C,"7,12-dimethylbenzo[a]anthracene",359.15,pubchem,1
161,CC12CCC(=O)C=C1CCC3C2CCC4(C3CCC4(C)O)C,"(8R,9S,10R,13S,14S,17S)-17-hydroxy-10,13,17-trimethyl-2,6,7,8,9,11,12,14,15,16-decahydro-1H-cyclopenta[a]phenanthren-3-one",278.15,pubchem,1
162,C1=C(C(=C(C(=C1Cl)Cl)Cl)O)Cl,"2,3,4,6-tetrachlorophenol",373.15,pubchem,1
163,CCCC(=O)OCC(COC(=O)CCC)OC(=O)CCC,"2,3-di(butanoyloxy)propyl butanoate",629.15,pubchem,1
164,C1=CC=C(C=C1)CCO,2-phenylethanol,369.15,pubchem,1
165,CNN,methylhydrazine,343.15,pubchem,1
166,CC1=CC=C(C=C1)S(=O)(=O)O,4-methylbenzenesulfonic acid,457.15,pubchem,1
167,C1=CC(=CC=C1C(=O)O)[N+](=O)[O-],4-nitrobenzoic acid,475.15,pubchem,1
168,CCOS(=O)(=O)C,ethyl methanesulfonate,373.15,pubchem,1
169,C1=CC=C(C=C1)N,aniline,343.15,pubchem,1
170,CN(C)N=O,"N,N-dimethylnitrous amide",334.15,pubchem,1
171,CCOS(=O)(=O)OCC,diethyl sulfate,377.15,pubchem,1
172,CCCCCC=O,hexanal,305.15,pubchem,1
173,C(C(=O)O)Br,2-bromoacetic acid,386.15,pubchem,1
174,CN(C)C=O,"N,N-dimethylformamide",340.15,pubchem,1
175,CC1=CC=C(C=C1)S(=O)(=O)N,4-methylbenzenesulfonamide,475.15,pubchem,1
176,CCCCCO,pentan-1-ol,306.15,pubchem,1
177,C1=CC(=CC=C1C(=O)O)Cl,4-chlorobenzoic acid,511.15,pubchem,1
178,C1=CC=C(C=C1)NC2=CC=C(C=C2)NC3=CC=CC=C3,"1-N,4-N-diphenylbenzene-1,4-diamine",477.15,pubchem,1
179,CC,ethane,138.14999999999998,pubchem,1
180,C=C,ethene,137.14999999999998,pubchem,1
181,C#C,acetylene,255.15,pubchem,1
182,CCl,chloromethane,228.15,pubchem,1
183,CN,methanamine,273.15,pubchem,1
184,CCBr,bromoethane,250.15,pubchem,1
185,CCC,propane,169.14999999999995,pubchem,1
186,CCCl,chloroethane,223.15,pubchem,1
187,C=CCl,chloroethene,194.15,pubchem,1
188,CCI,iodoethane,334.15,pubchem,1
189,CC#N,acetonitrile,279.15,pubchem,1
190,C(=S)=S,methanedithione,243.15,pubchem,1
191,C1CO1,oxirane,255.15,pubchem,1
192,CC(C)Br,2-bromopropane,344.15,pubchem,1
193,CC(C)C,2-methylpropane,190.15,pubchem,1
194,CC(C)Cl,2-chloropropane,241.15,pubchem,1
195,CC(C)N,propan-2-amine,236.15,pubchem,1
196,CC(C)S,propane-2-thiol,239.15,pubchem,1
197,CC(Cl)Cl,"1,1-dichloroethane",267.15,pubchem,1
198,C=C(Cl)Cl,"1,1-dichloroethene",263.15,pubchem,1
199,CC(=O)Cl,acetyl chloride,277.15,pubchem,1
200,C[N+](=O)[O-],nitromethane,308.15,pubchem,1
201,CC1CN1,2-methylaziridine,269.15,pubchem,1
202,CC1CO1,2-methyloxirane,236.15,pubchem,1
203,CC(C)(C)N,2-methylpropan-2-amine,283.15,pubchem,1
204,CC(C)(C)O,2-methylpropan-2-ol,284.15,pubchem,1
205,C[Pb](C)(C)C,tetramethylplumbane,311.15,pubchem,1
206,CS(=O)(=O)O,methanesulfonic acid,462.15,pubchem,1
207,C[Si](C)(C)C,tetramethylsilane,246.15,pubchem,1
208,C[Si](C)(C)Cl,chloro(trimethyl)silane,255.15,pubchem,1
209,C[Si](C)(Cl)Cl,dichloro(dimethyl)silane,264.15,pubchem,1
210,C[Si](Cl)(Cl)Cl,trichloro(methyl)silane,264.15,pubchem,1
211,CCC(C)(C)C,"2,2-dimethylbutane",225.15,pubchem,1
212,CC(C)(C)CO,"2,2-dimethylpropan-1-ol",310.15,pubchem,1
213,CCC(C)(C)O,2-methylbutan-2-ol,292.15,pubchem,1
214,CC(C)(C#N)O,2-hydroxy-2-methylpropanenitrile,347.15,pubchem,1
215,C(=O)C(Cl)(Cl)Cl,"2,2,2-trichloroacetaldehyde",348.15,pubchem,1
216,CC(C)(C)OO,2-hydroperoxy-2-methylpropane,300.15,pubchem,1
217,C=C[Si](Cl)(Cl)Cl,trichloro(ethenyl)silane,294.15,pubchem,1
218,CC(=O)C(C)(C)C,"3,3-dimethylbutan-2-one",278.15,pubchem,1
219,CC(C)(C)C(=O)O,"2,2-dimethylpropanoic acid",337.15,pubchem,1
220,CC(=O)OC1CC2CCC1(C2(C)C)C,"(1,7,7-trimethyl-2-bicyclo[2.2.1]heptanyl) acetate",361.15,pubchem,1
221,CC(C)C(C(C)(C)COC(=O)C(C)C)O,"(3-hydroxy-2,2,4-trimethylpentyl) 2-methylpropanoate",393.15,pubchem,1
222,C1C=CC2C1C3CC2C=C3,"tricyclo[5.2.1.02,6]deca-3,8-diene",305.15,pubchem,1
223,C=CS(=O)(=O)C=C,1-ethenylsulfonylethene,376.15,pubchem,1
224,COS(=O)(=O)OC,dimethyl sulfate,356.15,pubchem,1
225,C1C=CCS1(=O)=O,"2,5-dihydrothiophene 1,1-dioxide",386.15,pubchem,1
226,CCOP(=O)(C#N)N(C)C,[dimethylamino(ethoxy)phosphoryl]formonitrile,351.15,pubchem,1
227,CCCCOC(=O)CC(CC(=O)OCCCC)(C(=O)OCCCC)OC(=O)C,"tributyl 2-acetyloxypropane-1,2,3-tricarboxylate",386.15,pubchem,1
228,CCOC(=O)CC(CC(=O)OCC)(C(=O)OCC)O,"triethyl 2-hydroxypropane-1,2,3-tricarboxylate",428.15,pubchem,1
229,CCC(CO)(CO)CO,"2-ethyl-2-(hydroxymethyl)propane-1,3-diol",445.15,pubchem,1
230,CC[Pb](CC)(CC)CC,tetraethylplumbane,366.15,pubchem,1
231,CCO[Si](OCC)(OCC)OCC,tetraethyl silicate,310.15,pubchem,1
232,C1CCC(CC1)(O)OOC2(CCCCC2)OO,1-(1-hydroperoxycyclohexyl)peroxycyclohexan-1-ol,430.15,pubchem,1
233,CC1=CC=CC=C1OP(=O)(OC2=CC=CC=C2C)OC3=CC=CC=C3C,tris(2-methylphenyl) phosphate,498.15,pubchem,1
234,CC1=CC=C(C=C1)OP(=O)(OC2=CC=C(C=C2)C)OC3=CC=C(C=C3)C,tris(4-methylphenyl) phosphate,483.15,pubchem,1
235,CCOP(=O)(CC)OCC,1-[ethoxy(ethyl)phosphoryl]oxyethane,377.15,pubchem,1
236,CCOP(=O)(OCC)OCC,triethyl phosphate,389.15,pubchem,1
237,CCCCC(CC)COP(=O)(OCC(CC)CCCC)OCC(CC)CCCC,tris(2-ethylhexyl) phosphate,425.15,pubchem,1
238,CCCCOP(=O)(CCCC)OCCCC,1-[butoxy(butyl)phosphoryl]oxybutane,427.15,pubchem,1
239,CCCCOCCOP(=O)(OCCOCCCC)OCCOCCCC,tris(2-butoxyethyl) phosphate,497.15,pubchem,1
240,CC1=CC(=O)CC(C1)(C)C,"3,5,5-trimethylcyclohex-2-en-1-one",357.15,pubchem,1
241,CC(C)(C)OOC(C)(C)CCC(C)(C)OOC(C)(C)C,"2,5-bis(tert-butylperoxy)-2,5-dimethylhexane",358.15,pubchem,1
242,CC(=CCCC(C)(C=C)O)C,"3,7-dimethylocta-1,6-dien-3-ol",351.15,pubchem,1
243,CCC(C)Br,2-bromobutane,294.15,pubchem,1
244,CCC(C)C,2-methylbutane,216.15,pubchem,1
245,CC(=C)C=C,"2-methylbuta-1,3-diene",219.15,pubchem,1
246,CC(C)CN,2-methylpropan-1-amine,264.15,pubchem,1
247,CC(C)C#N,2-methylpropanenitrile,281.15,pubchem,1
248,CC(C)CO,2-methylpropan-1-ol,301.15,pubchem,1
249,CC(C)C=O,2-methylpropanal,233.15,pubchem,1
250,CC(=C)C=O,2-methylprop-2-enal,275.15,pubchem,1
251,CC(CCl)Cl,"1,2-dichloropropane",289.15,pubchem,1
252,C=C(CCl)Cl,"2,3-dichloroprop-1-ene",283.15,pubchem,1
253,CC(CO)Cl,2-chloropropan-1-ol,325.15,pubchem,1
254,CC(CN)N,"propane-1,2-diamine",306.15,pubchem,1
255,CCC(C)O,butan-2-ol,297.15,pubchem,1
256,CCC(=O)C,butan-2-one,270.15,pubchem,1
257,CC(=O)C=C,but-3-en-2-one,266.15,pubchem,1
258,CC(=O)CCl,1-chloropropan-2-one,313.15,pubchem,1
259,CC(C#N)O,2-hydroxypropanenitrile,350.15,pubchem,1
260,CCC(Cl)Cl,"1,1-dichloropropane",294.15,pubchem,1
261,C(=O)C(Cl)Cl,"2,2-dichloroacetaldehyde",333.15,pubchem,1
262,C(C(=O)Cl)Cl,2-chloroacetyl chloride,373.15,pubchem,1
263,C=CC(=O)N,prop-2-enamide,411.15,pubchem,1
264,C(C(=O)N)Cl,2-chloroacetamide,443.15,pubchem,1
265,C=CC(=O)O,prop-2-enoic acid,327.15,pubchem,1
266,CC(=O)NC,N-methylacetamide,381.15,pubchem,1
267,CC(=O)OC,methyl acetate,263.15,pubchem,1
268,CC(=O)OO,ethaneperoxoic acid,314.15,pubchem,1
269,COC(=O)Cl,methyl carbonochloridate,285.15,pubchem,1
270,CC[N+](=O)[O-],1-nitroethane,314.15,pubchem,1
271,C(C(Br)Br)(Br)Br,"1,1,2,2-tetrabromoethane",608.15,pubchem,1
272,CC(C)C(C)C,"2,3-dimethylbutane",244.15,pubchem,1
273,CC(C)C(=O)O,2-methylpropanoic acid,329.15,pubchem,1
274,C(C(=O)Cl)(Cl)Cl,"2,2-dichloroacetyl chloride",339.15,pubchem,1
275,C(=C(F)Cl)(F)F,"1-chloro-1,2,2-trifluoroethene",246.15,pubchem,1
276,CN(C)C(=O)Cl,"N,N-dimethylcarbamoyl chloride",341.15,pubchem,1
277,CC1(C2CCC(C2)C1=C)C,"2,2-dimethyl-3-methylidenebicyclo[2.2.1]heptane",306.15,pubchem,1
278,CC(C)(C1=CC=C(C=C1)O)C2=CC=C(C=C2)O,4-[2-(4-hydroxyphenyl)propan-2-yl]phenol,352.15,pubchem,1
279,C1=CC=C(C=C1)[Si](C2=CC=CC=C2)(Cl)Cl,dichloro(diphenyl)silane,415.15,pubchem,1
280,CC(C)(C1=CC=CC=C1)OO,2-hydroperoxypropan-2-ylbenzene,330.15,pubchem,1
281,CCOS(=O)(=O)C1=CC=C(C=C1)C,ethyl 4-methylbenzenesulfonate,431.15,pubchem,1
282,CCC(C)(C)C1=CC=C(C=C1)O,4-(2-methylbutan-2-yl)phenol,384.15,pubchem,1
283,CC1CCC(CC1)C(C)(C)OO,1-(2-hydroperoxypropan-2-yl)-4-methylcyclohexane,326.15,pubchem,1
284,CC1=CC=C(C=C1)S(=O)(=O)OC,methyl 4-methylbenzenesulfonate,425.15,pubchem,1
285,CC1(CCC(CC1)C(C)(C)N)N,4-(2-aminopropan-2-yl)-1-methylcyclohexan-1-amine,366.15,pubchem,1
286,CC1=CCC2CC1C2(C)C,"2,6,6-trimethylbicyclo[3.1.1]hept-2-ene",306.15,pubchem,1
287,CC(=C)C(=O)OC,methyl 2-methylprop-2-enoate,283.15,pubchem,1
288,CC1=C(C(=CC=C1)C)[N+](=O)[O-],"1,3-dimethyl-2-nitrobenzene",361.15,pubchem,1
289,C1=CC2=C3C(=C1)C(=O)OC(=O)C3=CC=C2,"3-oxatricyclo[7.3.1.05,13]trideca-1(12),5,7,9(13),10-pentaene-2,4-dione",545.15,pubchem,1
290,C1(=C(C(=C(C(=C1Cl)Cl)Cl)Cl)Cl)[N+](=O)[O-],"1,2,3,4,5-pentachloro-6-nitrobenzene",400.15,pubchem,1
291,C1CC2=CC=CC3=C2C1=CC=C3,"1,2-dihydroacenaphthylene",398.15,pubchem,1
292,C1=CC(=C(C(=C1)Cl)C=O)Cl,"2,6-dichlorobenzaldehyde",408.15,pubchem,1
293,CC1=C(C(=CC=C1)[N+](=O)[O-])C,"1,2-dimethyl-3-nitrobenzene",380.15,pubchem,1
294,C1=CC2=C(C=CC=C2O)C(=C1)O,"naphthalene-1,5-diol",525.15,pubchem,1
295,C1=CC=C(C=C1)C2=CC=CC=C2C3=CC=CC=C3,"1,2-diphenylbenzene",436.15,pubchem,1
296,C1CCC(CC1)OC(=O)C2=CC=CC=C2C(=O)OC3CCCCC3,"dicyclohexyl benzene-1,2-dicarboxylate",480.15,pubchem,1
297,C1=CC=C2C(=C1)C(=O)C3=CC=CC=C3C2=O,"anthracene-9,10-dione",458.15,pubchem,1
298,CCOC(=O)C1=CC=CC=C1C(=O)OCC,"diethyl benzene-1,2-dicarboxylate",413.15,pubchem,1
299,CC(C)COC(=O)C1=CC=CC=C1C(=O)OCC(C)C,"bis(2-methylpropyl) benzene-1,2-dicarboxylate",469.15,pubchem,1
300,CCCCCCOC(=O)C1=CC=CC=C1C(=O)OCCCCCC,"dihexyl benzene-1,2-dicarboxylate",450.15,pubchem,1
301,CCCCCCCCCOC(=O)C1=CC=CC=C1C(=O)OCCCCCCCCC,"dinonyl benzene-1,2-dicarboxylate",489.15,pubchem,1
302,CCCCCCCCCCOC(=O)C1=CC=CC=C1C(=O)OCCCCCCCCCC,"didecyl benzene-1,2-dicarboxylate",505.15,pubchem,1
303,C1=CC=C2C(=C1)C=CC3=C2C=CC=N3,benzo[f]quinoline,439.15,pubchem,1