,smiles,compound,flashpoint,source,pure substance
3845,C=CC[Si](Cl)(Cl)Cl,ALLYLTRICHLOROSILANE,304.15,gelest_silanes,1
3846,C=CC[Si](OCC)(OCC)OCC,ALLYLTRIETHOXYSILANE,320.15,gelest_silanes,1
3847,C=CC[Si](C(C)C)(C(C)C)C(C)C,ALLYLTRIISOPROPYLSILANE,349.15,gelest_silanes,1
3848,C=CC[Si](OC)(OC)OC,ALLYLTRIMETHOXYSILANE,319.15,gelest_silanes,1
3849,C=CC[Si](C)(C)C,ALLYLTRIMETHYLSILANE,280.15,gelest_silanes,1
3850,C=CC[Si](O[Si](C)(C)C)(O[Si](C)(C)C)O[Si](C)(C)C,ALLYLTRIS(TRIMETHYLSILOXY)SILANE,340.15,gelest_silanes,1
3851,CCO[Si](CCCCN)(OCC)OCC,4-AMINOBUTYLTRIETHOXYSILANE,382.15,gelest_silanes,1
3852,CO[Si](C)(CCCNCCN)OC,N-(2-AMINOETHYL)-3-AMINOPROPYLMETHYLDIMETHOXYSILANE,363.15,gelest_silanes,1
3853,CCO[Si](CCCNCCN)(OCC)OCC,N-(2-AMINOETHYL)-3-AMINOPROPYLTRIETHOXYSILANE,421.15,gelest_silanes,1
3854,CO[Si](CCCNCCN)(OC)OC,N-(2-AMINOETHYL)-3-AMINOPROPYLTRIMETHOXYSILANE,423.15,gelest_silanes,1
3855,CO[Si](CCCNCCN)(OC)OC,N-(2-AMINOETHYL)-3-AMINOPROPYLTRIMETHOXYSILANE,423.15,gelest_silanes,1
3856,C[Si](C)(C)CN,AMINOMETHYLTRIMETHYLSILANE,282.15,gelest_silanes,1
3857,CO[Si](OC)(OC)c1cccc(N)c1,m-AMINOPHENYLTRIMETHOXYSILANE,453.15,gelest_silanes,1
3858,CO[Si](OC)(OC)c1ccc(N)cc1,p-AMINOPHENYLTRIMETHOXYSILANE,453.15,gelest_silanes,1
3859,CO[Si](OC)(OCN)c1ccccc1,AMINOPHENYLTRIMETHOXYSILANE,453.15,gelest_silanes,1
3860,CCO[Si](C)(C)CCCN,3-AMINOPROPYLDIMETHYLETHOXYSILANE,346.15,gelest_silanes,1
3861,CCO[Si](CCCN)(OCC)OCC,3-AMINOPROPYLTRIETHOXYSILANE,377.15,gelest_silanes,1
3862,CO[Si](CCCN)(OC)OC,3-AMINOPROPYLTRIMETHOXYSILANE,356.15,gelest_silanes,1
3863,CO[Si](CCCN)(OC)OC,3-AMINOPROPYLTRIMETHOXYSILANE,356.15,gelest_silanes,1
3864,C[Si](C)(C)CCCN,3-AMINOPROPYLTRIMETHYLSILANE,332.15,gelest_silanes,1
3865,COCCOCCO[Si](CCCN)(OCCOCCOC)OCCOCCOC,3-AMINOPROPYLTRIS(METHOXYETHOXYETHOXY)SILANE,341.15,gelest_silanes,1
3866,C[Si](C)(C)CN=[N+]=[N-],(AZIDOMETHYL)TRIMETHYLSILANE,279.15,gelest_silanes,1
3867,CCO[Si](CCCCCCS(=O)(=O)N=[N+]=[N-])(OCC)OCC,6-AZIDOSULFONYLHEXYLTRIETHOXYSILANE,387.15,gelest_silanes,1
3868,C[Si](C)(C)CNCc1ccccc1,N-BENZYLAMINOMETHYLTRIMETHYLSILANE,389.15,gelest_silanes,1
3869,C[Si](C)(Cl)Cc1ccccc1,BENZYLDIMETHYLCHLOROSILANE,346.15,gelest_silanes,1
3870,C[SiH](C)Cc1ccccc1,BENZYLDIMETHYLSILANE,338.15,gelest_silanes,1
3871,COCN(Cc1ccccc1)C[Si](C)(C)C,N-BENZYL-N-METHOXYMETHYL-N-(TRIMETHYLSILYLMETHYL)AMINE,339.15,gelest_silanes,1
3872,C=CC[Sn](CCCC)(CCCC)CCCC,ALLYLTRI-n-BUTYLTIN,376.15,gelest_tin,1
3873,C[Si](C)(C)N([Sn]N([Si](C)(C)C)[Si](C)(C)C)[Si](C)(C)C,BIS[BIS(TRIMETHYLSILYL)AMINO]TIN(II),329.15,gelest_tin,1
3874,CCCC[Sn](CCCC)(CCCC)C(C)(C)C,t-BUTYLTRI n-BUTYLTIN,375.15,gelest_tin,1
3875,C[Sn](C)(C)CCl,CHLOROMETHYLTRIMETHYLTIN,312.15,gelest_tin,1
3876,C=CC[Sn](CC=C)(CCCC)CCCC,DIALLYLDI-n-BUTYLTIN,374.15,gelest_tin,1
3877,CCCC[Sn](CCCC)(OC(C)=O)OC(C)=O,DI-n-BUTYLDIACETOXYTIN,416.15,gelest_tin,1
3878,CCCCO[Sn](CCCC)(CCCC)OCCCC,DI-n-BUTYLDI-n-BUTOXYTIN,389.15,gelest_tin,1
3879,CCCC[Sn](Cl)(Cl)CCCC,DI-n-BUTYLDICHLOROTIN,441.15,gelest_tin,1
3880,CC(C)(C)[Sn](Cl)(Cl)C(C)(C)C,DI-t-BUTYLDICHLOROTIN,386.15,gelest_tin,1
3881,CCCC[Sn](CCCC)(OC)OC,DI-n-BUTYLDIMETHOXYTIN,383.15,gelest_tin,1
3882,CCCC[Sn](CCCC)(CCCC)N(C)C,DIMETHYLAMINOTRI-n-BUTYLTIN,388.15,gelest_tin,1
3883,CN(C)[Sn](C)(C)C,DIMETHYLAMINOTRIMETHYLTIN,274.15,gelest_tin,1
3884,CCCCCCCC[Sn](Cl)(Cl)CCCCCCCC,DIOCTYLDICHLOROTIN,477.15,gelest_tin,1
3885,CCCCCCCCCCCC[Sn](CCCCCCCC)(CCCCCCCC)CCCCCCCCCCCC,DIOCTYLDILAURYLTIN,471.15,gelest_tin,1
3886,C=C[Sn](Cl)(Cl)C=C,DIVINYLDICHLOROTIN,477.15,gelest_tin,1
3887,C=C(OCC)[Sn](CCCC)(CCCC)CCCC,1-ETHOXYVINYLTRI-n-BUTYLTIN,386.15,gelest_tin,1
3888,C#C[Sn](CCCC)(CCCC)CCCC,ETHYNYLTRI-n-BUTYLTIN,346.15,gelest_tin,1
3889,CCCC[Sn](C#Cc1ccccc1)(CCCC)CCCC,PHENYLETHYNYLTRI-n-BUTYLTIN,386.15,gelest_tin,1
3890,CCCC[Sn](CCCC)(CCCC)c1ccccc1,PHENYLTRI-n-BUTYLTIN,380.15,gelest_tin,1
3891,CCCC[Sn](CCCC)(CCCC)Sc1ccccc1,PHENYLTHIOTRI-n-BUTYLTIN,377.15,gelest_tin,1
3892,C=CC[Sn](CC=C)(CC=C)CC=C,TETRAALLYLTIN,348.15,gelest_tin,1
3893,CCCCCCCCCCCC[Sn](CCCC)(CCCCCCCCCCCC)O[Sn](CCCC)(CCCC)CCCC,TETRABUTYLDILAURYLDISTANNOXANE,504.15,gelest_tin,1
3894,CCCC[Sn](CCCC)(CCCC)CCCC,TETRA-n-BUTYLTIN,274.15,gelest_tin,1
3895,CCCC[Sn](CCCC)(CCCC)CCCC,TETRA-n-BUTYLTIN,380.15,gelest_tin,1
3896,CC[Sn](CC)(CC)CC,TETRAETHYLTIN,326.15,gelest_tin,1
3897,CCN(CC)[Sn](N(CC)CC)(N(CC)CC)N(CC)CC,TETRAKIS(DIETHYLAMINO)TIN,312.15,gelest_tin,1
3898,C[Sn](C)(C)C,TETRAMETHYLTIN,261.15,gelest_tin,1
3899,C[Sn](C)(C)C,TETRAMETHYLTIN,261.15,gelest_tin,1
3900,CCCCCCCC[Sn](CCCCCCCC)(CCCCCCCC)CCCCCCCC,TETRA-n-OCTYLTIN,367.15,gelest_tin,1
3901,c1ccc([Sn](c2ccccc2)(c2ccccc2)c2ccccc2)cc1,TETRAPHENYLTIN,504.15,gelest_tin,1
3902,C=C[Sn](C=C)(C=C)C=C,TETRAVINYLTIN,313.15,gelest_tin,1
3903,CCCC[Sn](CCCC)(CCCC)c1cccs1,2-THIENYLTRI-n-BUTYLTIN,379.15,gelest_tin,1
3904,CCCCC(CCCC)(CCCC)C(=O)O[Sn],TRI-n-BUTYLACETOXYTIN,393.15,gelest_tin,1
3905,CCCC[Sn](Cl)(CCCC)CCCC,TRI-n-BUTYLCHLOROTIN,393.15,gelest_tin,1
3906,CCCC[Sn](CCCC)(CCCC)OCC,TRI-n-BUTYLETHOXYTIN,377.15,gelest_tin,1
3907,CCCC[Sn](I)(CCCC)CCCC,TRI-n-BUTYLIODOTIN,386.15,gelest_tin,1
3908,CCCC[Sn](CCCC)(CCCC)OC,TRI-n-BUTYLMETHOXYTIN,371.15,gelest_tin,1
3909,CCCC[SnH](CCCC)CCCC,TRI-n-BUTYLTIN HYDRIDE,313.15,gelest_tin,1
3910,C1CCC([SnH](C2CCCCC2)C2CCCCC2)CC1,TRICYCLOHEXYLTIN HYDRIDE,378.15,gelest_tin,1
3911,CC[Sn](Br)(CC)CC,TRIETHYLBROMOTIN,372.15,gelest_tin,1
3912,C[Sn](C)(C)Cl,TRIMETHYLCHLOROTIN,370.15,gelest_tin,1
3913,Cl[Sn](c1ccccc1)(c1ccccc1)c1ccccc1,TRIPHENYLCHLOROTIN,343.15,gelest_tin,1
3914,CC=O,Acetaldehyde,235.15,hazardous materials,1
3915,CC(=O)Nc1ccccc1,Acetanilide,447.15,hazardous materials,1
3916,CC(=O)O,Acetic acid,316.15,hazardous materials,1
3917,CC(=O)OC(C)=O,Acetic anhydride,327.15,hazardous materials,1
3918,CC(C)=O,Acetone,255.15,hazardous materials,1
3919,CC(C)(O)C#N,Acetone cyanohydrin,347.15,hazardous materials,1
3920,CC#N,Acetonitrile,279.15,hazardous materials,1
3921,CC(=O)Cl,Acetyl chloride,277.15,hazardous materials,1
3922,CC(=O)OOC(C)=O,Acetyl peroxide,386.15,hazardous materials,1
3923,C=CC=O,Acrolein,247.15,hazardous materials,1
3924,C=CC(=O)O,Acrylic acid,325.15,hazardous materials,1
3925,C=CC#N,Acrylonitrile,273.15,hazardous materials,1
3926,O=C(O)CCCCC(=O)O,Adipic acid,464.15,hazardous materials,1
3927,N#CCCCCC#N,Adiponitrile,366.15,hazardous materials,1
3928,C=CCOC(C)=O,Allyl acetate,294.15,hazardous materials,1
3929,C=CCO,Allyl alcohol,294.15,hazardous materials,1
3930,C=CCN,Allyl amine,244.15,hazardous materials,1
3931,C=CCBr,Allyl bromide,272.15,hazardous materials,1
3932,C=CCCl,Allyl chloride,241.15,hazardous materials,1
3933,C=CCOC(=O)Cl,Allyl chloroformate,304.15,hazardous materials,1
3934,C=CCOCC1CO1,Allyl glycidyl ether,330.15,hazardous materials,1
3935,NCCC(O)CN,Aminoethylethanol amine,402.15,hazardous materials,1
3936,CC(=O)OCCC(C)C,iso-Amyl acetate,296.15,hazardous materials,1
3937,CCCC(C)OC(C)=O,sec-Amyl acetate,305.15,hazardous materials,1
3938,CC(C)CCO,iso-Amyl alcohol,316.15,hazardous materials,1
3939,CCC(C)(C)O,tert-Amyl alcohol,292.15,hazardous materials,1
3940,CCCCCN,Amylamine,280.15,hazardous materials,1
3941,CC(C)CCOC=O,iso-Amyl formate,299.15,hazardous materials,1
3942,CCCCCS,Amyl mercaptan,291.15,hazardous materials,1
3943,CC(C)CCO[N+](=O)[O-],iso-Amyl nitrate,325.15,hazardous materials,1
3944,CCCCCON=O,Amyl nitrite,283.15,hazardous materials,1
3945,Nc1ccccc1,Aniline,343.15,hazardous materials,1
3946,COc1ccccc1C=O,o-Anisaldehyde,391.15,hazardous materials,1
3947,COc1ccccc1,Anisole,325.15,hazardous materials,1
3948,c1ccc2cc3ccccc3cc2c1,Anthracene,394.15,hazardous materials,1
3949,O=C1c2ccccc2C(=O)c2ccccc21,Anthraquinone,458.15,hazardous materials,1
3950,C1CN1,Aziridine,262.15,hazardous materials,1
3951,O=Cc1ccccc1,Benzaldehyde,337.15,hazardous materials,1
3952,c1ccccc1,Benzene,262.15,hazardous materials,1
3953,O=C(O)c1ccccc1,Benzoic acid,394.15,hazardous materials,1
3954,N#Cc1ccccc1,Benzonitrile,358.15,hazardous materials,1
3955,FC(F)(F)c1ccccc1,Benzotrifluoride,285.15,hazardous materials,1
3956,O=C(Cl)c1ccccc1,Benzoyl chloride,345.15,hazardous materials,1
3957,CC(=O)OCc1ccccc1,Benzyl acetate,375.15,hazardous materials,1
3958,OCc1ccccc1,Benzyl alcohol,374.15,hazardous materials,1
3959,NCc1ccccc1,Benzylamine,336.15,hazardous materials,1
3960,O=C(OCc1ccccc1)c1ccccc1,Benzyl benzoate,421.15,hazardous materials,1
3961,ClCc1ccccc1,Benzyl chloride,340.15,hazardous materials,1
3962,SCc1ccccc1,Benzyl mercaptan,343.15,hazardous materials,1
3963,C1CCC(C2CCCCC2)CC1,Bicyclohexyl,347.15,hazardous materials,1
3964,c1ccc(-c2ccccc2)cc1,Biphenyl,386.15,hazardous materials,1
3965,Brc1ccccc1,Bromobenzene,324.15,hazardous materials,1
3966,Cc1ccccc1Br,o-Bromotoluene,352.15,hazardous materials,1
3967,CCCC,n-Butane,213.15,hazardous materials,1
3968,C=CCC,1-Butene,193.15,hazardous materials,1
3969,CCCCOC(C)=O,n-Butyl acetate,300.15,hazardous materials,1
3970,CC(=O)OCC(C)C,iso-Butyl acetate,291.15,hazardous materials,1
3971,CCC(C)OC(C)=O,sec-Butyl acetate,304.15,hazardous materials,1
3972,CCCCO,n-Butyl alcohol,302.15,hazardous materials,1
3973,CC(C)CO,iso-Butyl alcohol,301.15,hazardous materials,1
3974,CCC(C)O,sec-Butyl alcohol,297.15,hazardous materials,1
3975,CC(C)(C)O,tert-Butyl alcohol,283.15,hazardous materials,1
3976,CCCCN,Butylamine,261.15,hazardous materials,1
3977,CC(C)CN,iso-Butylamine,264.15,hazardous materials,1
3978,CCCCc1ccccc1,n-Butyl benzene,344.15,hazardous materials,1
3979,CC(C)Cc1ccccc1,iso-Butyl benzene,325.15,hazardous materials,1
3980,CCCCBr,n-Butyl bromide,291.15,hazardous materials,1
3981,CCCCCl,n-Butyl chloride,280.15,hazardous materials,1
3982,CC(O)CCO,"1,3-Butylene glycol ",394.15,hazardous materials,1
3983,CC(O)C(C)O,"2,3-Butylene glycol ",358.15,hazardous materials,1
3984,CCCCOC=O,n-Butyl formate,291.15,hazardous materials,1
3985,CCCCOC(=O)C(C)O,Butyl lactate,344.15,hazardous materials,1
3986,CCCCS,Butyl mercaptan,275.15,hazardous materials,1
3987,C=C(C)C(=O)OCCCC,Butyl methacrylate,325.15,hazardous materials,1
3988,CC(=O)CC(C)C,Isobutyl methyl ketone,290.15,hazardous materials,1
3989,CC(C)(C)OOC(=O)c1ccccc1,tert-Butyl perbenzoate,361.15,hazardous materials,1
3990,C=COCCCC,Butyl vinyl ether,264.15,hazardous materials,1
3991,CCCC=O,n-Butyraldehyde,266.45,hazardous materials,1
3992,CCCC(=O)O,n-Butyric acid,339.15,hazardous materials,1
3993,CCCC(=O)OC(=O)CCC,n-Butyric anhydride,361.15,hazardous materials,1
3994,CCC1OC1=O,2-Butyrolactone,371.15,hazardous materials,1
3995,CCCC#N,n-Butyronitrile,299.15,hazardous materials,1
3996,CC12CCC(CC1=O)C2(C)C,Camphor,339.15,hazardous materials,1
3997,CCCCCC(=O)O,Caproic acid,375.15,hazardous materials,1
3998,CCCCCCCC=O,Caprylaldehyde,325.15,hazardous materials,1
3999,S=C=S,Carbon disulphide,243.15,hazardous materials,1
4000,O=CCCl,Chloroacetaldehyde,361.15,hazardous materials,1
4001,Clc1ccccc1,Chlorobenzene,302.15,hazardous materials,1
4002,O=[N+]([O-])c1ccc(Cl)c([N+](=O)[O-])c1,"1-Chloro-2,4-dinitrobenzene ",467.15,hazardous materials,1
4003,Clc1cccc2ccccc12,Chloronaphthalene,405.15,hazardous materials,1
4004,CCC(Cl)[N+](=O)[O-],1-Chloro-1-nitropropane,335.15,hazardous materials,1
4005,Oc1ccccc1Cl,o-Chlorophenol,337.15,hazardous materials,1
4006,Oc1ccc(Cl)cc1,p-Chlorophenol,394.15,hazardous materials,1
4007,FC(F)=C(F)Cl,Chlorotrifluoroethylene,246.15,hazardous materials,1
4008,O=CC=Cc1ccccc1,Cinnamaldehyde,322.15,hazardous materials,1
4009,Cc1cccc(O)c1,m-Cresol,367.15,hazardous materials,1
4010,Cc1ccccc1O,o-Cresol,354.15,hazardous materials,1
4011,Cc1ccc(O)cc1,p-Cresol,367.15,hazardous materials,1
4012,C/C=C/C=O,Crotonaldehyde,286.15,hazardous materials,1
4013,CC(C)c1ccccc1,Cumene,317.15,hazardous materials,1
4014,CC(C)c1ccccc1.[O-]O,Cumene hydroperoxide,352.15,hazardous materials,1
4015,C1CCCCC1,Cyclohexane,253.15,hazardous materials,1
4016,OC1CCCCC1,Cyclohexanol,341.15,hazardous materials,1
4017,O=C1CCCCC1,Cyclohexanone,317.15,hazardous materials,1
4018,NC1CCCCC1,Cyclohexylamine,305.15,hazardous materials,1
4019,c1ccc(C2CCCCC2)cc1,Cyclohexylbenzene,372.15,hazardous materials,1
4020,C1CCCC1,Cyclopentane,266.15,hazardous materials,1
4021,O=C1CCCC1,Cyclopentanone,299.15,hazardous materials,1
4022,Cc1ccc(C(C)C)cc1,p-Cymene,320.15,hazardous materials,1
4023,C1CCC2CCCCC2C1,Decahydronaphthalene,330.15,hazardous materials,1
4024,CC(C)CCCCCCC=O,iso-Decaldehyde,358.15,hazardous materials,1
4025,CCCCCCCCCC,n-Decane,319.15,hazardous materials,1
4026,CCCCCCCCCCO,n-Decyl alcohol,355.15,hazardous materials,1
4027,CC(=O)CC(C)(C)O,Diacetone alcohol,337.15,hazardous materials,1
4028,CCCCNCCCC,Dibutylamine,325.15,hazardous materials,1
4029,CCCC[Sn](Cl)(Cl)CCCC,Dibutyldichlorotin,628.15,hazardous materials,1
4030,CCCCOCCCC,Di-n-butyl ether,298.15,hazardous materials,1
4031,CCCCOC(=O)C(=O)OCCCC,Dibutyl oxalate,377.15,hazardous materials,1
4032,CCCCOOCCCC,Dibutyl peroxide,291.15,hazardous materials,1
4033,CCCCOP([O-])OCCCC,Dibutyl phosphite,322.15,hazardous materials,1
4034,CCCCOC(=O)c1ccccc1C(=O)OCCCC,Dibutyl phthalate,430.15,hazardous materials,1
4035,CCCCOC(=O)C(O)C(O)C(=O)OCCCC,Dibutyl tartrate,364.15,hazardous materials,1
4036,O=C(Cl)C(Cl)Cl,Dichloroacetyl chloride,339.15,hazardous materials,1
4037,Nc1cc(Cl)ccc1Cl,"2,5-Dichloroaniline ",439.15,hazardous materials,1
4038,Clc1ccccc1Cl,o-Dichlorobenzene,339.15,hazardous materials,1
4039,ClCCCCCl,"1,4-Dichlorobutane ",325.15,hazardous materials,1
4040,CC(Cl)=CCCl,"1,3-Dichloro-2-butene ",300.15,hazardous materials,1
4041,CC(Cl)Cl,"1,1-Dichloroethane ",267.15,hazardous materials,1
4042,CC(Cl)(Cl)[N+](=O)[O-],"1,1-Dichloro-1-nitroethane ",349.15,hazardous materials,1
4043,Oc1ccc(Cl)cc1Cl,"2,4-Dichlorophenol ",387.15,hazardous materials,1
4044,CC(Cl)CCl,"1,2-Dichloropropane ",289.15,hazardous materials,1
4045,ClCCCCl,"1,3-Dichloropropane ",308.15,hazardous materials,1
4046,C1CCC(NC2CCCCC2)CC1,Dicyclohexylamine,372.15,hazardous materials,1
4047,OCCNCCO,Diethanolamine,425.15,hazardous materials,1
4048,CCN(CC)c1ccccc1,"N,N-Diethylaniline ",358.15,hazardous materials,1
4049,CCOC(=O)OCC,Diethylcarbonate,298.15,hazardous materials,1
4050,OCCOCCO,Diethylene glycol,397.15,hazardous materials,1
4051,CCOCCOCCO,Diethylene glycol-monoethyl ether,369.15,hazardous materials,1
4052,NCCNCCN,Diethylenetriamine,375.15,hazardous materials,1
4053,CCC(=O)CC,Diethyl ketone,286.15,hazardous materials,1
4054,CCOC(=O)CC(=O)OCC,Diethyl malonate,366.15,hazardous materials,1
4055,CCOS(=O)(=O)OCC,Diethyl sulphate,377.15,hazardous materials,1
4056,C1=COCCC1,"3,4-Dihydro-2H-pyran ",255.15,hazardous materials,1
4057,CC(C)CC(=O)CC(C)C,Diisobutyl ketone,333.15,hazardous materials,1
4058,CC(C)CC(O)CC(C)C,Diisobutyl carbinol,347.15,hazardous materials,1
4059,CC(C)NC(C)C,Diisopropyl amine,272.15,hazardous materials,1
4060,CC(C)OC(C)C,Diisopropyl ether,245.15,hazardous materials,1
4061,CC(C)c1ccccc1C(C)C,Diisopropyl benzene,349.15,hazardous materials,1
4062,COCCOC,Dimethoxyethane,313.15,hazardous materials,1
4063,COCOC,Dimethoxymethane,255.15,hazardous materials,1
4064,COC(C)(C)OC,Dimethoxypropane,266.15,hazardous materials,1
4065,CC(=O)N(C)C,"N,N-Dimethyl acetamide ",350.15,hazardous materials,1
4066,CN(C)c1ccccc1,"N,N-Dimethylaniline ",336.15,hazardous materials,1
4067,CCC(C)(C)C,"2,2-Dimethyl butane ",225.15,hazardous materials,1
4068,CC(C)C(C)C,"2,3-Dimethyl butane ",244.15,hazardous materials,1
4069,COC(=O)OC,Dimethyl carbonate,292.15,hazardous materials,1
4070,CN(C)C=O,Dimethylformamide,331.15,hazardous materials,1
4071,COC(=O)c1ccccc1C(=O)OC,Dimethyl phthalate,419.15,hazardous materials,1
4072,COS(=O)(=O)OC,Dimethyl sulphate,356.15,hazardous materials,1
4073,CS(C)=O,Dimethyl sulphoxide,368.15,hazardous materials,1
4074,O=[N+]([O-])c1cccc([N+](=O)[O-])c1,m-Dinitrobenzene,423.15,hazardous materials,1
4075,O=[N+]([O-])c1ccccc1[N+](=O)[O-],o-Dinitrobenzene,423.15,hazardous materials,1
4076,O=[N+]([O-])c1ccc([N+](=O)[O-])cc1,p-Dinitrobenzene,423.15,hazardous materials,1
4077,Cc1ccc([N+](=O)[O-])cc1[N+](=O)[O-],"2,4-Dinitrotoluene ",480.15,hazardous materials,1
4078,CCCCCCCCOC(=O)c1ccccc1C(=O)OCCCCCCCC,Di-n-Octyl phthalate,492.15,hazardous materials,1
4079,CCCCCCC(C)OC(=O)c1ccccc1C(=O)OC(C)CCCCCC,Di-sec-Octyl phthalate,491.15,hazardous materials,1
4080,C1COCCO1,"1,4-Dioxane ",285.15,hazardous materials,1
4081,c1ccc(Nc2ccccc2)cc1,Diphenylamine,426.15,hazardous materials,1
4082,c1ccc(Cc2ccccc2)cc1,Diphenylmethane,403.15,hazardous materials,1
4083,COC(C)COC(C)CO,Dipropylene glycol methyl ether,358.15,hazardous materials,1
4084,CCCCCCCCCCCC,n-Dodecane,347.15,hazardous materials,1
4085,ClCC1CO1,Epichlorohydrin,314.15,hazardous materials,1
4086,CC1CO1,"1,2-Epoxy-propane ",236.15,hazardous materials,1
4087,CCO,Ethanol,285.15,hazardous materials,1
4088,NCCO,Ethanolamine,358.15,hazardous materials,1
4089,CCCC(=O)Nc1ccccc1,Ethyl acetanilide,325.15,hazardous materials,1
4090,CCOC(C)=O,Ethyl acetate,268.75,hazardous materials,1
4091,CCOC(=O)CC(C)=O,Ethyl acetoacetate,357.15,hazardous materials,1
4092,C=CC(=O)OCC,Ethyl acrylate,289.15,hazardous materials,1
4093,CCCCCC(=O)CC,Ethyl amyl ketone,330.15,hazardous materials,1
4094,CCNc1ccccc1,n-Ethyl aniline,358.15,hazardous materials,1
4095,CCc1ccccc1,Ethyl benzene,288.15,hazardous materials,1
4096,CCOC(=O)CBr,Ethyl bromoacetate,321.15,hazardous materials,1
4097,CCCCC(=O)CC,Ethyl butyl ketone,319.15,hazardous materials,1
4098,CCC(C=O)CC,2-Ethyl butyraldehyde,294.15,hazardous materials,1
4099,CCCC(=O)OCC,Ethyl butyrate,299.15,hazardous materials,1
4100,CCCl,Ethyl chloride,223.15,hazardous materials,1
4101,CCOC(=O)CCl,Ethyl chloroacetate,339.15,hazardous materials,1
4102,CCOC(=O)Cl,Ethyl chloroformate,289.15,hazardous materials,1
4103,C/C=C/C(=O)OCC,Ethyl crotonate,275.15,hazardous materials,1
4104,CCOC(=O)CC#N,Ethyl cyanoacetate,383.15,hazardous materials,1
4105,OCCCl,Ethylene chlorohydrin,333.15,hazardous materials,1
4106,ClCCCl,Ethylene dichloride,286.15,hazardous materials,1
4107,OCCO,Ethylene glycol,384.15,hazardous materials,1
4108,CCOCC,Ethyl ether,228.15,hazardous materials,1
4109,CCOC=O,Ethyl formate,253.15,hazardous materials,1
4110,CCCCC(CC)CO,2-Ethyl hexanol,357.15,hazardous materials,1
4111,CCOC(=O)C(C)O,Ethyl lactate,319.15,hazardous materials,1
4112,CCOC,Ethyl methyl ether,236.15,hazardous materials,1
4113,CCN1CCOCC1,N-Ethylmorpholine,305.15,hazardous materials,1
4114,CCON=O,Ethyl nitrite,238.15,hazardous materials,1
4115,CCOC(=O)C(=O)[O-],Ethyl oxalate,349.15,hazardous materials,1
4116,CCOC(=O)CC,Ethyl propionate,285.15,hazardous materials,1
4117,CCCC=C(C=O)CC,2-Ethyl-3-propyl acrolein,341.15,hazardous materials,1
4118,CCO[Si]([O-])([O-])[O-],Ethyl silicate,325.15,hazardous materials,1
4119,NC=O,Formamide,428.15,hazardous materials,1
4120,O=CO,Formic acid,342.15,hazardous materials,1
4121,O=Cc1ccco1,Furfural,333.15,hazardous materials,1
4122,OCc1ccco1,Furfuryl alcohol,348.15,hazardous materials,1
4123,OCC(O)CO,Glycerol,433.15,hazardous materials,1
4124,CCCCCCC,Heptane,269.15,hazardous materials,1
4125,CCCCCCCN,n-Heptylamine,327.15,hazardous materials,1
4126,Clc1c(Cl)c(Cl)c(Cl)c(Cl)c1Cl,Hexachlorobenzene,515.15,hazardous materials,1
4127,CC=CC=CC=O,"2,4-Hexadienal ",341.15,hazardous materials,1
4128,C=CCC=CC,"1,4-Hexadiene ",252.15,hazardous materials,1
4129,CCCCCC,Hexane,251.15,hazardous materials,1
4130,CCCCCCO,n-Hexanol,333.15,hazardous materials,1
4131,CCCCC(C)OC(C)=O,sec-Hexyl acetate,318.15,hazardous materials,1
4132,CCCCCCN,Hexyl amine,302.15,hazardous materials,1
4133,NN,Hydrazine,311.15,hazardous materials,1
4134,C#N,Hydrocyanic acid,255.15,hazardous materials,1
4135,COc1ccc(O)cc1,Hydroquinone monomethyl ether,404.15,hazardous materials,1
4136,NO,Hydroxylamine,402.15,hazardous materials,1
4137,C=CC(=C)C,Isoprene,219.15,hazardous materials,1
4138,CC(O)C#N,Lactonitrile,350.15,hazardous materials,1
4139,O=C1C=CC(=O)O1,Maleic anhydride,375.15,hazardous materials,1
4140,C=C(C)C1CC=C(C)CC1,"p-Mentha-1,8-diene ",318.15,hazardous materials,1
4141,OCCS,2-Mercaptoethanol,347.15,hazardous materials,1
4142,CC(=O)C=C(C)C,Mesityl oxide,304.15,hazardous materials,1
4143,COC(C)=O,Methyl acetate,264.15,hazardous materials,1