,smiles,compound,flashpoint,source,pure substance
3257,CCCCCCCCOC(=O)CCC,octyl butanoate,378.0,Saldana11,1
3258,CCCCCCCCOC(=O)C,octyl ethanoate,359.0,Saldana11,1
3259,CCCCCCCCOC=O,octyl methanoate,353.0,Saldana11,1
3260,CCCCCOC(=O)CCC,pentyl butanoate,345.0,Saldana11,1
3261,CCCCCOC(=O)C,pentyl ethanoate,312.0,Saldana11,1
3262,CCCCCOC=O,pentyl methanoate,319.0,Saldana11,1
3263,CCCCCOC(=O)CC,pentyl propanoate,336.0,Saldana11,1
3264,CCCOC(=O)C(=C)C,propyl 2-methylprop-2-enoate,322.0,Saldana11,1
3265,CCCOC(=O)C=C,propyl prop-2-enoate,311.0,Saldana11,1
3266,CCC(C)OC(=O)C,sec-butyl ethanoate,255.0,Saldana11,1
3267,CC(CC)OC=O,sec-butyl methanoate,299.0,Saldana11,1
3268,CC(=C)C(=O)OC(C)(C)C,tert-butyl 2-methylprop-2-enoate,300.0,Saldana11,1
3269,CCCC(=O)OC(C)(C)C,tert-butyl butanoate,320.0,Saldana11,1
3270,CC(=O)OC(C)(C)C,tert-butyl ethanoate,287.0,Saldana11,1
3271,O=COC(C)(C)C,tert-butyl methanoate,264.0,Saldana11,1
3272,CCCCCCCCCCCCCCOC=O,tetradecyl methanoate,433.0,Saldana11,1
3273,CCCCCCCCCCCOC(=O)CCC,undecyl butanoate,421.0,Saldana11,1
3274,CCCCCCCCCCCOC(=O)C,undecyl ethanoate,398.0,Saldana11,1
3275,CCCCCCCCCCCOC=O,undecyl methanoate,385.0,Saldana11,1
3276,CCCCCCCCCCCOC(=O)CC,undecyl propanoate,410.0,Saldana11,1
3277,CC1=CCC(CC1)C(=C)C,1-methyl-4-(prop-1-en-2-yl)cyclohex-1-ene,318.0,Saldana11,1
3278,CC1=CC=C(CC1)C(C)C,"1-methyl-4-(propan-2-yl)cyclohexa-1,3-diene",319.0,Saldana11,1
3279,CC1=CCC(=CC1)C(C)C,"1-methyl-4-(propan-2-yl)cyclohexa-1,4-diene",324.0,Saldana11,1
3280,C[C@H]1C[C@H](C)C[C@H](C)C1,"1-trans-3,5-trimethylcyclohexane",292.0,Saldana11,1
3281,CCC1(CC)CCCCC1,"1,1-diethylcyclohexane",322.0,Saldana11,1
3282,CC1(C)CCCCC1,"1,1-dimethylcyclohexane",280.0,Saldana11,1
3283,CC1(C)CCCC1,"1,1-dimethylcyclopentane",257.0,Saldana11,1
3284,CC12CC3CC(C1)CC(C)(C3)C2,"1,3-dimethyladamantane",325.0,Saldana11,1
3285,CC1=CCC(C=C1)C(C)C,"2-methyl-5-propan-2-ylcyclohexa-1,3-diene",322.0,Saldana11,1
3286,C1CC2C=CC1C2,2-norbornene,258.0,Saldana11,1
3287,C=C1CCC(C=C1)C(C)C,3-methylidene-6-(propan-2-yl)cyclohex-1-ene,322.0,Saldana11,1
3288,C=C1C2CCC(C2)C1(C)C,"3,3-dimethyl-2-methylidenebicyclo[2.2.1]heptane",309.0,Saldana11,1
3289,CC1=CCC2CC1C2(C)C,"4,6,6-trimethylbicyclo[3.1.1]hept-3-ene",303.0,Saldana11,1
3290,CC=C1CC2CC1C=C2,5-ethylidene-2-norbornene,311.0,Saldana11,1
3291,C=C1CCC2CC1C2(C)C,"6,6-dimethyl-4-methylidenebicyclo[3.1.1]heptane",304.0,Saldana11,1
3292,C1CCC(CC1)C1CCCCC1,bicyclohexyl,347.0,Saldana11,1
3293,CCCCC1CCCCC1,butylcyclohexane,321.0,Saldana11,1
3294,CCCCC1CCCC1,butylcyclopentane,308.0,Saldana11,1
3295,C[C@@H]1CCCC[C@@H]1C,"cis-1,2-dimethylcyclohexane",284.0,Saldana11,1
3296,C[C@@H]1CCC[C@@H]1C,"cis-1,2-dimethylcyclopentane",269.0,Saldana11,1
3297,C[C@@H]1CCC[C@H](C)C1,"cis-1,3-dimethylcyclohexane",279.0,Saldana11,1
3298,C[C@H]1CC[C@@H](C)CC1,"cis-1,4-dimethylcyclohexane",279.0,Saldana11,1
3299,C1CC[C@@H]2CCCC[C@@H]2C1,cis-decalin,323.0,Saldana11,1
3300,C1CCCCCCCCC1,cyclodecane,338.0,Saldana11,1
3301,C1C=CCCC=CCCC=CC1,"cyclododeca-1,5,9-triene",360.0,Saldana11,1
3302,C1CCCCCC1,cycloheptane,267.0,Saldana11,1
3303,C1CC=CC=C1,"cyclohexa-1,3-diene",257.0,Saldana11,1
3304,C1C=CCC=C1,"cyclohexa-1,4-diene",262.0,Saldana11,1
3305,C1CCCCC1,cyclohexane,253.0,Saldana11,1
3306,C1CCCCCCCC1,cyclononane,316.0,Saldana11,1
3307,C1=CC=CC=CC=C1,"cycloocta-1,3,5,7-tetraene",295.0,Saldana11,1
3308,C1C=CCCC=CC1,"cycloocta-1,5-diene",308.0,Saldana11,1
3309,C1CCCCCCC1,cyclooctane,303.0,Saldana11,1
3310,C1C=CC=C1,"cyclopenta-1,3-diene",273.0,Saldana11,1
3311,C1CCCC1,cyclopentane,236.0,Saldana11,1
3312,C1=CC2C3C=CC(C3)C2C1,dicyclopentadiene,305.0,Saldana11,1
3313,C=CC1CC2C=CC1C2,ethenylnorbornene,300.0,Saldana11,1
3314,CCC1CCCCC1,ethylcyclohexane,295.0,Saldana11,1
3315,CCC1CCCC1,ethylcyclopentane,269.0,Saldana11,1
3316,CC(C)C1CCCCC1,isopropylcyclohexane,308.0,Saldana11,1
3317,CC(C)C1CCCC1,isopropylcyclopentane,287.0,Saldana11,1
3318,CC1CCCCC1,methylcyclohexane,267.0,Saldana11,1
3319,CC1=CC=CC1,methylcyclopentadiene,322.0,Saldana11,1
3320,CC1CCCC1,methylcyclopentane,246.0,Saldana11,1
3321,C=C1CCCC1,methylenecyclopentane,254.0,Saldana11,1
3322,CCCCCC1CCCCC1,pentylcyclohexane,339.0,Saldana11,1
3323,C=CCC1CCCCC1,prop-2-enylcyclohexane,302.0,Saldana11,1
3324,C=CCC1CCCC1,prop-2-enylcyclopentane,285.0,Saldana11,1
3325,CCCC1CCCCC1,propylcyclohexane,304.0,Saldana11,1
3326,CCCC1CCCC1,propylcyclopentane,289.0,Saldana11,1
3327,CC1=CCC(=C(C)C)CC1,terpinolene,311.0,Saldana11,1
3328,CC(C)(C)C1CCCCC1,tert-butylcyclohexane,315.0,Saldana11,1
3329,C[C@@H]1CCCC[C@H]1C,"trans-1,2-dimethylcyclohexane",280.0,Saldana11,1
3330,C[C@@H]1CCC[C@@H](C)C1,"trans-1,3-dimethylcyclohexane",281.0,Saldana11,1
3331,C[C@@H]1CC[C@@H](C)CC1,"trans-1,4-dimethylcyclohexane",284.0,Saldana11,1
3332,C1CC[C@@H]2CCCC[C@H]2C1,trans-decalin,325.0,Saldana11,1
3333,C/C=C/C=C/C,"(2E,4E)-hexa-2,4-diene",266.0,Saldana11,1
3334,CCC/C=C/C,(2E)-2-hexene,246.0,Saldana11,1
3335,CC/C=C/C,(2E)-2-pentene,228.0,Saldana11,1
3336,CCC/C=C/CC,(2E)-3-heptene,267.0,Saldana11,1
3337,CC/C(=C/C)/C,(2E)-3-methylpent-2-ene,246.0,Saldana11,1
3338,C/C=C/C(C)C,(2E)-4-methylpent-2-ene,239.0,Saldana11,1
3339,CCCC/C=C/C,(2E)-hept-2-ene,272.0,Saldana11,1
3340,CCCCC/C=C/C,(2E)-oct-2-ene,294.0,Saldana11,1
3341,C/C=C/C=C\C,"(2Z,4E)-hexa-2,4-diene",266.0,Saldana11,1
3342,CC/C(=C\C)/C,(2Z)-3-methylpent-2-ene,245.0,Saldana11,1
3343,C/C=C\C(C)C,(2Z)-4-methylpent-2-ene,237.0,Saldana11,1
3344,C/C=C\C,(2Z)-but-2-ene,200.0,Saldana11,1
3345,CCCC/C=C\C,(2Z)-hept-2-ene,265.0,Saldana11,1
3346,CCC/C=C\C,(2Z)-hex-2-ene,247.0,Saldana11,1
3347,CCCCC/C=C\C,(2Z)-oct-2-ene,294.0,Saldana11,1
3348,CC/C=C\C,(2Z)-pent-2-ene,226.0,Saldana11,1
3349,CC/C=C/C=C,"(3E)-1,3-hexadiene",254.0,Saldana11,1
3350,CC/C=C/CC,(3E)-3-hexene,261.0,Saldana11,1
3351,CCCC/C=C/CC,(3E)-3-octene,282.0,Saldana11,1
3352,CCC/C=C\CC,(3Z)-hept-3-ene,264.0,Saldana11,1
3353,CC/C=C\CC,(3Z)-hex-3-ene,245.0,Saldana11,1
3354,CCCC/C=C\CC,(3Z)-oct-3-ene,290.0,Saldana11,1
3355,C=CC/C=C/C,"(4E)-hexa-1,4-diene",248.0,Saldana11,1
3356,CCC/C=C/CCC,(4E)-oct-4-ene,281.0,Saldana11,1
3357,C=CC/C=C\C,"(4Z)-hexa-1,4-diene",248.0,Saldana11,1
3358,CCC/C=C\CCC,(4Z)-oct-4-ene,290.0,Saldana11,1
3359,CC1=CCCCC1,1-methylcyclohex-1-ene,272.0,Saldana11,1
3360,CC1=CCCC1,1-methylcyclopent-1-ene,256.0,Saldana11,1
3361,CC1CCCC(=C1)C,"1,3-dimethylcyclohex-1-ene",285.0,Saldana11,1
3362,CCC(=C)CC,2-ethylbut-1-ene,247.0,Saldana11,1
3363,CCCC(=C)CC,2-ethylpent-1-ene,263.0,Saldana11,1
3364,CCC(=C)C,2-methylbut-1-ene,226.0,Saldana11,1
3365,CC=C(C)C,2-methylbut-2-ene,228.0,Saldana11,1
3366,CCCCCC(=C)C,2-methylhept-1-ene,283.0,Saldana11,1
3367,CCCCC=C(C)C,2-methylhept-2-ene,281.0,Saldana11,1
3368,CCCCC(=C)C,2-methylhex-1-ene,267.0,Saldana11,1
3369,CCCC(=C)C,2-methylpent-1-ene,247.0,Saldana11,1
3370,CCC=C(C)C,2-methylpent-2-ene,250.0,Saldana11,1
3371,CC(=C)C,2-methylprop-1-ene,197.0,Saldana11,1
3372,CC(=C)C(C)C,"2,3-dimethylbut-1-ene",255.0,Saldana11,1
3373,CC(=C(C)C)C,"2,3-dimethylbut-2-ene",257.0,Saldana11,1
3374,CC(=C)C(=C)C,"2,3-dimethylbuta-1,3-diene",251.0,Saldana11,1
3375,CCCC(C)C(=C)C,"2,3-dimethylhex-1-ene",281.0,Saldana11,1
3376,CCC(C)C(=C)C,"2,3-dimethylpent-1-ene",256.0,Saldana11,1
3377,CC(=C)C(C)(C)C,"2,3,3-trimethylbut-1-ene",256.0,Saldana11,1
3378,CC(C)C(=C(C)C)C,"2,3,4-trimethylpent-2-ene",275.0,Saldana11,1
3379,CC(=C)CC(C)(C)C,"2,4,4-trimethylpent-1-ene",268.0,Saldana11,1
3380,CC(=CC(C)(C)C)C,"2,4,4-trimethylpent-2-ene",272.0,Saldana11,1
3381,CC(=C)CCC(=C)C,"2,5-dimethylhexa-1,5-diene",280.0,Saldana11,1
3382,CC(=CC=C(C)C)C,"2,5-dimethylhexa-2,4-diene",297.0,Saldana11,1
3383,CCCC(CC)C=C,3-ethylhex-1-ene,274.0,Saldana11,1
3384,CCC(CC)C=C,3-ethylpent-1-ene,256.0,Saldana11,1
3385,CCC(=CC)CC,3-ethylpent-2-ene,267.0,Saldana11,1
3386,C=CC(C)C,3-methylbut-1-ene,217.0,Saldana11,1
3387,C=C=C(C)C,"3-methylbuta-1,2-diene",261.0,Saldana11,1
3388,CC1CCCC=C1,3-methylcyclohex-1-ene,270.0,Saldana11,1
3389,CC(CCC)C=C,3-methylhex-1-ene,255.0,Saldana11,1
3390,CC(CC)C=C,3-methylpent-1-ene,245.0,Saldana11,1
3391,CC=C(C)C=C,"3-methylpenta-1,3-diene",245.0,Saldana11,1
3392,C=CC(C)(C)C,"3,3-dimethylbut-1-ene",245.0,Saldana11,1
3393,C=CC1CCC=CC1,4-ethenylcyclohex-1-ene,289.0,Saldana11,1
3394,CCCC(C)CC=C,4-methylhept-1-ene,275.0,Saldana11,1
3395,CC(CC=C)CC,4-methylhex-1-ene,258.0,Saldana11,1
3396,C=CCC(C)C,4-methylpent-1-ene,242.0,Saldana11,1
3397,C=CC=C(C)C,"4-methylpenta-1,3-diene",255.0,Saldana11,1
3398,C=CCC(C)(C)C,"4,4-dimethylpent-1-ene",261.0,Saldana11,1
3399,C=CCCC(C)C,5-methylhex-1-ene,263.0,Saldana11,1
3400,C=CCCCCC(C)C,7-methyloct-1-ene,291.0,Saldana11,1
3401,CCC=C,but-1-ene,193.0,Saldana11,1
3402,C=CC=C,"buta-1,3-diene",197.0,Saldana11,1
3403,C1CCC=CCC1,cycloheptene,267.0,Saldana11,1
3404,C1CCC=CC1,cyclohexene,243.0,Saldana11,1
3405,C1CCCC=CCC1,cyclooctene,298.0,Saldana11,1
3406,C1CC=CC1,cyclopentene,244.0,Saldana11,1
3407,CCCCCCCCC=C,dec-1-ene,311.0,Saldana11,1
3408,CCCCCCCCCCC=C,dodec-1-ene,346.0,Saldana11,1
3409,CCCCCC=C,hept-1-ene,265.0,Saldana11,1
3410,C=CCCCC=C,"hepta-1,6-diene",263.0,Saldana11,1
3411,CCCCCCCCCCCCCCCC=C,heptadec-1-ene,408.0,Saldana11,1
3412,CCCCC=C,hex-1-ene,247.0,Saldana11,1
3413,C=CCCC=C,"hexa-1,5-diene",246.0,Saldana11,1
3414,CCCCCCCCCCCCCCC=C,hexadec-1-ene,405.0,Saldana11,1
3415,C=CC(=C)C,isoprene,219.0,Saldana11,1
3416,CCCCCCCC=C,non-1-ene,298.0,Saldana11,1
3417,C=CCCCCCC=C,"nona-1,8-diene",299.0,Saldana11,1
3418,CCCCCCC=C,oct-1-ene,281.0,Saldana11,1
3419,C=CCCCCC=C,"octa-1,7-diene",282.0,Saldana11,1
3420,CCCCCCCCCCCCCCCCC=C,octadec-1-ene,421.0,Saldana11,1
3421,CCCC=C,pent-1-ene,222.0,Saldana11,1
3422,CCCCCCCCCCCCCC=C,pentadec-1-ene,385.0,Saldana11,1
3423,CC=C,propylene,165.0,Saldana11,1
3424,CCCCCCCCCCCCC=C,tetradec-1-ene,370.0,Saldana11,1
3425,CCCCCCCCCCCC=C,tridec-1-ene,352.0,Saldana11,1
3426,CCCCCCCCCC=C,undec-1-ene,327.0,Saldana11,1
3427,CCCCCC(C)C,2-methylheptane,277.0,Saldana11,1
3428,CCCCC(C)C,2-methylhexane,255.0,Saldana11,1
3429,CCCCCCCC(C)C,2-methylnonane,314.0,Saldana11,1
3430,CCCCCCC(C)C,2-methyloctane,297.0,Saldana11,1
3431,CCC(C)(C)C,"2,2-dimethylbutane",225.0,Saldana11,1
3432,CCCCCC(C)(C)C,"2,2-dimethylheptane",297.0,Saldana11,1
3433,CCCCC(C)(C)C,"2,2-dimethylhexane",269.0,Saldana11,1
3434,CCCCCCC(C)(C)C,"2,2-dimethyloctane",304.0,Saldana11,1
3435,CCCC(C)(C)C,"2,2-dimethylpentane",258.0,Saldana11,1
3436,CC(C)(C)C,"2,2-dimethylpropane",208.0,Saldana11,1
3437,CC(C)C(C)(C)C,"2,2,3-trimethylbutane",249.0,Saldana11,1
3438,CCCC(C)C(C)(C)C,"2,2,3-trimethylhexane",288.0,Saldana11,1
3439,CCC(C)C(C)(C)C,"2,2,3-trimethylpentane",270.0,Saldana11,1
3440,CC(C)(C)C(C)(C)C,"2,2,3,3-tetramethylbutane",278.0,Saldana11,1
3441,CCCC(C)(C)C(C)(C)C,"2,2,3,3-tetramethylhexane",304.0,Saldana11,1
3442,CCC(C)(C)C(C)(C)C,"2,2,3,3-tetramethylpentane",289.0,Saldana11,1
3443,CCC(C)C(C)C(C)(C)C,"2,2,3,4-tetramethylhexane",304.0,Saldana11,1
3444,CC(C)C(C)C(C)(C)C,"2,2,3,4-tetramethylpentane",284.0,Saldana11,1
3445,CCC(C)CC(C)(C)C,"2,2,4-trimethylhexane",288.0,Saldana11,1
3446,CC(C)CC(C)(C)C,"2,2,4-trimethylpentane",261.0,Saldana11,1
3447,CCC(C)(C)CC(C)(C)C,"2,2,4,4-tetramethylhexane",304.0,Saldana11,1
3448,CC(C)(C)CC(C)(C)C,"2,2,4,4-tetramethylpentane",276.0,Saldana11,1
3449,CC(CC(C)(C)C)CC(C)(C)CC(C)(C)C,"2,2,4,4,6,8,8-heptamethylnonane",368.0,Saldana11,1
3450,CC(C)CCC(C)(C)C,"2,2,5-trimethylhexane",286.0,Saldana11,1
3451,CC(C)(C)CCC(C)(C)C,"2,2,5,5-tetramethylhexane",289.0,Saldana11,1
3452,CC(C)C(C)C,"2,3-dimethylbutane",244.0,Saldana11,1
3453,CCCCC(C)C(C)C,"2,3-dimethylheptane",288.0,Saldana11,1
3454,CCCC(C)C(C)C,"2,3-dimethylhexane",278.0,Saldana11,1
3455,CCCCCC(C)C(C)C,"2,3-dimethyloctane",309.0,Saldana11,1
3456,CCC(C)C(C)C,"2,3-dimethylpentane",258.0,Saldana11,1
3457,CCCC(C)(C)C(C)C,"2,3,3-trimethylhexane",288.0,Saldana11,1
3458,CCC(C)(C)C(C)C,"2,3,3-trimethylpentane",273.0,Saldana11,1
3459,CCC(C)C(C)(C)C(C)C,"2,3,3,4-tetramethylhexane",304.0,Saldana11,1
3460,CC(C)C(C)(C)C(C)C,"2,3,3,4-tetramethylpentane",284.0,Saldana11,1
3461,CCC(C)C(C)C(C)C,"2,3,4-trimethylhexane",288.0,Saldana11,1
3462,CC(C)C(C)C(C)C,"2,3,4-trimethylpentane",273.0,Saldana11,1
3463,CCC(C)(C)C(C)C(C)C,"2,3,4,4-tetramethylhexane",304.0,Saldana11,1
3464,CC(C)C(C)C(C)C(C)C,"2,3,4,5-tetramethylhexane",304.0,Saldana11,1
3465,CCC(C)CC(C)C(C)C,"2,3,5-trimethylheptane",304.0,Saldana11,1
3466,CC(C)CC(C)C(C)C,"2,3,5-trimethylhexane",288.0,Saldana11,1
3467,CCCC(C)CC(C)C,"2,4-dimethylheptane",288.0,Saldana11,1
3468,CCC(C)CC(C)C,"2,4-dimethylhexane",283.0,Saldana11,1
3469,CC(C)CC(C)C,"2,4-dimethylpentane",261.0,Saldana11,1
3470,CCC(C)(C)CC(C)C,"2,4,4-trimethylhexane",288.0,Saldana11,1
3471,CCC(C)C(C)CC(C)C,"2,4,5-trimethylheptane",304.0,Saldana11,1
3472,CC(C)CC(C)CC(C)C,"2,4,6-trimethylheptane",304.0,Saldana11,1
3473,CCC(C)CCC(C)C,"2,5-dimethylheptane",288.0,Saldana11,1
3474,CC(C)CCC(C)C,"2,5-dimethylhexane",271.0,Saldana11,1
3475,CC(C)CCCC(C)C,"2,6-dimethylheptane",299.0,Saldana11,1
3476,CCC(C)CCCC(C)C,"2,6-dimethyloctane",307.0,Saldana11,1
3477,CC(CCCCC(C)CCCC(C)CCCC(C)C)CCCC(C)CCCC(C)C,"2,6,10,15,19,23-hexamethyltetracosane",490.0,Saldana11,1
3478,CC(C)CCCCC(C)C,"2,7-dimethyloctane",314.0,Saldana11,1
3479,CCC(CC)C(C)C,3-ethyl-2-methylpentane,276.0,Saldana11,1
3480,CCCC(CC)C(C)(C)C,"3-ethyl-2,2-dimethylhexane",311.0,Saldana11,1
3481,CCC(CC)C(C)(C)C,"3-ethyl-2,2-dimethylpentane",286.0,Saldana11,1
3482,CCC(C)(CC)C(C)C,"3-ethyl-2,3-dimethylpentane",288.0,Saldana11,1
3483,CCC(C)(C(C)C)C(C)C,"3-ethyl-2,3,4-trimethylpentane",304.0,Saldana11,1
3484,CCC(C(C)C)C(C)C,"3-ethyl-2,4-dimethylpentane",288.0,Saldana11,1
3485,CCCCC(C)(CC)CC,3-ethyl-3-methylheptane,314.0,Saldana11,1
3486,CCC(C)(CC)CC,3-ethyl-3-methylpentane,276.0,Saldana11,1
3487,CCC(CC)C(C)CC,3-ethyl-4-methylhexane,288.0,Saldana11,1
3488,CCC(C)CC(CC)CC,3-ethyl-5-methylheptane,304.0,Saldana11,1
3489,CCCC(CC)CC,3-ethylhexane,278.0,Saldana11,1
3490,CCC(CC)CC,3-ethylpentane,261.0,Saldana11,1
3491,CCCCC(C)CC,3-methylheptane,279.0,Saldana11,1
3492,CCCC(C)CC,3-methylhexane,269.0,Saldana11,1
3493,CCCCCCC(C)CC,3-methylnonane,311.0,Saldana11,1
3494,CCCCCC(C)CC,3-methyloctane,297.0,Saldana11,1
3495,CCC(C)CC,3-methylpentane,241.0,Saldana11,1
3496,CCC(CC)(CC)CC,"3,3-diethylpentane",294.0,Saldana11,1
3497,CCCC(C)(C)CC,"3,3-dimethylhexane",272.0,Saldana11,1
3498,CCCCCC(C)(C)CC,"3,3-dimethyloctane",314.0,Saldana11,1
3499,CCC(C)(C)CC,"3,3-dimethylpentane",254.0,Saldana11,1
3500,CCC(C)C(C)(C)CC,"3,3,4-trimethylhexane",288.0,Saldana11,1
3501,CCC(C)(C)C(C)(C)CC,"3,3,4,4-tetramethylhexane",304.0,Saldana11,1
3502,CCC(C)CC(C)(C)CC,"3,3,5-trimethylheptane",304.0,Saldana11,1
3503,CCCC(C)C(C)CC,"3,4-dimethylheptane",288.0,Saldana11,1
3504,CCC(C)C(C)CC,"3,4-dimethylhexane",277.0,Saldana11,1
3505,CCC(C)C(C)C(C)CC,"3,4,5-trimethylheptane",304.0,Saldana11,1
3506,CCC(C)CC(C)CC,"3,5-dimethylheptane",288.0,Saldana11,1
3507,CCCC(C)CC(C)CC,"3,5-dimethyloctane",314.0,Saldana11,1
3508,CCCC(CC)C(C)CC,4-ethyl-3-methylheptane,314.0,Saldana11,1
3509,CCCC(CC)CCC,4-ethylheptane,288.0,Saldana11,1
3510,CCCCC(CC)CCC,4-ethyloctane,314.0,Saldana11,1
3511,CCCC(C)CCC,4-methylheptane,279.0,Saldana11,1
3512,CCCCCC(C)CCC,4-methylnonane,311.0,Saldana11,1
3513,CCCCC(C)CCC,4-methyloctane,295.0,Saldana11,1
3514,CCCC(CCC)CCC,4-propylheptane,314.0,Saldana11,1
3515,CCCC(C)(C)CCC,"4,4-dimethylheptane",288.0,Saldana11,1
3516,CCCCC(C)CCCC,5-methylnonane,312.0,Saldana11,1
3517,CC(C)C,isobutane,190.0,Saldana11,1
3518,CCCC(C)C,isohexane,250.0,Saldana11,1
3519,CCC(C)C,isopentane,217.0,Saldana11,1
3520,CCCCCCCCCC,n-decane,319.0,Saldana11,1
3521,CCCCCCCCCCCC,n-dodecane,347.0,Saldana11,1
3522,CCCCCCCCCCCCCCCCC,n-heptadecane,421.0,Saldana11,1
3523,CCCCCCC,n-heptane,269.0,Saldana11,1
3524,CCCCCCCCCCCCCCCC,n-hexadecane,408.0,Saldana11,1
3525,CCCCCC,n-hexane,252.0,Saldana11,1
3526,CCCCCCCCCCCCCCCCCCC,n-nonadecane,441.0,Saldana11,1
3527,CCCCCCCCC,n-nonane,304.0,Saldana11,1
3528,CCCCCCCCCCCCCCCCCC,n-octadecane,438.0,Saldana11,1
3529,CCCCCCCC,n-octane,286.0,Saldana11,1
3530,CCCCCCCCCCCCCCC,n-pentadecane,388.0,Saldana11,1
3531,CCCCC,n-pentane,233.0,Saldana11,1
3532,CCCCCCCCCCCCCC,n-tetradecane,373.0,Saldana11,1
3533,CCCCCCCCCCCCC,n-tridecane,352.0,Saldana11,1
3534,CCCCCCCCCCC,n-undecane,338.0,Saldana11,1
3535,C=CC[Ge](Cl)(Cl)Cl,ALLYLTRICHLOROGERMANE,328.15,gelest_germanium,1
3536,C=CC[Ge](CC)(CC)CC,ALLYLTRIETHYLGERMANE,321.15,gelest_germanium,1
3537,C=CC[Ge](C)(C)C,ALLYLTRIMETHYLGERMANE,274.15,gelest_germanium,1
3538,C[Ge](C)(CCl)CCl,BIS(CHLOROMETHYL)DIMETHYLGERMANE,324.15,gelest_germanium,1
3539,CC(C)(C)[Ge](C)(C)Cl,t-BUTYLDIMETHYLCHLOROGERMANE,307.15,gelest_germanium,1
3540,CCCC[Ge](Cl)(Cl)Cl,n-BUTYLTRICHLOROGERMANE,355.15,gelest_germanium,1
3541,CCCC[Ge](Cl)(Cl)CCCC,DI-n-BUTYLDICHLOROGERMANE,380.15,gelest_germanium,1
3542,C[Ge](C)(C)C(Cl)Cl,DICHLOROMETHYLTRIMETHYLGERMANE,306.15,gelest_germanium,1
3543,CC[Ge](Cl)(Cl)CC,DIETHYLDICHLOROGERMANE,325.15,gelest_germanium,1
3544,CN(C)[Ge](C)(C)C,DIMETHYLAMINOTRIMETHYLGERMANE,263.15,gelest_germanium,1
3545,Cl[Ge](Cl)(c1ccccc1)c1ccccc1,DIPHENYLDICHLOROGERMANE,433.15,gelest_germanium,1
3546,c1ccc([GeH2]c2ccccc2)cc1,DIPHENYLGERMANE,377.15,gelest_germanium,1
3547,CC[Ge](Cl)(Cl)Cl,ETHYLTRICHLOROGERMANE,324.15,gelest_germanium,1
3548,C[Ge](C)(C)[Ge](C)(C)C,HEXAMETHYLDIGERMANE,287.15,gelest_germanium,1
3549,C=C(C)C(=O)OC[Ge](C)(C)C,METHACRYLOXYMETHYLTRIMETHYLGERMANE,336.15,gelest_germanium,1
3550,C[Ge](Cl)(Cl)Cl,METHYLTRICHLOROGERMANE,283.15,gelest_germanium,1
3551,CCO[Ge](C)(OCC)OCC,METHYLTRIETHOXYGERMANE,313.15,gelest_germanium,1
3552,C=CC[Ge](CC=C)(CC=C)CC=C,TETRAALLYLGERMANE,343.15,gelest_germanium,1
3553,CCCCO[Ge](OCCCC)(OCCCC)OCCCC,TETRA-n-BUTOXYGERMANE,385.15,gelest_germanium,1
3554,CCCC[Ge](CCCC)(CCCC)CCCC,TETRA-n-BUTYLGERMANE,363.15,gelest_germanium,1
3555,CCO[Ge](OCC)(OCC)OCC,TETRAETHOXYGERMANE,335.15,gelest_germanium,1
3556,CC[Ge](CC)(CC)CC,TETRAETHYLGERMANE,315.15,gelest_germanium,1
3557,CN(C)[Ge](N(C)C)(N(C)C)N(C)C,TETRAKIS(DIMETHYLAMINO)GERMANE,307.15,gelest_germanium,1
3558,CC(C)O[Ge](OC(C)C)(OC(C)C)OC(C)C,TETRAISOPROPOXYGERMANE,341.15,gelest_germanium,1
3559,CO[Ge](OC)(OC)OC,TETRAMETHOXYGERMANE,307.15,gelest_germanium,1
3560,C[Ge](C)(C)C,TETRAMETHYLGERMANE,254.15,gelest_germanium,1
3561,CCCC[Ge](Cl)(CCCC)CCCC,TRI-n-BUTYLCHLOROGERMANE,367.15,gelest_germanium,1
3562,CCCC[GeH](CCCC)CCCC,TRI-n-BUTYLGERMANE,351.15,gelest_germanium,1
3563,Cl[GeH](Cl)Cl,TRICHLOROGERMANE,285.15,gelest_germanium,1
3564,CC[Ge](Cl)(CC)CC,TRIETHYLCHLOROGERMANE,311.15,gelest_germanium,1
3565,CC[GeH](CC)CC,TRIETHYLGERMANE,278.15,gelest_germanium,1
3566,CC(C)[Ge](Cl)(C(C)C)C(C)C,TRIISOPROPYLCHLOROGERMANE,339.15,gelest_germanium,1
3567,C[Ge](C)(C)Br,TRIMETHYLBROMOGERMANE,310.15,gelest_germanium,1
3568,C[Ge](C)(C)Cl,TRIMETHYLCHLOROGERMANE,274.15,gelest_germanium,1
3569,C=C[Ge](CC)(CC)CC,VINYLTRIETHYLGERMANE,305.15,gelest_germanium,1
3570,CC(C)[O-].CC(C)[O-].CCOC(=O)CC(C)=O.[Al+2],ALUMINUM DIISOPROPOXIDE ETHYLACETOACETATE,323.15,gelest_metal-organics,1
3571,CCCC[O-].CCCC[O-].CCCC[O-].[Sb+3],ANTIMONY(III) n-BUTOXIDE,341.15,gelest_metal-organics,1
3572,CC[O-].CC[O-].CC[O-].[As+3],ARSENIC TRIETHOXIDE,322.15,gelest_metal-organics,1
3573,C=CCOCC=C.[B],BORON ALLYLOXIDE,304.15,gelest_metal-organics,1
3574,CCCC[O-].CCCC[O-].CCCC[O-].[B+3],BORON n-BUTOXIDE,366.15,gelest_metal-organics,1
3575,CC[O-].CC[O-].CC[O-].[B+3],BORON ETHOXIDE,284.15,gelest_metal-organics,1
3576,CC(C)[O-].CC(C)[O-].CC(C)[O-].[B+3],BORON ISOPROPOXIDE,301.15,gelest_metal-organics,1
3577,C[O-].C[O-].C[O-].[B+3],BORON METHOXIDE,272.15,gelest_metal-organics,1
3578,COC(C)[O-].COC(C)[O-].COC(C)[O-].[B+3],BORON METHOXYETHOXIDE,386.15,gelest_metal-organics,1
3579,CCCCN(CCCC)C(=S)[S-].CCCCN(CCCC)C(=S)[S-].[Ni+2],NICKEL DI-n-BUTYLDITHIOCARBAMATE,533.15,gelest_metal-organics,1
3580,CCCC[O-].CCCC[O-].CCCC[O-].CCCC[O-].CCCC[O-].[Nb+5],NIOBIUM(V) n-BUTOXIDE,363.15,gelest_metal-organics,1
3581,CC[O-].CC[O-].CC[O-].CC[O-].CC[O-].[Nb+5],NIOBIUM(V) ETHOXIDE,347.15,gelest_metal-organics,1
3582,CCCC[O-].CCCC[O-].CCCC[O-].CCCC[O-].CCCC[O-].[Ta+5],TANTALUM(V) n-BUTOXIDE,339.15,gelest_metal-organics,1
3583,CC[O-].CC[O-].CC[O-].CC[O-].CC[O-].[Ta+5],TANTALUM(V) ETHOXIDE,313.15,gelest_metal-organics,1