,smiles,compound,flashpoint,source,pure substance
10599,CC=Cc1ccc(OCc2ccccc2)c(OC)c1,"Benzene, 2-methoxy-1-(phenylmethoxy)-4-(1-propenyl)-",425.25,le15,1
10600,CCCCCCCCCc1cccc2ccccc12,1-nonylnaphthalene,465.75,le15,1
10601,O=C1CCCCCCCCCCCCCCCO1,Oxacycloheptadecan-2-one,422.75,le15,1
10602,C=CC(=O)OCCCCCCCCCCCCC,"2-Propenoic acid, tridecyl ester",391.15,le15,1
10603,CCCCCCCCC(=O)CCCCCCCC,heptadecan-9-one,356.75,le15,1
10604,CCCCCCCCCCCCCCCC(C)=O,heptadecan-2-one,353.75,le15,1
10605,CCCCCCCCCCCCCCCC(C)C,2-methylheptadecane,382.05,le15,1
10606,FC(F)(F)c1nc2c(Cl)ccc(Cl)c2[nH]1,"Benzimidazole, 4,7-dichloro-2-(trifluoromethyl)-",427.95,le15,1
10607,FC(F)(F)c1nc2ccc(Cl)c(Cl)c2[nH]1,"Benzimidazole, 4,5-dichloro-2-(trifluoromethyl)-",431.25,le15,1
10608,Cc1cccc(NC(=O)c2ccccc2C(=O)O)c1,"Benzoic acid, 2-(((3-methylphenyl)amino)carbonyl)-",451.35,le15,1
10609,COc1ccc(/C=C/c2ccc([N+](=O)[O-])cc2)cc1,"Benzene, 1-methoxy-4-(2-(4-nitrophenyl)ethenyl)-, (E)-",439.75,le15,1
10610,CNc1ccc(N(CCO)CCO)cc1[N+](=O)[O-],"Ethanol, 2,2'-((4-(methylamino)-3-nitrophenyl)imino)bis-",532.8499999999998,le15,1
10611,c1ccc(-c2c3ccccc3nc3ccccc23)cc1,9-phenylacridine,452.95,le15,1
10612,COc1cc(C=Cc2ccccc2)c(OC)cc1N,"2,5-Dimethoxy-4-aminostilbene",517.45,le15,1
10613,COc1ccc(N=Nc2ccc(N(C)C)cc2)cc1,"Aniline, N,N-dimethyl-p-(4-methoxyphenylazo)-",475.15,le15,1
10614,CN(C)CCOC(c1ccccc1)c1ccccc1,"Ethanamine, 2-(diphenylmethoxy)-N,N-dimethyl-",374.65,le15,1
10615,O=C(O)COc1cc(Cl)c(Cl)cc1Cl,"Acetic acid, (2,4,5-trichlorophenoxy)-",454.55,le15,1
10616,COc1c(Cl)cc(Cl)c(Cl)c1C(=O)O,"Benzoic acid, 2,3,5-trichloro-6-methoxy- (9CI)",440.65,le15,1
10617,CCCCCCCCCCCC(=O)N(CC)CC,"Dodecanamide, N,N-diethyl-",387.45,le15,1
10618,CCCCCCCCCCCCCCCCCN,heptadecan-1-amine,419.35,le15,1
10619,CC(=O)CNC(=O)Oc1cc(C)c(C)cc1Cl,"Carbamic acid, acetylmethyl-, 2-chloro-4,5-dimethylphenyl ester",453.85,le15,1
10620,O=C1c2ccccc2C(=O)c2c(O)c(O)cc(O)c21,"9,10-Anthracenedione, 1,2,4-trihydroxy- (9CI)",386.15,le15,1
10621,O=[N+]([O-])c1ccc2c(c1)Cc1cc([N+](=O)[O-])ccc1-2,"9H-Fluorene, 2,7-dinitro- (9CI)",503.05,le15,1
10622,CCOC(=O)COP(=S)(OCC)OCC,"Acetic acid, ((diethoxyphosphinothioyl)oxy)-, ethyl ester (9CI)",395.85,le15,1
10623,COc1ccc(COC(=O)Cc2ccccc2)cc1,"Benzeneacetic acid, (4-methoxyphenyl)methyl ester",430.35,le15,1
10624,Cc1c2ccccc2c(C)c2c1ccc1ccccc12,"Benz(a)anthracene, 7,12-dimethyl-",327.5499999999999,le15,1
10625,CCc1c2ccccc2cc2c1ccc1ccccc12,"Benz(a)anthracene, 7-ethyl-",496.75,le15,1
10626,C(=C(c1ccccc1)c1ccccc1)c1ccccc1,"1,2-diphenylethenylbenzene",438.15,le15,1
10627,O=C1CCCCCCCCCCOCCCCO1,"1,6-Dioxacycloheptadecan-17-one",447.55,le15,1
10628,O=C1CCCCCCCCCOCCCCCO1,"1,7-Dioxacycloheptadecan-17-one",447.55,le15,1
10629,CCCCCCCCCCCCCC(=O)OCC,"Myristic acid, ethyl ester (8CI)",386.15,le15,1
10630,CCCCC(CC)COC(=O)C(CC)CCCC,"Hexanoic acid, 2-ethyl-, 2-ethylhexyl ester",410.25,le15,1
10631,CCCCCCCCOC(=O)CCCCCCC,octyl octanoate,412.95,le15,1
10632,O=C1c2ccccc2C(=O)C1c1ccc(Cl)cc1,"1,3-Indandione, 2-(p-chlorophenyl)-",456.55,le15,1
10633,CCCCOC(=O)COc1cc(Cl)ccc1C,"Acetic acid, ((4-chloro-o-tolyl)oxy)-, butyl ester",397.95,le15,1
10634,O=[N+]([O-])c1c(Cl)cccc1-c1c[nH]cc1Cl,"1H-Pyrrole, 3-chloro-4-(3-chloro-2-nitrophenyl)-",475.25,le15,1
10635,O=[N+]([O-])c1ccc2[nH]c3c([N+](=O)[O-])cccc3c2c1,"1,6-Dinitrocarbazole",551.8499999999998,le15,1
10636,O=[N+]([O-])c1ccc2[nH]c3ccc([N+](=O)[O-])cc3c2c1,"3,6-Dinitro-9H-carbazole",551.8499999999998,le15,1
10637,CNC(=O)Oc1cc(C)c(S(C)(=O)=O)c(C)c1,"Phenol, 3,5-dimethyl-4-(methylsulfonyl)-, methylcarbamate (9CI)",482.65,le15,1
10638,Cc1ccc2nc3c(ccc4ccccc43)c(C)c2c1,"Benz(c)acridine, 7,9-dimethyl-",481.85,le15,1
10639,Cc1ccc2c(C)c3ccc4ccccc4c3nc2c1,"Benz(c)acridine, 7,10-dimethyl-",482.95,le15,1
10640,COP(=O)(OC)C(O)C(Cl)(Cl)Cl,"Phosphonic acid, (2,2,2-trichloro-1-hydroxyethyl)-, dimethyl ester",389.85,le15,1
10641,COc1c(O)c(OC)c(Cl)c(Cl)c1Cl,"Phenol, 3,4,5-trichloro-2,6-dimethoxy-",430.85,le15,1
10642,CC(=O)N(Cl)c1ccc2c(c1)Cc1ccccc1-2,"Acetamide, N-chloro-N-9H-fluoren-2-yl-",481.15,le15,1
10643,CN(C)CCOC(=O)COc1ccc(Cl)cc1,"Acetic acid, (4-chlorophenoxy)-, 2-(dimethylamino)ethyl ester (9CI)",436.15,le15,1
10644,CCN(CC)c1nc(Cl)nc(N(CC)CC)n1,"1,3,5-Triazine-2,4-diamine, 6-chloro-N,N,N',N'-tetraethyl- (9CI)",461.45,le15,1
10645,O=C/C(Br)=C(/Br)C(=O)O,"Malealdehydic acid, dibromo- (8CI)",421.55,le15,1
10646,O=S1(=O)CC(Cl)(Cl)C(Cl)(Cl)C1,"Thiophene, tetrahydro-3,3,4,4-tetrachloro-, 1,1-dioxide",468.25,le15,1
10647,BrCCCCCCCBr,"1,7-dibromoheptane",405.95,le15,1
10648,Fc1c(F)c(F)c2[nH]c(C(F)(F)F)nc2c1F,"Benzimidazole, 4,5,6,7-tetrafluoro-2-(trifluoromethyl)-",389.95,le15,1
10649,O=C(Nc1cccc(Cl)c1)OCC#CCCl,"Carbamic acid, (3-chlorophenyl)-, 4-chloro-2-butynyl ester (9CI)",433.05,le15,1
10650,CC(=O)N[C@@H](CSC=C(Cl)Cl)C(=O)O,S-Dichlorovinyl-N-acetylcysteine,516.3499999999998,le15,1
10651,COc1cc(O)c2c(=O)c3cc(O)ccc3oc2c1,"Xanthen-9-one, 1,7-dihydroxy-3-methoxy-",478.35,le15,1
10652,COc1ccc2oc3cc(O)cc(O)c3c(=O)c2c1,"9H-Xanthen-9-one, 1,3-dihydroxy-7-methoxy- (9CI)",478.15,le15,1
10653,O=C1CCC(N2C(=O)c3ccccc3C2=O)C(=O)N1,"1H-Isoindole-1,3(2H)-dione, 2-(2,6-dioxo-3-piperidinyl)-",535.25,le15,1
10654,O=C1C=Cc2c(ccc3c2ccc2ccccc23)C1=O,"Chrysene-1,2-quinone",490.35,le15,1
10655,O=C1c2ccccc2C(=O)c2c1ccc1ccccc21,"Benz(a)anthracene-7,12-quinone",448.65,le15,1
10656,COc1ccc(C(=O)CCC(=O)O)c2ccccc12,"1-Naphthalenebutanoic acid, 4-methoxy-gamma-oxo-",469.75,le15,1
10657,COc1ccc(N=[N+]([O-])c2ccc(OC)cc2)cc1,"Azoxybenzene, 4,4'-dimethoxy- (8CI)",479.75,le15,1
10658,O=C(c1ccccc1)c1ccc(-c2ccccc2)cc1,phenyl-(4-phenylphenyl)methanone,463.85,le15,1
10659,Cc1c2c(cc3ccccc13)-c1ccccc1C1OC21,"Benz(a)anthracene, 5,6-epoxy-5,6-dihydro-7-methyl-",492.25,le15,1
10660,NC(=O)c1cc2cc(CN3CCCCC3)ccc2o1,"2-Benzofurancarboxamide, 5-(1-piperidinylmethyl)- (9CI)",495.35,le15,1
10661,CCOC(=O)C(C)(C)N=NC(C)(C)C(=O)OCC,"Propionic acid, 2,2'-azobis(2-methyl-, diethyl ester",386.05,le15,1
10662,CCOP(=O)(OCC)SCCSCC,"Phosphorothioic acid, O,O-diethyl S-(2-(ethylthio)ethyl) ester",420.75,le15,1
10663,c1ccc(CC(c2ccccc2)c2ccccc2)cc1,"1,2-diphenylethylbenzene",430.05,le15,1
10664,CC(C)=CCC/C(C)=C/COC(=O)c1ccccc1,"2,6-Octadien-1-ol, 3,7-dimethyl-, benzoate, (2E)-",426.55,le15,1
10665,C=CC(C)(CCC=C(C)C)OC(=O)c1ccccc1,"1,6-Octadien-3-ol, 3,7-dimethyl-, benzoate",431.85,le15,1
10666,CC(C)COC(=O)CCCCC(=O)OCC(C)C,"Hexanedioic acid, 1,6-bis(2-methylpropyl) ester",395.75,le15,1
10667,CCCCCCCCCCCC(=O)OCC(C)O,"1,2-Propanediol, 1-laurate",412.45,le15,1
10668,CCCCCCCCSCCCCCCCC,1-octylsulfanyloctane,445.35,le15,1
10669,CCCCCCCCCCCCCCCCS,hexadecane-1-thiol,374.85,le15,1
10670,CC(=O)Oc1ccc(Br)cc1C(=O)O,"Benzoic acid, 2-(acetyloxy)-5-bromo- (9CI)",449.75,le15,1
10671,COc1ccc(OC)c(C(=O)CBr)c1,"Ethanone, 2-bromo-1-(2,5-dimethoxyphenyl)-",422.35,le15,1
10672,O=[N+]([O-])c1ccc(Nc2ccc([N+](=O)[O-])cc2)cc1,4-nitro-N-(4-nitrophenyl)aniline,507.55,le15,1
10673,COc1cc(OC)c2nc3occc3c(OC)c2c1,"Furo(2,3-b)quinoline, 4,6,8-trimethoxy-",481.55,le15,1
10674,O=[N+]([O-])c1ccc(/C=C/c2cccc(Cl)c2)cc1,"Benzene, 1-chloro-3-(2-(4-nitrophenyl)ethenyl)-, (E)-",455.55,le15,1
10675,ClCCN(Cc1ccccc1)Cc1ccccc1,"Benzenemethanamine, N-(2-chloroethyl)-N-(phenylmethyl)-",420.45,le15,1
10676,CCOC(=O)C(Br)CBr,"Propionic acid, 2,3-dibromo-, ethyl ester (6CI,7CI,8CI)",364.15,le15,1
10677,CC(=O)O.CC(=O)O.COC(=O)/C(O)=C(\O)C(=O)OC,"Fumaric acid, dihydroxy-, dimethyl ester, diacetate",413.25,le15,1
10678,O=[N+]([O-])c1cc(-c2ccccc2)cc([N+](=O)[O-])c1O,"4-Hydroxy-3,5-dinitrobiphenyl",420.05,le15,1
10679,COc1c2occc2c(OC)c2c(=O)cc(C)oc12,"5H-Furo(3,2-g)(1)benzopyran-5-one, 4,9-dimethoxy-7-methyl-",491.95,le15,1
10680,O=C1C=C(c2ccccc2)C(=O)C=C1c1ccccc1,"p-Benzoquinone, 2,5-diphenyl- (8CI)",443.65,le15,1
10681,CCC(=O)OCC(COC(=O)CC)OC(=O)CC,"1,2,3-Propanetriol, tripropanoate",393.95,le15,1
10682,COc1ccc(Cc2cnc(N)nc2N)cc1OC,"2,4-Pyrimidinediamine, 5-((3,4-dimethoxyphenyl)methyl)-",533.05,le15,1
10683,OC(c1ccccc1)(c1ccccc1)c1ccccc1,triphenylmethanol,441.85,le15,1
10684,CCOP(=O)(OCC)SCS(=O)CC,"Phosphorothioic acid, O,O-diethyl S-((ethylsulfinyl)methyl) ester",453.45,le15,1
10685,OC(c1ccccc1)c1ccc(-c2ccccc2)cc1,"alpha-Phenyl(1,1'-biphenyl)-4-methanol",453.75,le15,1
10686,c1ccc(Nc2ccc(Nc3ccccc3)cc2)cc1,"1,4-Benzenediamine, N,N'-diphenyl-",570.15,le15,1
10687,Nc1ccc(-c2ccc(-c3ccc(N)cc3)cc2)cc1,"(1,1':4',1''-Terphenyl)-4,4''-diamine",569.45,le15,1
10688,O=C1NCC2(CCN(CCc3ccccc3)CC2)O1,"1-Oxa-3,8-diazaspiro(4,5)decan-2-one, 8-(2-phenylethyl)- (9CI)",513.75,le15,1
10689,CCOP(=S)(CC)Sc1ccc(C)cc1,"Phosphonodithioic acid, ethyl-, O-ethyl S-(4-methylphenyl) ester (9CI)",435.75,le15,1
10690,CCOP(=S)(CC)Sc1ccccc1C,"Phosphonodithioic acid, ethyl-, O-ethyl S-(o-tolyl) ester",428.55,le15,1
10691,CCOP(=S)(OCC)SCSCC,"Phosphorodithioic acid, O,O-diethyl S-(ethylthio)methyl ester",405.95,le15,1
10692,O=C(O)C1(O)c2ccccc2-c2ccc(Cl)cc21,"Fluorene-9-carboxylic acid, 2-chloro-9-hydroxy- (8CI)",543.95,le15,1
10693,ClC(Cl)=C(Cl)C(Cl)=C(Cl)Cl,"1,3-Butadiene, 1,1,2,3,4,4-hexachloro-",365.35,le15,1
10694,O=[N+]([O-])c1c(Cl)c(Cl)cc(Cl)c1Cl,"Benzene, 1,2,4,5-tetrachloro-3-nitro-",416.25,le15,1
10695,CCCCCCCCCCCCCCCCCl,1-chlorohexadecane,411.25,le15,1
10696,Fc1c(F)c(F)c(CBr)c(F)c1F,"1-(bromomethyl)-2,3,4,5,6-pentafluorobenzene",355.15,le15,1
10697,O=C(c1ccccc1)c1ccc(Br)cc1,"Methanone, (4-bromophenyl)phenyl- (9CI)",354.45,le15,1
10698,O=c1n(CCO)c(=O)n(CCO)c(=O)n1CCO,"1,3,5-Triazine-2,4,6(1H,3H,5H)-trione, 1,3,5-tris(2-hydroxyethyl)-",545.45,le15,1
10699,CCOP(=S)(OCC)Oc1ccc(N)cc1,"Phosphorothioic acid, O-(4-aminophenyl) O,O-diethyl ester",436.35,le15,1
10700,Cc1ccccc1N=Nc1c(N)ccc2ccccc12,"2-Naphthalenamine, 1-((2-methylphenyl)azo)-",516.45,le15,1
10701,C=C(C)C(=O)OCCC[Si](Cl)(Cl)Cl,3-trichlorosilylpropyl 2-methylprop-2-enoate,391.45,le15,1
10702,OCC(CO)(CBr)CBr,"1,3-Propanediol, 2,2-bis(bromomethyl)-",451.25,le15,1
10703,Nc1c(Br)cc([N+](=O)[O-])cc1[N+](=O)[O-],"Benzenamine, 2-bromo-4,6-dinitro-",469.35,le15,1
10704,COC(=O)c1ccccc1I,methyl 2-iodobenzoate,383.45,le15,1
10705,COC(=O)c1cccc(I)c1,methyl 3-iodobenzoate,403.85,le15,1
10706,c1ccc(P(c2ccccc2)c2ccccc2)cc1,"Phosphine, triphenyl-",454.85,le15,1
10707,Cc1ccc(N=Nc2c(O)ccc3ccccc23)cc1,1-((4-Methylphenyl)azo)-2-naphthalenol,483.25,le15,1
10708,CCCCOC(=O)[C@H](O)[C@@H](O)C(=O)OCCCC,"dibutyl (2R,3R)-2,3-dihydroxybutanedioate",440.15,le15,1
10709,Cc1ccc(S(=O)(=O)OCc2ccccc2)cc1,Benzyl tosylate,476.55,le15,1
10710,CCS(=O)CCSP(=S)(OC)OC,"Phosphorodithioic acid, S-(2-(ethylsulfinyl)ethyl) O,O-dimethyl ester",459.35,le15,1
10711,CC(C)(C)c1cc(C(C)(C)C)c(O)c(C(C)(C)C)c1,"Phenol, 2,4,6-tri-tert-butyl- (6CI,7CI,8CI)",402.45,le15,1
10712,O=[N+]([O-])c1cc([As](=O)(O)O)ccc1O,"Arsonic acid, (4-hydroxy-3-nitrophenyl)-",513.481,le15,1
10713,O=C(O)CN(CP(=O)(O)O)CP(=O)(O)O,"Glycine, N,N-bis(phosphonomethyl)-",631.15,le15,1
10714,COP(=S)(OC)Oc1ccc([N+](=O)[O-])cc1,"Phosphorothioic acid, O,O-dimethyl O-(4-nitrophenyl) ester",319.25,le15,1
10715,O=[N+]([O-])c1ccc2ccc3c(O)ccc4ccc1c2c43,"Pyren-6-ol, 1-nitro-",491.45,le15,1
10716,O=[N+]([O-])c1ccc2ccc3ccc(O)c4ccc1c2c34,"Pyren-8-ol, 1-nitro-",491.45,le15,1
10717,CCCCCCCCCCCCCBr,1-bromotridecane,383.15,le15,1
10718,CNCCCC1c2ccccc2C=Cc2ccccc21,"5H-Dibenzo(a,d)cycloheptene-5-propanamine, N-methyl-",471.45,le15,1
10719,CCN1CCC(=C(c2ccccc2)c2ccccc2)C1,"Pyrrolidine, 3-(diphenylmethylene)-1-ethyl-",446.15,le15,1
10720,CNC(=O)Oc1cc(C(C)(C)C)cc(C(C)(C)C)c1,"Phenol, 3,5-bis(1,1-dimethylethyl)-, methylcarbamate (9CI)",416.55,le15,1
10721,CCOC(CN(C)CC(OCC)OCC)OCC,"N,N-Bis(2,2-diethoxyethyl)methylamine",353.35,le15,1
10722,CCCCCCCC/C=C\CCCCCCCC#N,"9-Octadecenenitrile, (9Z)-",464.25,le15,1
10723,COC1(OC)C(Cl)=C(Cl)C(Cl)=C1Cl,"1,2,3,4-tetrachloro-5,5-dimethoxycyclopenta-1,3-diene",339.85,le15,1
10724,BrCC(Br)c1ccccc1,"Benzene, (1,2-dibromoethyl)-",389.65,le15,1
10725,BrCc1ccccc1CBr,"o-Xylene, alpha,alpha'-dibromo- (8CI)",406.75,le15,1
10726,BrCc1cccc(CBr)c1,"m-Xylene, alpha,alpha'-dibromo- (8CI)",411.25,le15,1
10727,COP(=S)(OC)Oc1ccc(SC)cc1,"Phosphorothioic acid, O,O-dimethyl O-(p-(methylthio)phenyl) ester",420.95,le15,1
10728,O=C(C=Cc1ccccc1)OCC=Cc1ccccc1,"2-Propenoic acid, 3-phenyl-, 3-phenyl-2-propenyl ester",554.3499999999998,le15,1
10729,Clc1ccc(C(Cl)(Cl)Cl)cc1Cl,"Toluene, alpha,alpha,alpha,3,4-pentachloro- (8CI)",396.65,le15,1
10730,c1ccc2sc(SNC3CCCCC3)nc2c1,"2-Benzothiazolesulfenamide, N-cyclohexyl-",475.15,le15,1
10731,CCN(CC)CCSSCCN(CC)CC,"Ethanamine, 2,2'-dithiobis(N,N-diethyl-",424.15,le15,1
10732,O=C(C(Cl)(Cl)Cl)C(Cl)(Cl)Cl,"2-Propanone, 1,1,1,3,3,3-hexachloro-",349.35,le15,1
10733,CCOP(=S)(CC)Oc1ccc(Cl)cc1,"Phosphonothioic acid, ethyl-, O-(4-chlorophenyl) O-ethyl ester",416.85,le15,1
10734,FC(F)(F)c1nc2ccc(Br)cc2[nH]1,"Benzimidazole, 5-bromo-2-(trifluoromethyl)-",422.55,le15,1
10735,CCOP(=O)(OCC)SC(Cl)=CCl,"Phosphorothioic acid, S-1,2-dichlorovinyl O,O-diethyl ester",399.05,le15,1
10736,CCOP(=O)(OCC)SC=C(Cl)Cl,"Phosphorothioic acid, S-2,2-dichlorovinyl O,O-diethyl ester",387.05,le15,1
10737,Cc1ccccc1-n1c(C)nc2ccc(N)cc2c1=O,"4(3H)-Quinazolinone, 6-amino-2-methyl-3-(o-tolyl)-",519.45,le15,1
10738,CCCCNCC1COc2cccc(OCC)c2O1,"1,4-Benzodioxan, 2-(butylaminomethyl)-8-ethoxy-",426.05,le15,1
10739,O=[N+]([O-])c1cc(Cl)c2[nH]c(C(F)(F)F)nc2c1,"Benzimidazole, 4-chloro-6-nitro-2-(trifluoromethyl)-",457.85,le15,1
10740,O=[N+]([O-])c1cc2nc(C(F)(F)F)[nH]c2cc1Cl,"Benzimidazole, 5-chloro-6-nitro-2-(trifluoromethyl)-",465.85,le15,1
10741,N#Cc1c(Cl)c(Cl)c(Cl)c(C#N)c1Cl,"1,3-Benzenedicarbonitrile, 2,4,5,6-tetrachloro-",426.95,le15,1
10742,ClCCCCCCCCC(Cl)(Cl)Cl,"Nonane, 1,1,1,9-tetrachloro-",389.35,le15,1
10743,Nc1cnn(-c2ccccc2)c(=O)c1Br,"3(2H)-Pyridazinone, 5-amino-4-bromo-2-phenyl-",423.75,le15,1
10744,CCC1(O)CC(=O)c2c(O)c(O)c(O)c(O)c2C1=O,"2-Ethyl-2,5,6,7,8-pentahydroxy-1,4-naphthoquinone",360.55,le15,1
10745,O=[N+]([O-])c1cc(C2CCCCC2)c(O)c([N+](=O)[O-])c1,"Phenol, 2-cyclohexyl-4,6-dinitro-",402.75,le15,1
10746,Nc1ncnc2c1ccn2[C@@H]1O[C@H](CO)[C@@H](O)[C@H]1O,"7-beta-D-ribofuranosyl-7H-pyrrolo-(2,3-d)pyrimidin-4-amine (9CI)",619.3499999999998,le15,1
10747,CCc1oc2ccccc2c1C(=O)c1ccc(O)cc1,"Methanone, (2-ethyl-3-benzofuranyl)(4-hydroxyphenyl)-",513.3499999999998,le15,1
10748,Oc1c(Cl)c(Cl)c(Cl)c(Cl)c1Cl,"Phenol, pentachloro-",406.85,le15,1
10749,Cc1c(C)c([N+](=O)[O-])c(C(C)(C)C)c([N+](=O)[O-])c1C,"Benzene, 1-(1,1-dimethylethyl)-2,6-dinitro-3,4,5-trimethyl-",447.75,le15,1
10750,c1ccc2c(c1)Cc1ccc3ccc4ccccc4c3c1-2,"9H-Indeno(2,1-c)phenanthrene",516.05,le15,1
10751,Cc1c2ccccc2c2ccc3cccc4ccc1c2c43,6-Methylbenzo(def)chrysene,509.85,le15,1
10752,Cc1cc2c3ccccc3cc3ccc4cccc1c4c32,"Benzo(a)pyrene, 12-methyl-",509.85,le15,1
10753,c1ccc2c(c1)Cc1c-2ccc2ccc3ccccc3c12,"13H-Indeno(1,2-c)phenanthrene",516.05,le15,1
10754,CC=C(C(=CC)c1ccc(O)cc1)c1ccc(O)cc1,"Phenol, 4,4'-(1,2-diethylidene-1,2-ethanediyl)bis-",454.55,le15,1
10755,O=C(C=Cc1ccccc1)OCCCc1ccccc1,"2-Propenoic acid, 3-phenyl-, 3-phenylpropyl ester",533.75,le15,1
10756,CCCCOP(=O)(OCCCC)OCCCC,Phosphoric acid tributyl ester,466.45,le15,1
10757,CC=CCC(C(=O)O)c1ccc(-c2ccccc2)cc1,"(1,1-Biphenyl)-4-acetic acid, alpha-2-butenyl-",597.3499999999998,le15,1
10758,CC(C)COP(=O)(OCC(C)C)OCC(C)C,"Phosphoric acid, tris(2-methylpropyl) ester",398.95,le15,1
10759,CC(=O)Nc1ccc(OCC(O)CNC(C)C)cc1,"Acetamide, N-(4-(2-hydroxy-3-((1-methylethyl)amino)propoxy)phenyl)-",525.45,le15,1
10760,CNCCCN1c2ccccc2CCc2ccccc21,"5H-Dibenz(b,f)azepine, 10,11-dihydro-5-(3-(methylamino)propyl)-",433.65,le15,1
10761,c1ccc(Nc2ccc(NC3CCCCC3)cc2)cc1,"1,4-Benzenediamine, N-cyclohexyl-N'-phenyl-",549.05,le15,1
10762,CCCCCCCCc1ccc(-c2ccccc2)cc1,"Biphenyl, 4-octyl- (6CI,7CI,8CI)",474.35,le15,1
10763,CC(C)N(Sc1nc2ccccc2s1)C(C)C,"2-Benzothiazolesulfenamide, N,N-bis(1-methylethyl)-",437.65,le15,1
10764,CCCCCCCCCCCCCCC1CCCC1,tetradecylcyclopentane,427.25,le15,1
10765,O=S(=O)(Cl)c1c(F)c(F)c(F)c(F)c1F,"2,3,4,5,6-pentafluorobenzenesulfonyl chloride",354.25,le15,1
10766,BrCC(Br)Br,"1,1,2-tribromoethane",340.75,le15,1
10767,O=[N+]([O-])c1cc(F)cc(I)c1,3-Nitro-5-fluoro-1-iodobenzene,394.85,le15,1
10768,Cc1ccc2c(c1[N+](=O)[O-])C(=O)c1ccccc1C2=O,"9,10-Anthracenedione, 2-methyl-1-nitro- (9CI)",521.8499999999998,le15,1
10769,O=c1nc[nH]c2c1ccn2[C@@H]1O[C@H](CO)[C@@H](O)[C@H]1O,"4H-Pyrrolo(2,3-d)pyrimidin-4-one, 1,7-dihydro-7-beta-D-ribofuranosyl-",604.8499999999998,le15,1
10770,NC(=O)CC[C@H](Nc1ccc([N+](=O)[O-])cc1)C(=O)O,"L-Glutamine, N-(4-nitrophenyl)-",584.15,le15,1
10771,Nc1ncnc2c1ncn2[C@@H]1O[C@H](CO)[C@@H](O)[C@@H]1O,9-beta-D-Arabinofuranosyl-9H-purin-6-amine (9CI),635.95,le15,1
10772,Nc1ncnc2c1ncn2[C@@H]1O[C@H](CO)[C@@H](O)[C@H]1O,Adenosine,635.95,le15,1
10773,CC1=C(C(=O)Nc2ccccc2)S(=O)(=O)CCO1,"1,4-Oxathiin-3-carboxamide, 5,6-dihydro-2-methyl-N-phenyl-, 4,4-dioxid",546.05,le15,1
10774,Cc1noc(NS(=O)(=O)c2ccc(N)cc2)c1C,"Benzenesulfonamide, 4-amino-N-(3,4-dimethyl-5-isoxazolyl)-",518.55,le15,1
10775,c1ccc2c(c1)ccc1[nH]c3ccc4ccccc4c3c12,"7H-Dibenzo(c,g)carbazole",519.65,le15,1
10776,OC(c1ccccc1)(c1ccccc1)C1CCCCN1,"2-Piperidinemethanol, alpha,alpha-diphenyl-",400.55,le15,1
10777,CN(C)c1ccc(C(=N)c2ccc(N(C)C)cc2)cc1,"Benzenamine, 4,4'-carbonimidoylbis(N,N-dimethyl-",472.55,le15,1
10778,CCCCC(=O)OC1CCC(N2CCCCC2)CC1,"Pentanoic acid, 4-(1-piperidinyl)cyclohexyl ester (9CI)",381.75,le15,1
10779,CC(C)CC(=O)OC1CCC(N2CCCCC2)CC1,"Isovaleric acid, 4-piperidinocyclohexyl ester",379.35,le15,1
10780,CC(=O)OC(c1ccccc1)C(Cl)(Cl)Cl,"Benzyl alcohol, alpha-(trichloromethyl)-, acetate (9CI)",418.25,le15,1
10781,Clc1c(Cl)c(Cl)c2nccnc2c1Cl,"Quinoxaline, 5,6,7,8-tetrachloro-",488.15,le15,1
10782,O=c1oc(=O)c2ccc3c(=O)oc(=O)c4ccc1c2c43,"1,4,5,8-Naphthalenetetracarboxylic 1,8:4,5-dianhydride (8CI)",553.55,le15,1
10783,O=c1oc2cc(O)ccc2c2oc3cc(O)ccc3c12,"6H-Benzofuro(3,2-c)(1)benzopyran-6-one, 3,9-dihydroxy-",472.45,le15,1
10784,O=C1C=CC(=O)N1c1cccc(N2C(=O)C=CC2=O)c1,"1,1'-(m-Phenylene)bis-1H-pyrrole-2,5-dione (9CI)",523.8499999999998,le15,1
10785,OC[C@H]1O[C@@H](n2cnc3c(O)ncnc32)[C@H](O)[C@@H]1O,Inosine,670.143,le15,1
10786,CC(=O)C1c2cccc(O)c2C(=O)c2c(O)cccc21,"9(10H)-Anthracenone, 10-acetyl-1,8-dihydroxy-",528.05,le15,1
10787,COc1c(C(C)(C)C)cc([N+](=O)[O-])c(C)c1[N+](=O)[O-],"Benzene, 1-(1,1-dimethylethyl)-2-methoxy-4-methyl-3,5-dinitro-",422.75,le15,1
10788,Nc1ccc(N)c2c1C(=O)c1c(N)ccc(N)c1C2=O,"Anthraquinone, 1,4,5,8-tetraamino- (8CI)",657.45,le15,1
10789,CN(C)c1ccc(C=Cc2ccc([N+](=O)[O-])cc2)cc1,"Benzenamine, N,N-dimethyl-4-(2-(4-nitrophenyl)ethenyl)-",475.95,le15,1
10790,Cc1ccc2cc3c(ccc4ccccc43)c3c2c1CC3,"Benz(j)aceanthrylene, 1,2-dihydro-3-methyl-",268.15,le15,1
10791,CCN(C(=O)N(CC)c1ccccc1)c1ccccc1,"Urea, N,N'-diethyl-N,N'-diphenyl-",423.95,le15,1
10792,CN(C)c1ccc(C(=O)c2ccc(N(C)C)cc2)cc1,"Methanone, bis(4-(dimethylamino)phenyl)-",493.15,le15,1
10793,CC(C)CC(C)Nc1ccc(Nc2ccccc2)cc1,"1,4-Benzenediamine, N-(1,3-dimethylbutyl)-N'-phenyl-",477.15,le15,1
10794,CCCCCCCC/C=C\CCCCCCCCO,(Z)-octadec-9-en-1-ol,393.85,le15,1
10795,COP(=S)(OC)Sc1ccc(Cl)cc1,"Phosphorodithioic acid, S-(4-chlorophenyl) O,O-dimethyl ester",424.35,le15,1
10796,Oc1ccc(Cl)cc1Cc1cc(Cl)ccc1O,"Phenol, 2,2'-methylenebis(4-chloro-",480.15,le15,1
10797,CN(Cc1ccc(Cl)cc1Cl)S(N)(=O)=O,"Sulfamide, N-(2,4-dichlorobenzyl)-N-methyl-",477.05,le15,1
10798,Clc1ccc(CSc2ccc(Cl)cc2)cc1,"Benzene, 1-chloro-4-(((4-chlorophenyl)methyl)thio)-",441.55,le15,1
10799,CC(=O)Nc1ccc(N=Nc2cc(C)ccc2O)cc1,"Acetamide, N-(4-(2-(2-hydroxy-5-methylphenyl)diazenyl)phenyl)-",549.8499999999998,le15,1
10800,c1ccc2cc(Nc3ccc4ccccc4c3)ccc2c1,N-naphthalen-2-ylnaphthalen-2-amine,541.65,le15,1
10801,Oc1ccc(-c2ccccc2)cc1CN1CCOCC1,"(1,1'-Biphenyl)-4-ol, 3-(4-morpholinylmethyl)-",474.05,le15,1
10802,OCCCl.OCCCl.OCCCl.OP(O)O,"Ethanol, 2-chloro-, phosphite (3:1)",370.35,le15,1
10803,CC(Oc1cc(Cl)c(Cl)cc1Cl)C(=O)O,"Propionic acid, 2-(2,4,5-trichlorophenoxy)-",455.75,le15,1
10804,CCCCCCCCCCCCCCCCCCN,1-Octadecanamine,421.15,le15,1
10805,CC(C)(C)C(Br)C(=O)Nc1ccccc1,"2-Bromo-3,3-dimethyl-N-phenylbutanamide",453.05,le15,1
10806,O=C1c2ccccc2C(=O)c2c1cc(O)c(CO)c2O,"9,10-Anthracenedione, 1,3-dihydroxy-2-(hydroxymethyl)- (9CI)",594.75,le15,1