,smiles,compound,flashpoint,source,pure substance
13162,CCc1ccccc1.[O-]O,ETHYLBENZENE HYDROPEROXIDE,414.0,didier14,1
13163,CCCCCCC(C)C,2-METHYLOCTANE,296.0,didier14,1
13164,CCCCCCCCCC(=O)O,n-DECANOIC ACID,412.0,didier14,1
13165,C=CC(C)CCC,3-METHYL-1-HEXENE,267.1,didier14,1
13166,COC(C)COC(C)CO,DIPROPYLENE GLYCOL MONOMETHYL ETHER,347.1,didier14,1
13167,CC(C)CCC(C)(C)C,"2,2,5-TRIMETHYLHEXANE",286.0,didier14,1
13168,CCCCCCCCCCCOC(=O)c1ccccc1C(=O)OCCCCCCCCCCC,DI-n-UNDECYL PHTHALATE,535.0,didier14,1
13169,CCCCCCCOC(=O)c1ccccc1C(=O)OCCCCCCC,DI-n-HEPTYL PHTHALATE,485.0,didier14,1
13170,,TRIACETONE ALCOHOL,384.0,didier14,1
13171,,3-METHOXYISOPROPYLAMINE,281.1,didier14,1
13172,CC1CCC(C)C(C)C1C,"1,2,3,4-TETRAMETHYLCYCLOHEXANE",319.0,didier14,1
13173,NCCCCCC(N)=O,6-AMINOHEXANAMIDE,444.0,didier14,1
13174,CC(C=O)CO,3-HYDROXY-2-METHYL PROPIONALDEHYDE,352.0,didier14,1
13175,CC(C)C1CCCC1,ISOPROPYLCYCLOPENTANE,283.0,didier14,1
13176,CC(O)COC(C)C,1-ISOPROPOXY-2-PROPANOL,309.0,didier14,1
13177,C=CCOOC(C)(C)C,ALLYL-TERT-BUTYLPEROXIDE,286.0,didier14,1
13178,NCCCCCCO,6-AMINOHEXANOL,390.0,didier14,1
13179,CC(C)(C)NCCNC(C)(C)C,"N,N'-DI-tert-BUTYLETHYLENEDIAMINE",334.0,didier14,1
13180,O=COC1CCCCC1,CYCLOHEXYL FORMATE,324.1,didier14,1
13181,CC(O)C(O)CO,"1,2,3-BUTANETRIOL",474.0,didier14,1
13182,N#CC#N,CYANOGEN,204.0,didier14,1
13183,NCCCCCN,"1,5-PENTANEDIAMINE",335.1,didier14,1
13184,,ETHYLAL,266.0,didier14,1
13185,CCCCCCCCOC(=O)c1ccc(C(=O)OCCCCCCCC)cc1,DI-n-OCTYL TEREPHTHALATE,507.0,didier14,1
13186,CCCCOO,n-BUTYLHYDROPEROXIDE,325.0,didier14,1
13187,Cc1ccc(C)c(C)c1C,"1,2,3,4-TETRAMETHYLBENZENE",341.1,didier14,1
13188,C/C(=C/C(=O)O)C(=O)O,CITRACONIC ACID,493.0,didier14,1
13189,C=O,FORMALDEHYDE,206.0,didier14,1
13190,CC(O)C(=O)O,LACTIC ACID,410.0,didier14,1
13191,CCCCC(=O)CCCC,5-NONANONE,333.1,didier14,1
13192,CC(C)CC(=O)O,ISOVALERIC ACID,350.0,didier14,1
13193,O=C(O)CCCCCCC(=O)O,SUBERIC ACID,489.0,didier14,1
13194,CC(=O)Oc1ccccc1C(=O)O,ACETYLSALICYLIC ACID,436.0,didier14,1
13195,CC=C(C)C,2-METHYL-2-BUTENE,228.2,didier14,1
13196,CC(C)CS,ISOBUTYL MERCAPTAN,264.1,didier14,1
13197,CC(O)C(C)O,"2,3-BUTANEDIOL",358.1,didier14,1
13198,,CROTYL GLYCOL ETHER,341.0,didier14,1
13199,Cc1cccc(C)c1C,"1,2,3-TRIMETHYLBENZENE",317.1,didier14,1
13200,Cc1cccc(O)c1C,"2,3-XYLENOL",365.0,didier14,1
13201,O=C(O)c1ccc(C(=O)O)c(C(=O)O)c1,TRIMELLITIC ACID,550.0,didier14,1
13202,COC(C)OC,"1,1-DIMETHOXYETHANE",256.1,didier14,1
13203,CCCCCc1ccccc1,n-PENTYLBENZENE,338.1,didier14,1
13204,N#CCN,AMINOACETONITRILE,339.0,didier14,1
13205,SCCS,"1,2-ETHANEDITHIOL",317.1,didier14,1
13206,Clc1cccc(Cl)c1,m-DICHLOROBENZENE,345.0,didier14,1
13207,CC(=O)OC(C)OC(C)=O,ETHYLIDENE DIACETATE,337.0,didier14,1
13208,CC(C)COC=O,ISOBUTYL FORMATE,277.0,didier14,1
13209,CCCCCC(C)O,2-HEPTANOL,332.1,didier14,1
13210,CCCCCCl,1-CHLOROPENTANE,286.0,didier14,1
13211,N#CCCCC#N,GLUTARONITRILE,417.0,didier14,1
13212,CCCCCCCCCCCCCCCC,n-HEXADECANE,408.1,didier14,1
13213,COC(=O)C(C)C,METHYL ISOBUTYRATE,276.1,didier14,1
13214,COC(=O)C(C)O,METHYL LACTATE,322.1,didier14,1
13215,CCOCC(C)OC(C)=O,PROPYLENE GLYCOL ETHYL ETHER ACETATE,327.0,didier14,1
13216,NC(=O)c1ccccc1,BENZAMIDE,430.0,didier14,1
13217,CCC(=O)OC,METHYL PROPIONATE,271.0,didier14,1
13218,C=CC(C)(C)C,"3,3-DIMETHYL-1-BUTENE",245.2,didier14,1
13219,CCC(C)(C)C(C)C,"2,3,3-TRIMETHYLPENTANE",273.0,didier14,1
13220,C=CC(C)C,3-METHYL-1-BUTENE,217.2,didier14,1
13221,CC(C)=C(C)C,"2,3-DIMETHYL-2-BUTENE",257.1,didier14,1
13222,CC(=O)C(C)C,METHYL ISOPROPYL KETONE,279.1,didier14,1
13223,CCC(C)C(C)(C)C,"2,2,3-TRIMETHYLPENTANE",270.0,didier14,1
13224,,"cis-1,8-TERPIN",410.0,didier14,1
13225,,"trans-1,8-TERPIN",418.0,didier14,1
13226,c1ccc2cc3c(ccc4ccccc43)cc2c1,BENZANTHRACENE,508.0,didier14,1
13227,CCC(C)C(C)=O,3-METHYL-2-PENTANONE,285.1,didier14,1
13228,CCC(=O)C(C)C,ETHYL ISOPROPYL KETONE,286.1,didier14,1
13229,CC(C)C(C)C(C)C,"2,3,4-TRIMETHYLPENTANE",273.0,didier14,1
13230,CC(C)C(=O)C(C)C,DIISOPROPYL KETONE,288.1,didier14,1
13231,,PROPYLENE GLYCOL 1-tert-BUTYL ETHER,317.1,didier14,1
13232,CCCCCCCCCCCCCCCCCC(=O)O,n-OCTADECANOIC ACID,476.1,didier14,1
13233,CC(O)CO,"1,2-PROPYLENE GLYCOL",372.0,didier14,1
13234,Cc1cccc(C)c1O,"2,6-XYLENOL",346.1,didier14,1
13235,,ACROLEIN CYANOHYDRIN,366.0,didier14,1
13236,Cc1ccc2cc(C)ccc2c1,"2,6-DIMETHYLNAPHTHALENE",381.0,didier14,1
13237,Cc1ccc2ccc(C)cc2c1,"2,7-DIMETHYLNAPHTHALENE",382.0,didier14,1
13238,CCC(C)C(C)CC,"3,4-DIMETHYLHEXANE",277.0,didier14,1
13239,CCC(O)CC,3-PENTANOL,300.0,didier14,1
13240,CCC(O)CO,"1,2-BUTANEDIOL",363.1,didier14,1
13241,COCC(C)=O,METHOXYACETONE,293.0,didier14,1
13242,CC(O)COC(C)COC(C)(C)C,1-tert-BUTOXY-2-[2-(HYDROXY)PROPOXY]PROPANE,400.0,didier14,1
13243,CCC(C)CCO,3-METHYL-1-PENTANOL,331.1,didier14,1
13244,CCC(C)CC(C)C,"2,4-DIMETHYLHEXANE",283.1,didier14,1
13245,CCCC(C)CCC,4-METHYLHEPTANE,279.1,didier14,1
13246,CCCCC(C)CC,3-METHYLHEPTANE,279.0,didier14,1
13247,CCCCOC(=O)CC,n-BUTYL PROPIONATE,305.4,didier14,1
13248,CC1(C)CCCCC1,"1,1-DIMETHYLCYCLOHEXANE",276.0,didier14,1
13249,CC1(O)CCCCC1,1-METHYLCYCLOHEXANOL,338.1,didier14,1
13250,CCCCCCC(C)CC,3-METHYLNONANE,311.0,didier14,1
13251,CCCCC(C)=O,2-HEXANONE,296.1,didier14,1
13252,C=CCOC(C)=O,ALLYL ACETATE,295.4,didier14,1
13253,CC(C)CCC(C)C,"2,5-DIMETHYLHEXANE",271.0,didier14,1
13254,CCCCCC(C)C,2-METHYLHEPTANE,277.1,didier14,1
13255,C=CCCCC,1-HEXENE,242.0,didier14,1
13256,C=CCCCCC,1-HEPTENE,265.1,didier14,1
13257,CCCCCCCCCCCCCCCCCCCCCCCCCCC,n-HEPTACOSANE,475.0,didier14,1
13258,CC(C)(O)C(=O)O,alpha-HYDROXYISOBUTYRIC ACID,396.0,didier14,1
13259,CC(C)(C)CC(=O)O,NEOHEXANOIC ACID,352.1,didier14,1
13260,CC(C)C(C)O,3-METHYL-2-BUTANOL,299.1,didier14,1
13261,CCc1ccc2cc(CC)ccc2c1,"2,6-DIETHYLNAPHTHALENE",410.0,didier14,1
13262,Nc1ccc(N=Nc2ccccc2)cc1,p-AMINOAZOBENZENE,466.0,didier14,1
13263,OCCS,2-MERCAPTOETHANOL,340.1,didier14,1
13264,CCOCC,DIETHYL ETHER,228.2,didier14,1
13265,CCCC(C)O,2-PENTANOL,307.0,didier14,1
13266,CC(N)=O,ACETAMIDE,398.0,didier14,1
13267,c1ccc(-c2cccc3ccccc23)cc1,1-PHENYLNAPHTHALENE,435.0,didier14,1
13268,Cc1c([N+](=O)[O-])cccc1[N+](=O)[O-],"2,6-DINITROTOLUENE",417.0,didier14,1
13269,C=C(C)CCCC,2-METHYL-1-HEXENE,267.1,didier14,1
13270,Cc1ccc([N+](=O)[O-])c([N+](=O)[O-])c1,"3,4-DINITROTOLUENE",453.0,didier14,1
13271,CCc1ccccc1C,o-ETHYLTOLUENE,312.1,didier14,1
13272,OC/C=C\CO,"cis-2-BUTENE-1,4-DIOL",401.1,didier14,1
13273,,3-METHYL-trans-2-PENTENE,246.2,didier14,1
13274,CCC(Cl)CCl,"1,2-DICHLOROBUTANE",297.0,didier14,1
13275,OCC(Cl)CCl,"2,3-DICHLORO-1-PROPANOL",365.0,didier14,1
13276,CSC(C)(C)C,METHYL t-BUTYL SULFIDE,270.1,didier14,1
13277,COC(=O)OC,DIMETHYL CARBONATE,289.9,didier14,1
13278,O=C(Cl)c1cccc(Cl)c1,m-CHLOROBENZOYL CHLORIDE,372.0,didier14,1
13279,Cc1cc([N+](=O)[O-])cc([N+](=O)[O-])c1,"3,5-DINITROTOLUENE",443.0,didier14,1
13280,Cc1cc([N+](=O)[O-])ccc1[N+](=O)[O-],"2,5-DINITROTOLUENE",438.0,didier14,1
13281,CCCCCOCCO,2-PENTOXYETHANOL,347.0,didier14,1
13282,O=Cc1ccc(C(=O)O)cc1,4-CARBOXYBENZALDEHYDE,548.0,didier14,1
13283,O=C(O)C1CCC(C(=O)O)CC1,"1,4-CYCLOHEXANEDICARBOXYLIC ACID",508.1,didier14,1
13284,CCCC(CC)CC,3-ETHYLHEXANE,279.0,didier14,1
13285,CCc1cccc(C)c1,m-ETHYLTOLUENE,311.1,didier14,1
13286,CC(=O)OC1CCCCC1,CYCLOHEXYL ACETATE,330.1,didier14,1
13287,CCc1ccc(C)cc1,p-ETHYLTOLUENE,309.1,didier14,1
13288,,TEREPHTHALDEHYDE,394.0,didier14,1
13289,CCCC(=O)OC,METHYL n-BUTYRATE,287.0,didier14,1
13290,COC(=O)/C=C\C(=O)OC,DIMETHYL MALEATE,386.1,didier14,1
13291,CCSC,METHYL ETHYL SULFIDE,258.1,didier14,1
13292,Nc1ccccc1,ANILINE,343.1,didier14,1
13293,COCC(=O)O,METHOXYACETIC ACID,388.0,didier14,1
13294,CC(O)CC(C)O,"2,4-PENTANEDIOL",374.1,didier14,1
13295,CCCCC(C)O,2-HEXANOL,319.3,didier14,1
13296,CCCC[N+](=O)[O-],1-NITROBUTANE,320.1,didier14,1
13297,OCCCCl,1-CHLORO-3-PROPANOL,346.1,didier14,1
13298,CCCCCC(N)=O,HEXANAMIDE,410.0,didier14,1
13299,CCCCSC,METHYL n-BUTYL SULFIDE,289.0,didier14,1
13300,CCCOCC,ETHYL PROPYL ETHER,247.0,didier14,1
13301,CCCCCOC(C)=O,n-PENTYL ACETATE,296.1,didier14,1
13302,CCCCCC#N,HEXANENITRILE,320.0,didier14,1
13303,N#CCNCC#N,"2,2'-IMINOBIS-ACETONITRILE",413.0,didier14,1
13304,CCOCCOCC,"1,2-DIETHOXYETHANE",300.1,didier14,1
13305,CCCCCCCCCCCCC,n-TRIDECANE,352.0,didier14,1
13306,CCCCCCCCCCCCCC,n-TETRADECANE,373.1,didier14,1
13307,C=CCCCCCCCCCCCCCC,1-HEXADECENE,405.1,didier14,1
13308,CCCCCCCCCCCCCCCCC,n-HEPTADECANE,421.1,didier14,1
13309,CCCCCCCCCCCCCCCCCCC,n-NONADECANE,441.0,didier14,1
13310,CCCCCCCCCCCCCCCCCCCCCCCCCCCC,n-OCTACOSANE,475.0,didier14,1
13311,CCCCCCCCCCCCCCCCCCCCCCCCCCCCC,n-NONACOSANE,475.0,didier14,1
13312,ClCC(Cl)(Cl)Cl,"1,1,1,2-TETRACHLOROETHANE",334.0,didier14,1
13313,CCCCCCCCCCCCCCCCCCCCCCCCCCCCCC,n-TRIACONTANE,475.0,didier14,1
13314,CCO,ETHANOL,286.0,didier14,1
13315,CC(=O)O,ACETIC ACID,316.0,didier14,1
13316,C/C=C\CCCC,cis-2-HEPTENE,265.0,didier14,1
13317,C/C=C/CC,trans-2-PENTENE,225.0,didier14,1
13318,,"1,2-BENZENE DICARBOXYLIC ACID, HEPTYL, UNDECYL ESTER",514.0,didier14,1
13319,CCCCCCCCCCCOC(=O)c1ccccc1C(=O)OCCCCCCCCC,n-NONYL n-UNDECYL PHTHALATE,524.0,didier14,1
13320,O=C(O)c1ccccc1,BENZOIC ACID,394.3,didier14,1
13321,,"1,4-BENZENEDICARBOXYLIC ACID,BIS(2,3-DIHYDROXYPROPYL)ESTER",575.0,didier14,1
13322,CCCCCC=O,HEXANAL,300.0,didier14,1
13323,CO,METHANOL,284.0,didier14,1
13324,CC(C)O,ISOPROPANOL,285.1,didier14,1
13325,O=C(O)CS,THIOGLYCOLIC ACID,398.0,didier14,1
13326,CN(C)C=O,"N,N-DIMETHYLFORMAMIDE",331.0,didier14,1
13327,CC(C)C(=O)OCC(C)(C)C(OC(=O)C(C)C)C(C)C,"2,2,4-TRIMETHYL-1,3-PENTANEDIOL DIISOBUTYRATE",394.0,didier14,1
13328,CCCOCCOCCO,DIETHYLENE GLYCOL MONOPROPYL ETHER,372.0,didier14,1
13329,O=C(O)CC(O)C(=O)O,MALIC ACID,515.0,didier14,1
13330,CC(C)C1CCCCC1,ISOPROPYLCYCLOHEXANE,308.1,didier14,1
13331,O=C(O)c1ccccc1O,SALICYLIC ACID,430.0,didier14,1
13332,CC12CC3CC(C1)CC(C)(C3)C2,"1,3-DIMETHYLADAMANTANE",325.1,didier14,1
13333,CCC(C)C1CCCCC1,sec-BUTYLCYCLOHEXANE,319.0,didier14,1
13334,CCCO,1-PROPANOL,291.0,didier14,1
13335,C1CCC(SC2CCCCC2)CC1,DICYCLOHEXYL SULFIDE,393.0,didier14,1
13336,CCCCO,1-BUTANOL,306.0,didier14,1
13337,CCCCCO,1-PENTANOL,320.0,didier14,1
13338,c1ccccc1,BENZENE,262.0,didier14,1
13339,CCC(C)(C)C(C)(C)C,"2,2,3,3-TETRAMETHYLPENTANE",289.0,didier14,1
13340,CCC(C)CC(C)(C)CC,"3,3,5-TRIMETHYLHEPTANE",301.0,didier14,1
13341,N#CCN(CC#N)CC#N,"2,2',2''-NITRILOTRIS-ACETONITRILE",487.0,didier14,1
13342,CC,ETHANE,138.2,didier14,1
13343,C=C,ETHYLENE,124.0,didier14,1
13344,CN,METHYLAMINE,215.0,didier14,1
13345,CCC,PROPANE,169.2,didier14,1
13346,CC#N,ACETONITRILE,275.1,didier14,1
13347,CC=O,ACETALDEHYDE,235.0,didier14,1
13348,CSC,DIMETHYL SULFIDE,237.2,didier14,1
13349,CC(C)Cl,ISOPROPYL CHLORIDE,238.2,didier14,1
13350,CC(C)N,ISOPROPYLAMINE,236.2,didier14,1
13351,CC(C)S,ISOPROPYL MERCAPTAN,238.2,didier14,1
13352,CC(Cl)Cl,"1,1-DICHLOROETHANE",261.1,didier14,1
13353,C=C(Cl)Cl,"1,1-DICHLOROETHYLENE",251.2,didier14,1
13354,C[N+](=O)[O-],NITROMETHANE,308.1,didier14,1
13355,CC(C)(C)O,2-METHYL-2-PROPANOL,284.3,didier14,1
13356,CC(Cl)C(C)Cl,"2,3-DICHLOROBUTANE",291.1,didier14,1
13357,CCC(C)(C)O,2-METHYL-2-BUTANOL,293.1,didier14,1
13358,CC(C)(O)C#N,ACETONE CYANOHYDRIN,336.1,didier14,1
13359,O=CC(Cl)(Cl)Cl,TRICHLOROACETALDEHYDE,323.0,didier14,1
13360,CCOC(C)COC(C)COC(C)CO,TRIPROPYLENE GLYCOL MONOETHYL ETHER,405.0,didier14,1
13361,CC(C)(C)OO,t-BUTYL HYDROPEROXIDE,299.8,didier14,1
13362,CC(=O)C(C)(C)C,"3,3-DIMETHYL-2-BUTANONE",285.1,didier14,1
13363,C=CC(C)CC,3-METHYL-1-PENTENE,245.2,didier14,1
13364,C=CC(Cl)CCl,"3,4-DICHLORO-1-BUTENE",301.1,didier14,1
13365,CCOCCC(=O)OCC,ETHYL-3-ETHOXYPROPIONATE,331.1,didier14,1
13366,C/C=C\CCCCC,cis-2-OCTENE,294.0,didier14,1
13367,CCC/C=C\CCC,cis-4-OCTENE,290.0,didier14,1
13368,C1CCC(OOC2CCCCC2)CC1,CYCLOHEXYL PEROXIDE,381.0,didier14,1
13369,,"2-METHYL-, 3-HYDROXY-2,2,4-TRIMETHYLPENTYL PROPANOATE",379.1,didier14,1
13370,CCC(C)(O)CC,3-METHYL-3-PENTANOL,297.1,didier14,1
13371,COCC(C)OC,"1,2-DIMETHOXYPROPANE",273.7,didier14,1
13372,O=C(O)CC(O)(CC(=O)O)C(=O)O,CITRIC ACID,549.0,didier14,1
13373,CCC(CO)(CO)CO,TRIMETHYLOLPROPANE,445.1,didier14,1
13374,CCC1(CC)CCCCC1,"1,1-DIETHYLCYCLOHEXANE",322.1,didier14,1
13375,,TRILACTIC ACID,496.0,didier14,1
13376,CC(C)CN,ISOBUTYLAMINE,255.3,didier14,1
13377,CC(C)C#N,ISOBUTYRONITRILE,281.5,didier14,1
13378,CC(C)CO,2-METHYL-1-PROPANOL,301.0,didier14,1
13379,CCC(C)Cl,sec-BUTYL CHLORIDE,244.0,didier14,1
13380,CC(Cl)CCl,"1,2-DICHLOROPROPANE",286.1,didier14,1
13381,C=C(Cl)CCl,"2,3-DICHLOROPROPENE",283.1,didier14,1
13382,CC(N)CN,"1,2-PROPANEDIAMINE",306.1,didier14,1
13383,CCC(C)O,2-BUTANOL,296.1,didier14,1
13384,CC(O)CN,1-AMINO-2-PROPANOL,347.0,didier14,1
13385,CC(O)C#N,LACTONITRILE,350.1,didier14,1
13386,CNC(C)=O,N-METHYLACETAMIDE,381.1,didier14,1
13387,COC(C)=O,METHYL ACETATE,263.1,didier14,1
13388,CC(=O)OO,PERACETIC ACID,313.1,didier14,1
13389,COC(=O)Cl,METHYL CHLOROFORMATE,285.1,didier14,1
13390,CC[N+](=O)[O-],NITROETHANE,301.0,didier14,1
13391,CC(C)C(=O)O,ISOBUTYRIC ACID,329.1,didier14,1
13392,O=C(Cl)C(Cl)Cl,DICHLOROACETYL CHLORIDE,339.0,didier14,1
13393,,2-METHACRYLAMIDE,376.0,didier14,1
13394,O=C(O)C(Cl)Cl,DICHLOROACETIC ACID,383.1,didier14,1
13395,CC(C)[N+](=O)[O-],2-NITROPROPANE,297.1,didier14,1
13396,CC(C)(c1ccc(O)cc1)c1ccc(O)cc1,BISPHENOL A,480.1,didier14,1
13397,CC(C)c1ccccc1.[O-]O,CUMENE HYDROPEROXIDE,322.0,didier14,1
13398,CC1CCC(C(C)C)CC1.[O-]O,p-MENTHANE HYDROPEROXIDE,404.0,didier14,1
13399,C=CC(=O)OCCO,2-HYDROXYETHYL ACRYLATE,371.1,didier14,1
13400,OC/C=C/CO,"trans-2-BUTENE-1,4-DIOL",401.1,didier14,1
13401,CCCCCCCC(C)=O,2-NONANONE,337.1,didier14,1
13402,Cc1c(N)cccc1N,"2,6-DIAMINOTOLUENE",419.0,didier14,1
13403,c1ccc(C2CCCCC2)cc1,CYCLOHEXYLBENZENE,372.0,didier14,1
13404,COC(=O)c1ccc2cc(C(=O)OC)ccc2c1,"DIMETHYL-2,6-NAPHTHALENEDICARBOXYLATE",479.0,didier14,1
13405,c1ccc(-c2ccccc2-c2ccccc2)cc1,o-TERPHENYL,436.0,didier14,1
13406,O=C1c2ccccc2C(=O)c2ccccc21,ANTHRAQUINONE,458.1,didier14,1
13407,CCOC(=O)c1ccccc1C(=O)OCC,DIETHYL PHTHALATE,390.1,didier14,1
13408,CC(C)COC(=O)c1ccccc1C(=O)OCC(C)C,DIISOBUTYL PHTHALATE,434.1,didier14,1
13409,CCCCOC(=O)c1ccccc1C(=O)OCCCC,DI-n-BUTYL PHTHALATE,430.1,didier14,1
13410,CCCCCCOC(=O)c1ccccc1C(=O)OCCCCCC,DI-n-HEXYL PHTHALATE,466.1,didier14,1
13411,CCCCCCCCCOC(=O)c1ccccc1C(=O)OCCCCCCCCC,DI-n-NONYL PHTHALATE,489.1,didier14,1
13412,CCCCCCCCCCOC(=O)c1ccccc1C(=O)OCCCCCCCCCC,DI-n-DECYL PHTHALATE,505.0,didier14,1
13413,c1ccc2c(c1)ccc1ccccc12,PHENANTHRENE,444.0,didier14,1
13414,C=C(C)C(=O)OCCO,2-HYDROXYETHYL METHACRYLATE,370.1,didier14,1
13415,CCCCCc1cccc2ccccc12,1-n-PENTYLNAPHTHALENE,413.0,didier14,1
13416,CCCCCCCC(C)C,2-METHYLNONANE,314.0,didier14,1
13417,C=CCCCCCCCC,1-DECENE,311.0,didier14,1
13418,Clc1cccc(Cl)c1Cl,"1,2,3-TRICHLOROBENZENE",386.0,didier14,1
13419,Oc1cccc(O)c1O,"1,2,3-BENZENETRIOL",458.0,didier14,1
13420,ClC(Cl)=C(Cl)C(Cl)=C(Cl)Cl,"HEXACHLORO-1,3-BUTADIENE",395.0,didier14,1
13421,Cc1ccccc1[N+](=O)[O-],o-NITROTOLUENE,379.0,didier14,1
13422,O=[N+]([O-])c1ccccc1Cl,o-CHLORONITROBENZENE,400.1,didier14,1
13423,Nc1ccccc1[N+](=O)[O-],o-NITROANILINE,441.1,didier14,1
13424,COC(C)COC(C)COC(C)=O,DIPROPYLENE GLYCOL MONOMETHYL ETHER ACETATE,359.0,didier14,1
13425,O=C(O)c1ccccc1C(=O)O,PHTHALIC ACID,477.0,didier14,1
13426,O=C(O)c1cc(C(=O)O)c(C(=O)O)cc1C(=O)O,PYROMELLITIC ACID,597.0,didier14,1
13427,CCc1ccccc1O,o-ETHYLPHENOL,351.1,didier14,1
13428,O=Cc1ccccc1O,SALICYLALDEHYDE,349.1,didier14,1
13429,COc1ccccc1O,GUAIACOL,355.0,didier14,1
13430,Cc1cccc2ccccc12,1-METHYLNAPHTHALENE,355.1,didier14,1
13431,Clc1cccc2ccccc12,1-CHLORONAPHTHALENE,394.1,didier14,1
13432,c1ccc2ccccc2c1,NAPHTHALENE,352.0,didier14,1
13433,c1ccc2ncccc2c1,QUINOLINE,374.0,didier14,1
13434,Cc1ccc2ccccc2c1,2-METHYLNAPHTHALENE,370.1,didier14,1
13435,Cc1ccc2ccccc2n1,QUINALDINE,352.6,didier14,1
13436,CCN(CC)c1ccccc1,"N,N-DIETHYLANILINE",358.1,didier14,1
13437,C=C(C)C(=O)OCC(C)O,2-HYDROXYPROPYL METHACRYLATE,369.1,didier14,1
13438,C1CCC(C2CCCCC2)CC1,BICYCLOHEXYL,347.1,didier14,1
13439,CCCCCCC(=O)CC,3-NONANONE,339.1,didier14,1
13440,CCCCCC(=O)CCCCC,DIAMYL KETONE,361.5,didier14,1
13441,N#C/C=C\C#N,MALEONITRILE,389.0,didier14,1
13442,Nc1ccc(-c2ccc(N)cc2)cc1,BENZIDINE,521.0,didier14,1
13443,CC(O)OCCN,2-AMINOETHOXYETHANOL,397.0,didier14,1
13444,c1ccc(-c2ccc(-c3ccccc3)cc2)cc1,p-TERPHENYL,480.0,didier14,1
13445,CCc1ccc2ccccc2c1,2-ETHYLNAPHTHALENE,377.1,didier14,1
13446,,PROPYLENE GLYCOL 2-tert-BUTYL ETHER,324.0,didier14,1
13447,COC(=O)C1CCC(C(=O)OC)CC1,"DIMETHYL-1,4-CYCLOHEXANEDICARBOXYLATE",383.1,didier14,1
13448,Cc1ccccc1C,o-XYLENE,290.0,didier14,1
13449,Cc1ccccc1O,o-CRESOL,354.0,didier14,1
13450,Clc1ccccc1Cl,o-DICHLOROBENZENE,339.0,didier14,1
13451,Nc1ccccc1Cl,o-CHLOROANILINE,363.7,didier14,1
13452,Cc1ccccc1N,o-TOLUIDINE,358.1,didier14,1
13453,Oc1ccccc1Cl,o-CHLOROPHENOL,337.0,didier14,1
13454,Cc1ccc(C)c(C)c1,"1,2,4-TRIMETHYLBENZENE",318.6,didier14,1
13455,Cc1ccc(Cl)cc1Cl,"2,4-DICHLOROTOLUENE",369.3,didier14,1
13456,Nc1ccc(Cl)c(Cl)c1,"3,4-DICHLOROANILINE",439.0,didier14,1
13457,Cc1ccc(C)c(O)c1,"2,5-XYLENOL",360.0,didier14,1
13458,CCOC(=O)C(=O)OCC,DIETHYL OXALATE,339.2,didier14,1
13459,O=C(OCCO)c1ccc(C(=O)OCCO)cc1,BIS-(2-HYDROXYETHYL) TEREPHTHALATE,545.0,didier14,1
13460,Cc1cc(C)c(C)cc1C,"1,2,4,5-TETRAMETHYLBENZENE",328.0,didier14,1
13461,ClCC(Cl)CCl,"1,2,3-TRICHLOROPROPANE",347.0,didier14,1
13462,CCC(=O)CC,3-PENTANONE,286.0,didier14,1
13463,OC(CCl)CCl,"1,3-DICHLORO-2-PROPANOL",358.1,didier14,1
13464,OCC(O)CCl,"3-CHLORO-1,2-PROPANEDIOL",408.1,didier14,1
13465,COC(=O)CCl,METHYL CHLOROACETATE,324.8,didier14,1
13466,COC(=O)CO,METHYL GLYCOLATE,339.1,didier14,1
13467,CC1CCCC1,METHYLCYCLOPENTANE,246.0,didier14,1
13468,O=[N+]([O-])c1ccc(Cl)c([N+](=O)[O-])c1,"1-CHLORO-2,4-DINITROBENZENE",467.0,didier14,1
13469,CCOC(=O)C(C)C,ETHYL ISOBUTYRATE,287.0,didier14,1
13470,CCOC(=O)C(C)O,ETHYL LACTATE,319.1,didier14,1
13471,C=C(CC(=O)O)C(=O)O,ITACONIC ACID,488.0,didier14,1
13472,CCC(CC)CO,2-ETHYL-1-BUTANOL,330.0,didier14,1
13473,CC(C)(C)c1ccccc1,tert-BUTYLBENZENE,333.1,didier14,1
13474,CC(C)(C)c1ccc(O)c(O)c1,p-tert-BUTYLCATECHOL,403.0,didier14,1
13475,CC(C)c1ccc(C(C)C)cc1.[O-]O,p-DIISOPROPYLBENZENE HYDROPEROXIDE,465.0,didier14,1
13476,O=[N+]([O-])c1ccccc1,NITROBENZENE,361.0,didier14,1
13477,Cc1cccc([N+](=O)[O-])c1,m-NITROTOLUENE,375.0,didier14,1
13478,CCC(C)(C)OC,METHYL tert-PENTYL ETHER,262.1,didier14,1
13479,O=[N+]([O-])c1ccc(Cl)c(Cl)c1,"1,2-DICHLORO-4-NITROBENZENE",396.1,didier14,1
13480,O=[N+]([O-])c1cccc([N+](=O)[O-])c1,m-DINITROBENZENE,423.1,didier14,1
13481,C=CCOC(=O)/C=C\C(=O)OCC=C,DIALLYL MALEATE,393.0,didier14,1
13482,,4-HYDROXYACETOPHENONE,447.0,didier14,1
13483,C=CC(=O)OCC(C)O,2-HYDROXYPROPYL ACRYLATE,372.1,didier14,1
13484,Cc1ccc([N+](=O)[O-])cc1,p-NITROTOLUENE,379.0,didier14,1
13485,CCC,Propane,169.0,pan07,1
13486,CCCC,Butane,213.0,pan07,1
13487,CCCCC,Pentane,224.0,pan07,1
13488,CC(C)(C)C,"2,2-Dimethylpropane",208.0,pan07,1
13489,CCCCCC,Hexane,250.0,pan07,1
13490,CCC(C)(C)C,"2,2-Dimethylbutane",225.0,pan07,1
13491,CC(C)C(C)C,"2,3-Dimethylbutane",244.0,pan07,1
13492,CCCCCCC,Heptane,269.0,pan07,1
13493,CCC(C)(C)CC,"3,3-Dimethylpentane",254.0,pan07,1
13494,CC(C)CC(C)C,"2,4-Dimethylpentane",261.0,pan07,1
13495,CCC(CC)CC,3-Ethylpentane,255.0,pan07,1
13496,CCCC(C)(C)C,"2,2-Dimethylpentane",250.0,pan07,1
13497,CC(C)CC(C)(C)C,"2,2,4-Trimethylpentane",261.0,pan07,1
13498,CCC(C)C(C)(C)C,"2,2,3-Trimethylpentane",270.0,pan07,1
13499,CCC(C)(CC)CC,3-Methyl-3-ethylpentane,276.0,pan07,1
13500,CCCC(CC)CC,3-Ethylhexane,278.0,pan07,1
13501,CCCCC(C)CC,3-Methylheptane,279.0,pan07,1
13502,CCCC(C)(C)CC,"3,3-Dimethylhexane",272.0,pan07,1
13503,CCCC(C)C(C)C,"2,3-Dimethylhexane",283.0,pan07,1
13504,CCC(C)CC(C)C,"2,4-Dimethylhexane",283.0,pan07,1
13505,CC(C)CCC(C)C,"2,5-Dimethylhexane",271.0,pan07,1
13506,CCCCCCCCC,Nonane,304.0,pan07,1
13507,CCCC(C)C(C)CC,"3,4-Dimethylheptane",288.0,pan07,1
13508,CCCCC(C)C(C)C,"2,3-Dimethylheptane",288.0,pan07,1
13509,CC(C)CCCC(C)C,"2,6-Dimethylheptane",299.0,pan07,1
13510,CCC(C)(CC)C(C)C,"2,3-Dimethyl-3-ethylpentane",288.0,pan07,1
13511,CC(C)CCC(C)(C)C,"2,2,5-Trimethylhexane",286.0,pan07,1
13512,CCCCCC(C)CC,3-Methyloctane,297.0,pan07,1
13513,CC(C)C(C)C(C)(C)C,"2,2,3,4-Tetramethylpentane",284.0,pan07,1