,smiles,compound,flashpoint,source,pure substance
10378,CN(C)CCC(c1ccccc1)c1ccccn1,"2-Pyridinepropanamine, N,N-dimethyl-gamma-phenyl- (9CI)",437.65,le15,1
10379,CN(C)c1ccc(-c2ccc(N(C)C)cc2)cc1,"(1,1'-Biphenyl)-4,4'-diamine, N4,N4,N4',N4'-tetramethyl-",446.55,le15,1
10380,C[C@@H]1C[C@@H]2c3cccc4[nH]cc(c34)C[C@H]2N(C)C1,"Ergoline, 6,8beta-dimethyl- (8CI)",473.35,le15,1
10381,C=CCCCCCCCCC(=O)OCCCC,"10-Undecenoic acid, butyl ester",401.15,le15,1
10382,S=C(NC1CCCCC1)NC1CCCCC1,"Urea, 1,3-dicyclohexyl-2-thio-",435.75,le15,1
10383,O=c1c(Cl)c(Cl)cnn1-c1ccccc1,"4,5-Dichloro-2,3-dihydro-2-phenylpyridazin-3-one",441.45,le15,1
10384,CS(=O)(=O)Oc1ccc(Cl)cc1Cl,"Phenol, 2,4-dichloro-, methanesulfonate",441.95,le15,1
10385,O=C(O)c1ccccc1C(=O)Nc1ccccc1,"Benzoic acid, 2-((phenylamino)carbonyl)-",443.85,le15,1
10386,O=C(NN=C1C=CC(=NO)C=C1)c1ccccc1,"Benzoic acid, (4-(hydroxyimino)-2,5-cyclohexadien-1-ylidene)hydrazide",451.05,le15,1
10387,COc1ccccc1OCC(O)COC(N)=O,"1,2-Propanediol, 3-(2-methoxyphenoxy)-, 1-carbamate",512.75,le15,1
10388,Nc1c2ncn(Cc3ccccc3)c2nc[n+]1[O-],9-Benzyladenine 1-oxide,537.65,le15,1
10389,Cc1cccc(Nc2ccccc2C(=O)O)c1C,"Benzoic acid, 2-((2,3-dimethylphenyl)amino)-",468.15,le15,1
10390,Nc1ccccc1C(=O)OCCc1ccccc1,"Benzoic acid, 2-amino-, 2-phenylethyl ester",509.25,le15,1
10391,CCOC(=O)N(c1ccccc1)c1ccccc1,"ethyl N,N-diphenylcarbamate",444.65,le15,1
10392,CNC(=O)Oc1cc(C)c(S(C)=O)c(C)c1,"Carbamic acid, methyl-, 4-(methylsulfinyl)-3,5-xylyl ester",468.25,le15,1
10393,Nc1c(Cl)c(Cl)nc(C(=O)O)c1Cl,"2-Pyridinecarboxylic acid, 4-amino-3,5,6-trichloro-",481.25,le15,1
10394,CC1(C)C(=O)N(Br)C(=O)N1Cl,"2,4-Imidazolidinedione, 3-bromo-1-chloro-5,5-dimethyl-",367.65,le15,1
10395,OCCOc1cc(Cl)c(Cl)cc1Cl,"Ethanol, 2-(2,4,5-trichlorophenoxy)-",434.65,le15,1
10396,CCCCC(CC)CNCC(CC)CCCC,"1-Hexanamine, 2-ethyl-N-(2-ethylhexyl)-",401.15,le15,1
10397,CCCCCCCCCCCCCCCCN,1-Hexadecanamine,413.15,le15,1
10398,CCOP(=O)(OC=CCl)N(CC)CC,"Phosphoramidic acid, diethyl-, 2-chloroethenyl ethyl ester",382.15,le15,1
10399,FC(Br)C(F)(F)Br,"1,2-dibromo-1,1,2-trifluoroethane",274.15,le15,1
10400,Oc1cc(Cl)c(Br)cc1Cl,"Phenol, 4-bromo-2,5-dichloro-",391.35,le15,1
10401,Oc1c(Cl)cc(Br)cc1Cl,"Phenol, 4-bromo-2,6-dichloro- (8CI)(9CI)",376.05,le15,1
10402,Brc1ccsc1Br,"2,3-dibromothiophene",324.85,le15,1
10403,Brc1cscc1Br,"3,4-dibromothiophene",363.55,le15,1
10404,Brc1ccc(Br)s1,"2,5-dibromothiophene",372.55,le15,1
10405,N#CC(=Cc1ccc(Cl)cc1Cl)C(=O)O,"2-Propenoic acid, 2-cyano-3-(2,4-dichlorophenyl)- (9CI)",474.15,le15,1
10406,CCOC(=O)C(F)(F)C(F)(F)C(F)(F)F,"ethyl 2,2,3,3,4,4,4-heptafluorobutanoate",287.5499999999999,le15,1
10407,CC(C)(Br)C(=O)Nc1ccccc1,2-Bromo-2-methyl-N-phenylpropanamide,442.45,le15,1
10408,CCC(=O)O.CCC(=O)O.O=C1OC(=O)C(O)=C1O,"Maleic anhydride, dihydroxy-, dipropionate",424.65,le15,1
10409,Oc1ccc(O)c2c(O)c3ccccc3c(O)c12,"1,4,9,10-Tetrahydroxyanthracene",595.8499999999998,le15,1
10410,O=C(OOC(=O)c1ccccc1)c1ccccc1,"Peroxide, dibenzoyl",427.389,le15,1
10411,CC(C)(C)c1ccc2nc(C(F)(F)F)[nH]c2c1,"Benzimidazole, 5-tert-butyl-2-(trifluoromethyl)-",413.85,le15,1
10412,CC(C)=CCC1=C(O)C(=O)c2ccccc2C1=O,"1,4-Naphthalenedione, 2-hydroxy-3-(3-methyl-2-butenyl)- (9CI)",482.15,le15,1
10413,Cc1cccc(C)c1Nc1ncccc1C(=O)O,"3-Pyridinecarboxylic acid, 2-((2,6-dimethylphenyl)amino)- (9CI)",465.25,le15,1
10414,Cc1cc2ccccc2c2cc3ccccc3cc12,"Benz(a)anthracene, 6-methyl-",490.95,le15,1
10415,Cc1cccc2c1ccc1cc3ccccc3cc12,"Benz(a)anthracene, 4-methyl-",490.95,le15,1
10416,Cc1cc2c3ccccc3ccc2c2ccccc12,"Chrysene, 6-methyl-",490.95,le15,1
10417,Cc1cc2cc3ccccc3cc2c2ccccc12,"Benz(a)anthracene, 5-methyl-",490.95,le15,1
10418,Cc1ccc2cc3ccc4ccccc4c3cc2c1,"Benz(a)anthracene, 10-methyl-",490.95,le15,1
10419,Cc1cccc2cc3c(ccc4ccccc43)cc12,"Benz(a)anthracene, 8-methyl-",490.95,le15,1
10420,Cc1c2ccccc2cc2ccc3ccccc3c12,"Benz(a)anthracene, 12-methyl-",490.95,le15,1
10421,Cc1ccc2c(ccc3cc4ccccc4cc32)c1,"Benz(a)anthracene, 3-methyl-",490.95,le15,1
10422,Cc1cccc2ccc3cc4ccccc4cc3c12,"Benz(a)anthracene, 1-methyl-",490.95,le15,1
10423,Cc1cccc2c1ccc1c3ccccc3ccc21,"Chrysene, 1-methyl-",490.95,le15,1
10424,Cc1ccc2cc3c(ccc4ccccc43)cc2c1,"Benz(a)anthracene, 9-methyl-",490.95,le15,1
10425,Cc1ccc2ccc3cc4ccccc4cc3c2c1,"Benz(a)anthracene, 2-methyl-",490.95,le15,1
10426,CCCCCCC(=O)OC(=O)CCCCCC,heptanoyl heptanoate,403.05,le15,1
10427,CCCCCCCCCCCCCCC(=O)O,pentadecanoic acid,422.75,le15,1
10428,CCCCCCCOC(=O)CCCCCCC,heptyl octanoate,403.15,le15,1
10429,CCCCCCCCOCCCCCCCC,1-octoxyoctane,386.65,le15,1
10430,CCCCC(CC)COCC(CC)CCCC,"Heptane, 3,3'-(oxybis(methylene))bis-",380.65,le15,1
10431,CCCCCCCCCCCCCCC(C)O,Hexadecan-2-ol,384.45,le15,1
10432,O=C1c2ccccc2C(=O)c2cc(Cl)ccc21,"9,10-Anthracenedione, 2-chloro-",452.85,le15,1
10433,O=C1c2ccccc2C(=O)c2c(Cl)cccc21,"9,10-Anthracenedione, 1-chloro-",452.85,le15,1
10434,ClC(Cl)(Br)Br,dibromo(dichloro)methane,309.35,le15,1
10435,CC(C)NNC(=O)COc1ccc(Cl)cc1,"Acetic acid, (4-chlorophenoxy)-, 2-(1-methylethyl)hydrazide (9CI)",430.45,le15,1
10436,COc1c2cc3c(cc2nc2occc12)OCO3,"1,3-Dioxolo(4,5-g)furo(2,3-b)quinoline, 9-methoxy-",474.15,le15,1
10437,Nc1ccn([C@@H]2O[C@H](CO)[C@@H](O)[C@@H]2O)c(=O)n1,"2(1H)-Pyrimidinone, 4-amino-1-beta-D-arabinofuranosyl-",556.95,le15,1
10438,Nc1cc2c3ccccc3ccc2c2ccccc12,Chrysen-6-ylamine,560.05,le15,1
10439,Cc1c2ccccc2nc2c1ccc1ccccc12,"Benz(c)acridine, 7-methyl-",478.65,le15,1
10440,CCCCCCCCCCCC(=O)NCCO,"Dodecanamide, N-(2-hydroxyethyl)-",475.35,le15,1
10441,O=C(O)Cn1c(=O)sc2cccc(Cl)c21,"3(2H)-Benzothiazoleacetic acid, 4-chloro-2-oxo-",510.25,le15,1
10442,CCCCC(Br)CBr,"Hexane, 1,2-dibromo-",356.35,le15,1
10443,BrCCCCCCBr,"Hexane, 1,6-dibromo-",383.95,le15,1
10444,OC(c1ccccc1)(C(F)(F)F)C(F)(F)F,"1,1,1,3,3,3-hexafluoro-2-phenylpropan-2-ol",333.15,le15,1
10445,O=c1c2cc(O)ccc2oc2cc(O)cc(O)c12,"Xanthen-9-one, 1,3,7-trihydroxy-",497.85,le15,1
10446,O=[N+]([O-])c1ccc(-c2ccc([N+](=O)[O-])cc2)cc1,"1,1'-Biphenyl, 4,4'-dinitro-",481.95,le15,1
10447,O=[N+]([O-])c1ccccc1-c1ccccc1[N+](=O)[O-],1-nitro-2-(2-nitrophenyl)benzene,461.05,le15,1
10448,Nc1ncn([C@@H]2O[C@H](CO)[C@@H](O)[C@H]2O)c(=O)n1,"s-Triazin-2(1H)-one, 4-amino-1-beta-D-ribofuranosyl- (8CI)",550.15,le15,1
10449,Nc1cnn([C@@H]2O[C@H](CO)[C@@H](O)[C@H]2O)c(=O)n1,"1,2,4-Triazin-3(2H)-one, 5-amino-2-beta-D-ribofuranosyl-",550.15,le15,1
10450,COC(=O)c1ccc2cc(C(=O)OC)ccc2c1,"dimethyl naphthalene-2,6-dicarboxylate",462.35,le15,1
10451,COc1ccc(C(=O)c2ccccc2O)c(O)c1,"Methanone, (2-hydroxy-4-methoxyphenyl)(2-hydroxyphenyl)-",419.15,le15,1
10452,c1ccc2c(c1)-c1cc3ccccc3cc1C1OC21,"Benz(3,4)anthra(1,2-b)oxirene, 1a,11b-dihydro- (9CI)",485.55,le15,1
10453,OC(COc1ccccc1)COc1ccccc1,"2-Propanol, 1,3-diphenoxy-",466.95,le15,1
10454,COc1ccc2ccc(=O)oc2c1CC=C(C)C,"2H-1-Benzopyran-2-one, 7-methoxy-8-(3-methyl-2-butenyl)- (9CI)",440.75,le15,1
10455,CC1CN1C(=O)c1cccc(C(=O)N2CC2C)c1,"Aziridine, 1,1'-(1,3-phenylenedicarbonyl)bis(2-methyl-",484.05,le15,1
10456,CCOP(=O)(OCC)SCSCC,"Phosphorothioic acid, O,O-diethyl S-(ethylthio)methyl ester",399.15,le15,1
10457,c1ccc(C(c2ccccc2)c2ccccc2)cc1,"Methane, triphenyl- (8CI)",433.45,le15,1
10458,CCC1C(c2ccccc2)=CCC(C(=O)O)C1C,"3-Cyclohexene-1-carboxylic acid, 5-ethyl-6-methyl-4-phenyl-",456.45,le15,1
10459,CCCCCCC(C(=O)OCC)C(=O)OCC,diethyl 2-hexylpropanedioate,395.85,le15,1
10460,CCCSP(=S)(OC)SCCC,"Phosphorotrithioic acid, O-methyl S,S-dipropyl ester",411.05,le15,1
10461,CCCCNC(=S)N(CCCC)CCCC,"Urea, 1,1,3-tributyl-2-thio- (8CI)",416.55,le15,1
10462,CCCCCCCCCCCCNC(N)=S,"Urea, 1-dodecyl-2-thio-",434.75,le15,1
10463,Nc1cc2nc3ccc(Cl)cc3nc2cc1N,"2,3-Phenazinediamine, 7-chloro-",544.45,le15,1
10464,COC(=O)Nc1ccc(S(=O)(=O)NN)cc1,"Benzenesulfonic acid, 4-((methoxycarbonyl)amino)-, hydrazide (9CI)",549.3499999999998,le15,1
10465,c1ccc(N(c2ccccc2)c2ccccc2)cc1,"Benzenamine, N,N-diphenyl-",430.45,le15,1
10466,CN(C)CCN(Cc1ccco1)c1ccccn1,"Pyridine, 2-((2-(dimethylamino)ethyl)furfurylamino)- (8CI)",447.35,le15,1
10467,O=C1C(Cl)=C(Cl)C(=O)C(Cl)=C1Cl,"2,5-Cyclohexadiene-1,4-dione, 2,3,5,6-tetrachloro-",384.85,le15,1
10468,CCOC(=O)C(Br)Br,"ethyl 2,2-dibromoacetate",342.65,le15,1
10469,COC(=O)C(Br)CBr,"methyl 2,3-dibromopropanoate",344.25,le15,1
10470,COc1cc(Cl)c(Cl)c(Cl)c1Cl,"Benzene, 1,2,3,4-tetrachloro-5-methoxy-",390.75,le15,1
10471,O=C(O)C(F)(F)C(F)(F)C(F)(F)C(F)F,"Pentanoic acid, 2,2,3,3,4,4,5,5-octafluoro-",323.0499999999999,le15,1
10472,COc1c(OC)c2occc2c2oc(=O)ccc12,"2H-Furo(2,3-h)-1-benzopyran-2-one, 5,6-dimethoxy-",493.65,le15,1
10473,O=C(c1ccc(O)cc1O)c1ccc(O)cc1O,"Benzophenone, 2,2',4,4'-tetrahydroxy-",562.3499999999998,le15,1
10474,COc1c2ccoc2c(OC)c2oc(=O)ccc12,"7H-Furo(3,2-g)(1)benzopyran-7-one, 4,9-dimethoxy- (8CI)(9CI)",498.25,le15,1
10475,C=CCOC(=O)c1ccccc1C(=O)OCC=C,"1,2-Benzenedicarboxylic acid, di-2-propenyl ester",439.15,le15,1
10476,CCC1(c2ccccc2)C(=O)NC(=O)N(C)C1=O,"2,4,6(1H,3H,5H)-Pyrimidinetrione, 5-ethyl-1-methyl-5-phenyl-",466.35,le15,1
10477,CC(=O)N[C@@H](Cc1c[nH]c2ccccc12)C(=O)O,"Tryptophan, N-acetyl-, L-",581.75,le15,1
10478,Nc1ccc(Sc2ccc([N+](=O)[O-])cc2)cc1,"Aniline, p-((p-nitrophenyl)thio)- (6CI,7CI,8CI)",516.65,le15,1
10479,CCS(=O)CCSP(=O)(OC)OC,"Phosphorothioic acid, S-(2-(ethylsulfinyl)ethyl) O,O-dimethyl ester",455.35,le15,1
10480,Cc1c2ccncc2c(C)c2c1[nH]c1ccccc12,"6H-Pyrido(4,3-b)carbazole, 5,11-dimethyl-",500.25,le15,1
10481,CS(=O)(=O)OCCCCOS(C)(=O)=O,"1,4-Butanediol, dimethanesulfonate",507.55,le15,1
10482,Cc1ccc(S(=O)(=O)c2ccc(C)cc2)cc1,1-methyl-4-(4-methylphenyl)sulfonylbenzene,506.15,le15,1
10483,CCCCC(CC)(COC(N)=O)COC(N)=O,"1,3-Propanediol, 2-butyl-2-ethyl-, dicarbamate",489.75,le15,1
10484,CCOP(=S)(CC)Sc1ccccc1,"Phosphonodithioic acid, ethyl-, O-ethyl S-phenyl ester",422.65,le15,1
10485,CCCSP(C)(=S)Oc1ccccc1,"Phosphonodithioic acid, methyl-, O-phenyl S-propyl ester",422.65,le15,1
10486,c1ccc(CSSCc2ccccc2)cc1,Benzyl disulfide (8CI),422.15,le15,1
10487,c1ccc(SCCSc2ccccc2)cc1,"Benzene, 1,1'-(1,2-ethanediylbis(thio))bis-",457.75,le15,1
10488,CO[Si](CCC1CCC2OC2C1)(OC)OC,"Silane, trimethoxy(2-(7-oxabicyclo(4.1.0)hept-3-yl)ethyl)-",362.85,le15,1
10489,CC(C)(C)c1cc(C(C)(C)C)cc(C(C)(C)C)c1,"Benzene, 1,3,5-tris(1,1-dimethylethyl)-",372.25,le15,1
10490,CCCCCCCCCCCCc1ccccc1,"Dodecane, 1-phenyl- (8CI)",413.75,le15,1
10491,O=C(O)c1cc([N+](=O)[O-])c(Cl)c([N+](=O)[O-])c1,"4-chloro-3,5-dinitrobenzoic acid",482.55,le15,1
10492,CC[Si](CC)(CC)O[Si](CC)(CC)CC,triethyl(triethylsilyloxy)silane,350.15,le15,1
10493,Fc1c(F)c(F)c(Br)c(F)c1F,"1-bromo-2,3,4,5,6-pentafluorobenzene",360.95,le15,1
10494,Cc1c(OP(=O)([O-])[O-])ccc([N+](=O)[O-])c1C,"Phosphoric acid, dimethyl-4-nitrophenyl ester (9CI)",417.45,le15,1
10495,O=[N+]([O-])c1cc2ccc3cccc4ccc(c1)c2c34,"Pyrene, 2-nitro-",503.45,le15,1
10496,O=[N+]([O-])c1ccc2ccc3cccc4ccc1c2c34,"Pyrene, 1-nitro-",496.65,le15,1
10497,CCOC(=O)C1(c2ccccc2)CCN(C)CC1,"4-Piperidinecarboxylic acid, 1-methyl-4-phenyl-, ethyl ester",384.75,le15,1
10498,CCOc1nc(C(Cl)(Cl)Cl)ns1,"1,2,4-Thiadiazole, 5-ethoxy-3-(trichloromethyl)-",380.95,le15,1
10499,Oc1c(Cl)c(Cl)c(O)c(Cl)c1Cl,"1,4-Benzenediol, 2,3,5,6-tetrachloro-",400.05,le15,1
10500,Oc1c(O)c(Cl)c(Cl)c(Cl)c1Cl,"3,4,5,6-Tetrachloro-1,2-benzenediol  (9CI)",413.85,le15,1
10501,NC(=O)C(=Cc1ccc([N+](=O)[O-])o1)c1ccco1,"2-Furanacetamide, alpha-((5-nitro-2-furanyl)methylene)- (9CI)",504.95,le15,1
10502,CP(=O)(Oc1ccccc1)Oc1ccccc1,"Phosphonic acid, methyl-, diphenyl ester",383.15,le15,1
10503,CCOP(=S)(OCC)Oc1cnccn1,"Phosphorothioic acid, O,O-diethyl O-pyrazinyl ester",412.65,le15,1
10504,Oc1ccc2ccccc2c1N=Nc1ccccc1,"2-Naphthalenol, 1-(2-phenyldiazenyl)-",563.346,le15,1
10505,COc1cc2c(CCNC(C)=O)c[nH]c2cc1O,"Acetamide, N-(2-(6-hydroxy-5-methoxy-1H-indol-3-yl)ethyl)- (9CI)",568.45,le15,1
10506,Nc1ccc(S(=O)(=O)c2ccc(N)cc2)cc1,"Benzenamine, 4,4'-sulfonylbis-",536.3499999999998,le15,1
10507,C=C(C)C(=O)OCCC[Si](OC)(OC)OC,"2-Propenoic acid, 2-methyl-, 3-(trimethoxysilyl)propyl ester",365.15,le15,1
10508,CCc1nc(N)nc(N)c1-c1ccc(Cl)cc1,"Pyrimidine, 2,4-diamino-5-(p-chlorophenyl)-6-ethyl-",524.15,le15,1
10509,O=[N+]([O-])c1ccc(I)cc1,1-iodo-4-nitrobenzene,373.15,le15,1
10510,O=[N+]([O-])c1ccccc1I,1-iodo-2-nitrobenzene,396.05,le15,1
10511,O=[N+]([O-])c1cccc(I)c1,"Benzene, 1-iodo-3-nitro-",344.85,le15,1
10512,CON(C)C(=O)Nc1ccc(Cl)c(Cl)c1,"Urea, N'-(3,4-dichlorophenyl)-N-methoxy-N-methyl-",284.15,le15,1
10513,Brc1ccc(Oc2ccccc2)cc1,"Ether, p-bromophenyl phenyl (8CI)",391.55,le15,1
10514,NC(=S)N=NNc1ccc(Cl)c(Cl)c1,"1-Triazene-1-carbothioamide, 3-(3,4-dichlorophenyl)- (9CI)",442.25,le15,1
10515,CCCCCCCCCCCCBr,1-bromododecane,383.15,le15,1
10516,CNC(=O)Oc1ccccc1C1OCC=CCO1,"Carbamic acid, methyl-, o-(4,7-dihydro-1,3-dioxepin-2-yl)phenyl ester",442.75,le15,1
10517,C=CCn1c(=O)n(CC=C)c(=O)n(CC=C)c1=O,"1,3,5-Triazine-2,4,6(1H,3H,5H)-trione, 1,3,5-tri-2-propenyl-",426.55,le15,1
10518,C=CC(=O)N1CN(C(=O)C=C)CN(C(=O)C=C)C1,"1,3,5-Triazine, hexahydro-1,3,5-tris(1-oxo-2-propenyl)-",574.15,le15,1
10519,Nc1ccc(S(=O)(=O)Nc2ccccn2)cc1,"Benzenesulfonamide, 4-amino-N-2-pyridinyl-",513.3499999999998,le15,1
10520,CC(=O)CNC(=O)Oc1cccc(C(C)(C)C)c1,"Carbamic acid, acetylmethyl-, 3-(1,1-dimethylethyl)phenyl ester",434.25,le15,1
10521,Cc1cc(Br)ccc1Br,"1,4-dibromo-2-methylbenzene",381.05,le15,1
10522,C=C(C)C(=O)OCC(F)(F)C(F)C(F)(F)F,"2,2,3,4,4,4-Hexafluorobutyl methacrylate",329.15,le15,1
10523,CN(N=O)C(=O)c1ccccc1C(=O)N(C)N=O,"Phthalamide, N,N'-dimethyl-N,N'-dinitroso- (8CI)",459.75,le15,1
10524,O=C=Nc1ccc(Cc2ccc(N=C=O)cc2)cc1,"Isocyanic acid, methylenedi-p-phenylene ester",427.15,le15,1
10525,O=S(=O)(c1ccc(O)cc1)c1ccc(O)cc1,"Phenol, 4,4'-sulfonylbis-",532.55,le15,1
10526,Cc1ccccc1-n1c(C)nc2ccccc2c1=O,"4(3H)-Quinazolinone, 2-methyl-3-(2-methylphenyl)-",473.05,le15,1
10527,CCOCCOC(=O)C=Cc1ccc(OC)cc1,"2-Propenoic acid, 3-(4-methoxyphenyl)-, 2-ethoxyethyl ester",437.95,le15,1
10528,CCOC(=O)C(Cc1ccccc1)C(=O)OCC,"Propanedioic acid, (phenylmethyl)-, diethyl ester",427.85,le15,1
10529,CCCC(O)P(C(O)CCC)C(O)CCC,"1-Butanol, 1,1',1''-phosphinidynetri- (9CI)",394.25,le15,1
10530,CC(C)(C)c1cc(C(=O)O)cc(C(C)(C)C)c1O,"Benzoic acid, 3,5-bis(1,1-dimethylethyl)-4-hydroxy-",447.15,le15,1
10531,CCCCCCCCOc1ccc(C(=O)O)cc1,"Benzoic acid, p-(octyloxy)- (8CI)",406.25,le15,1
10532,CCOCCOCCOCCOCCOCC,"3,6,9,12,15-Pentaoxaheptadecane",384.95,le15,1
10533,CCCCOCCOCCOCCOCCO,2-[2-[2-(2-butoxyethoxy)ethoxy]ethoxy]ethanol,429.35,le15,1
10534,CCC(C)(C)c1cc(O)c(C(C)(C)CC)cc1O,"1,4-Benzenediol, 2,5-bis(1,1-dimethylpropyl)-",435.85,le15,1
10535,O=C1CCCCCCC/C=C\CCCCCCC1,(9Z)-cycloheptadec-9-en-1-one,430.25,le15,1
10536,ClCc1ccc2c3c(cccc13)-c1ccccc1-2,"Fluoranthene, 3-(chloromethyl)-",474.35,le15,1
10537,ClCc1ccc2ccc3cccc4ccc1c2c34,"Pyrene, 1-(chloromethyl)-",474.35,le15,1
10538,ClC(Cl)(Cl)CC(Cl)(Cl)Cl,"1,1,1,3,3,3-hexachloropropane",353.25,le15,1
10539,ClC(Cl)C(Cl)(Cl)C(Cl)Cl,"1,1,2,2,3,3-Hexachloropropane",366.85,le15,1
10540,Nc1c(Br)cccc1Br,"2,6-Dibromoaniline",387.75,le15,1
10541,CC(c1ccc(Cl)cc1)c1ccc(Cl)cc1,"Benzene, 1,1'-ethylidenebis(4-chloro-",416.75,le15,1
10542,CCCCCCC(Br)C(=O)OCC,Ethyl 2-bromooctanoate,385.25,le15,1
10543,Nc1ncnc2c1ncn2[C@@H]1O[C@H](CO)C[C@H]1O,"Adenosine, 3'-deoxy-",606.25,le15,1
10544,Nc1ncnc2c1ncn2[C@H]1C[C@H](O)[C@@H](CO)O1,"Adenosine, 2'-deoxy-",606.25,le15,1
10545,ON=CC(O)(C#Cc1ccccc1)c1ccccc1,"3-Butynal, 2,4-diphenyl-2-hydroxy-, oxime",578.65,le15,1
10546,CCCOC(=O)c1ccc(C(=O)OCCC)nc1,"2,5-Pyridinedicarboxylic acid, dipropyl ester",444.45,le15,1
10547,Clc1nc(Cl)c(Cl)c(Cl)c1Cl,"Pyridine, 2,3,4,5,6-pentachloro-",424.65,le15,1
10548,Cc1cccnc1-n1c(C)nc2ccccc2c1=O,"4(3H)-Quinazolinone, 2-methyl-3-(3-methyl-2-pyridinyl)-",488.45,le15,1
10549,CC(C)OC(=O)c1cncc(C(=O)OC(C)C)c1,"3,5-Pyridinedicarboxylic acid, diisopropyl ester",421.15,le15,1
10550,CN(C)c1ccc(C=CC(=O)c2ccccc2)cc1,"Chalcone, 4-(dimethylamino)- (8CI)",434.45,le15,1
10551,c1ccc([Si]23OCCN(CCO2)CCO3)cc1,"2,8,9-Trioxa-5-aza-1-silabicyclo(3.3.3)undecane, 1-phenyl-",398.75,le15,1
10552,CCCCCCCCCCCCCCCCC#N,heptadecanenitrile,410.65,le15,1
10553,Oc1ccc(Br)cc1Br,"Phenol, 2,4-dibromo-",374.35,le15,1
10554,Oc1cc(Br)cc(Br)c1,"3,5-dibromophenol",395.15,le15,1
10555,Oc1c(Br)cccc1Br,"2,6-dibromophenol",355.666,le15,1
10556,N#CC(F)(F)C(F)(F)C(F)(F)C(F)(F)C#N,"Hexanedinitrile, octafluoro- (8CI,9CI)",306.95,le15,1
10557,O=[N+]([O-])c1cc(C(F)(F)F)cc([N+](=O)[O-])c1O,"p-Cresol, alpha,alpha,alpha-trifluoro-2,6-dinitro-",364.45,le15,1
10558,[O-][n+]1onc2c1c1no[n+]([O-])c1c1no[n+]([O-])c21,"Benzo(1,2-c:3,4-c':5,6-c'')tris(1,2,5)oxadiazole, 1,4,7-trioxide",592.95,le15,1
10559,COC(=O)c1ccc(C(=O)OC)c(C(=O)OC)c1,"trimethyl benzene-1,2,4-tricarboxylate",413.55,le15,1
10560,CNc1ccc(N)c2c1C(=O)c1ccccc1C2=O,"9,10-Anthracenedione, 1-amino-4-(methylamino)-",550.25,le15,1
10561,O=C1CC(=O)N(c2ccccc2)N1c1ccccc1,"3,5-Pyrazolidinedione, 1,2-diphenyl-",440.35,le15,1
10562,c1ccc2c(c1)cc1ccc3cccc4ccc2c1c34,Benzo(def)chrysene,501.75,le15,1
10563,c1cc2cccc3c4cccc5cccc(c(c1)c23)c54,Perylene,501.75,le15,1
10564,C1=Cc2c3ccc4ccccc4c3cc3cccc1c23,Benz(j)aceanthrylene,520.25,le15,1
10565,c1ccc2c3c(ccc2c1)-c1cccc2cccc-3c12,Benzo(j)fluoranthene,501.75,le15,1
10566,c1ccc2cc3c(cc2c1)-c1cccc2cccc-3c12,Benzo(k)fluoranthene,501.75,le15,1
10567,C1=Cc2cc3c4ccccc4ccc3c3cccc1c23,Benz(j)acephenanthrylene,520.25,le15,1
10568,c1ccc2c(c1)-c1cccc3cc4ccccc4c-2c13,Benz(a)aceanthrylene,501.75,le15,1
10569,O=C(C=Cc1ccccc1)OCCc1ccccc1,"2-Propenoic acid, 3-phenyl-, 2-phenylethyl ester",527.3499999999998,le15,1
10570,c1ccc(C(c2ccccc2)N2CCNCC2)cc1,"Piperazine, 1-(diphenylmethyl)-",413.65,le15,1
10571,O=C1CCCCC/C=C\CCCCCCCCO1,"Oxacycloheptadec-8-en-2-one, (8Z)-",441.35,le15,1
10572,CCCCCCCCCCCCC1CCCCC1,dodecylcyclohexane,420.25,le15,1
10573,CCCCCCCCCCCCCC1CCCC1,tridecylcyclopentane,418.35,le15,1
10574,C=CCCCCCCCCCCCCCCCC,1octadecene,421.0,le15,1
10575,COP(=O)(OC)Sc1ccc(Cl)cc1,"Phosphorothioic acid, S-(4-chlorophenyl) O,O-dimethyl ester",418.65,le15,1
10576,BrC(Br)Br,Bromoform,356.0,le15,1
10577,COc1ccc(N)c2c1C(=O)c1ccccc1C2=O,"9,10-Anthracenedione, 1-amino-4-methoxy- (9CI)",548.05,le15,1
10578,O=C(C=Cc1ccc([N+](=O)[O-])cc1)c1ccccc1,"2-Propen-1-one, 3-(4-nitrophenyl)-1-phenyl-",459.65,le15,1
10579,O=C(C=Cc1ccccc1[N+](=O)[O-])c1ccccc1,"Chalcone, 2-nitro- (8CI)",478.65,le15,1
10580,O=C(C=Cc1ccccc1)c1ccc([N+](=O)[O-])cc1,"2-Propen-1-one, 1-(4-nitrophenyl)-3-phenyl- (9CI)",488.05,le15,1
10581,Nc1nc(N)c2nc(-c3ccccc3)c(N)nc2n1,"Pteridine, 2,4,7-triamino-6-phenyl-",608.65,le15,1
10582,c1ccc2nc3c(cc2c1)-c1cccc2cccc-3c12,"Acenaphtho(1,2-b)quinoline",488.35,le15,1
10583,Cc1cc(NS(=O)(=O)c2ccc(N)cc2)no1,"Benzenesulfonamide, 4-amino-N-(5-methyl-3-isoxazolyl)-",518.55,le15,1
10584,COc1ccc(OC)c(C(O)C(C)NC(C)C)c1,"Benzenemethanol, 2,5-dimethoxy-alpha-(1-((1-methylethyl)amino)ethyl)-",458.45,le15,1
10585,CCCC(=O)OC1CCC(N2CCCCC2)CC1,"Butanoic acid, 4-(1-piperidinyl)cyclohexyl ester (9CI)",379.85,le15,1
10586,CC(C)C(=O)OC1CCC(N2CCCCC2)CC1,"Propanoic acid, 2-methyl-, 4-(1-piperidinyl)cyclohexyl ester (9CI)",377.25,le15,1
10587,CCCCSSC(Cl)C(Cl)Cl,"Disulfide, butyl 1,2,2-trichloroethyl",380.95,le15,1
10588,FC(F)(F)c1ccc2nc(C(F)(F)F)[nH]c2c1,"Benzimidazole, 2,5-bis(trifluoromethyl)-",390.25,le15,1
10589,O=c1c(-c2ccc(O)cc2)coc2cc(O)ccc12,"Isoflavone, 4',7-dihydroxy- (8CI)",474.35,le15,1
10590,O=CNNc1nc(-c2ccc([N+](=O)[O-])o2)cs1,"Hydrazinecarboxaldehyde, 2-(4-(5-nitro-2-furanyl)-2-thiazolyl)-",502.05,le15,1
10591,Cc1c(O)cc2c(c1O)C(=O)c1ccccc1C2=O,"9,10-Anthracenedione, 1,3-dihydroxy-2-methyl-",559.75,le15,1
10592,Cc1cc(O)c2c(c1)C(=O)c1cccc(O)c1C2=O,"9,10-Anthracenedione, 1,8-dihydroxy-3-methyl- (9CI)",537.05,le15,1
10593,Cc1cc(O)c2c(c1O)C(=O)c1ccccc1C2=O,"9,10-Anthracenedione, 1,4-dihydroxy-2-methyl- (9CI)",539.8499999999998,le15,1
10594,O=C(OCCO)c1ccc(C(=O)OCCO)cc1,"bis(2-hydroxyethyl) benzene-1,4-dicarboxylate",445.15,le15,1
10595,O=c1c2cccc3ccc4ccc5cccc1c5c4c32,6H-Benzo(cd)pyren-6-one,503.75,le15,1
10596,CC(=O)O.O=C(c1ccccc1)C(O)c1ccccc1,"Benzoin, acetate (8CI)",440.35,le15,1
10597,CCOP(=O)(OC=CCSCC)OCC,"Phosphoric acid, diethyl 3-(ethylthio)-1-propenyl ester (9CI)",558.65,le15,1
10598,c1ccc(-c2c3ccccc3cc3ccccc23)cc1,9-phenylanthracene,465.25,le15,1