,smiles,compound,flashpoint,source,pure substance
5701,C/C=C\c1ccccc1,"Benzene, 1-propenyl-, (Z)-",322.5499999999999,le15,1
5702,C=Cc1cccc(C)c1,3methylstyrene,324.0,le15,1
5703,C=Cc1ccc(C)cc1,4methylstyrene,318.0,le15,1
5704,CC(C)(O)C(C)(C)O,"2,3-dimethylbutane-2,3-diol",350.35,le15,1
5705,CCC(C)(CO)CO,"2-ethyl-2-methylpropane-1,3-diol",369.25,le15,1
5706,CC(O)CC(C)(C)O,"2,4-Pentanediol, 2-methyl-",367.05,le15,1
5707,CC(C)OCCCO,"1-Propanol, 3-(1-methylethoxy)- (9CI)",328.35,le15,1
5708,CCOCCCCO,"1-Butanol, 4-ethoxy-",330.0499999999999,le15,1
5709,CCCCOCCO,"Ethanol, 2-butoxy-",333.15,le15,1
5710,CCC(O)C(C)CO,"1,3-Pentanediol, 2-methyl-",381.65,le15,1
5711,CCOCCOCC,"Ethane, 1,2-diethoxy-",293.75,le15,1
5712,CCCOCC(C)O,"2-Propanol, 1-propoxy-",321.15,le15,1
5713,CC(C)COCCO,"Ethanol, 2-(2-methylpropoxy)-",323.5499999999999,le15,1
5714,CC(O)C(C)C(C)O,"3-methylpentane-2,4-diol",364.45,le15,1
5715,CCCCC(O)CO,"1,2-Hexanediol",395.15,le15,1
5716,CC(O)C(C)(C)CO,"1,3-Butanediol, 2,2-dimethyl-",360.75,le15,1
5717,CCC(O)CC(C)O,"2,4-Hexanediol",374.15,le15,1
5718,CC(O)COC(C)C,1-propan-2-yloxypropan-2-ol,321.35,le15,1
5719,CCC(C)OCCO,"Ethanol, 2-sec-butoxy-",323.35,le15,1
5720,CC=COCCSCCOC=CC,"Sulfide, methylvinyloxyethyl-",319.0499999999999,le15,1
5721,CCCCCCCF,1fluoroheptane,286.0,le15,1
5722,CCCCCCS,1-Hexanethiol,303.15,le15,1
5723,CCCSCCC,Propyl sulfide (8CI),301.45,le15,1
5724,CC(C)SC(C)C,2-propan-2-ylsulfanylpropane,280.15,le15,1
5725,CCCSC(C)C,1-propan-2-ylsulfanylpropane,296.15,le15,1
5726,CCCCCSC,1-methylsulfanylpentane,312.85,le15,1
5727,CCO[Si](C)(C)C,ethoxy(trimethyl)silane,255.15,le15,1
5728,CC(C)=CC(=O)Cl,3-methylbut-2-enoyl chloride,324.15,le15,1
5729,Clc1cccs1,2-chlorothiophene,295.15,le15,1
5730,ClC1CCCCC1,"Cyclohexane, chloro-",301.15,le15,1
5731,C#CCBr,"1-Propyne, 3-bromo-",290.25,le15,1
5732,O=C(O)CC[N+](=O)[O-],"Propanoic acid, 3-nitro- (9CI)",421.55,le15,1
5733,COC(=O)C[N+](=O)[O-],"Acetic acid, nitro-, methyl ester",378.15,le15,1
5734,c1ccc2nocc2c1,"2,1-benzoxazole",367.05,le15,1
5735,c1ccc2ocnc2c1,"1,3-benzoxazole",338.45,le15,1
5736,N#Cc1ccc(O)cc1,"Benzonitrile, 4-hydroxy-",397.05,le15,1
5737,N#Cc1cccc(O)c1,"Benzonitrile, 3-hydroxy-",380.75,le15,1
5738,N#C/C=C/c1ccco1,(E)-3-(furan-2-yl)prop-2-enenitrile,360.35,le15,1
5739,c1ccc2[nH]nnc2c1,1H-Benzotriazole,407.05,le15,1
5740,CC(C)CO[N+](=O)[O-],2-methylpropyl nitrate,314.0499999999999,le15,1
5741,CCC(C)O[N+](=O)[O-],butan-2-yl nitrate,314.0499999999999,le15,1
5742,COCCOC(N)=O,"Ethanol, 2-methoxy-, carbamate",404.15,le15,1
5743,NC(=S)N(N)C=O,"Hydrazinecarbothioamide, 1-formyl- (9CI)",364.65,le15,1
5744,C=Cc1ccc(C)nc1,"Pyridine, 5-ethenyl-2-methyl-",329.75,le15,1
5745,c1ccc2c(c1)CCN2,"2,3-dihydro-1H-indole",365.95,le15,1
5746,CN=Cc1ccccc1,N-methyl-1-phenylmethanimine,386.15,le15,1
5747,C=Cc1ccc(N)cc1,"Benzenamine, 4-ethenyl-",381.75,le15,1
5748,CN(CCO)CCO,"Ethanol, 2,2'-(methylimino)bis-",399.85,le15,1
5749,CNCC(OC)OC,"2,2-dimethoxy-N-methylethanamine",302.5499999999999,le15,1
5750,CN(CCO)CCO,MethylDiethanolAmine,411.0,le15,1
5751,S=C1NCCS1,2-Thiazolidinethione,341.25,le15,1
5752,N#CCBr,"Acetonitrile, bromo-",297.45,le15,1
5753,C[As](C)C,trimethylarsane,373.15,le15,1
5754,CC([N+](=O)[O-])[N+](=O)[O-],"1,1-dinitroethane",352.15,le15,1
5755,O=C(NCO)NCO,"Urea, 1,3-bis(hydroxymethyl)- (8CI)",505.45,le15,1
5756,c1ccc(C2CO2)cc1,"Benzene, (epoxyethyl)-",352.54999999999984,le15,1
5757,O=CCc1ccccc1,"Acetaldehyde, phenyl- (8CI)",362.35,le15,1
5758,c1ccc2c(c1)COC2,"Isobenzofuran, 1,3-dihydro-",336.15,le15,1
5759,c1ccc2c(c1)CCO2,"Benzofuran, 2,3-dihydro-",339.15,le15,1
5760,Cc1ccccc1C=O,o-Tolualdehyde (8CI),352.65,le15,1
5761,Cc1cccc(C=O)c1,"Benzaldehyde, 3-methyl-",351.15,le15,1
5762,C=Cc1ccc(O)cc1,4-ethenylphenol,365.45,le15,1
5763,CC(=O)c1ccccc1,"Ethanone, 1-phenyl-",354.04999999999984,le15,1
5764,CC(CO)(CO)CO,"2-(hydroxymethyl)-2-methylpropane-1,3-diol",418.65,le15,1
5765,COCCOCCO,"Ethanol, 2-(2-methoxyethoxy)-",357.04999999999984,le15,1
5766,COCC(O)COC,"1,3-dimethoxypropan-2-ol",331.35,le15,1
5767,COC(C)(OC)OC,"1,1,1-trimethoxyethane",289.15,le15,1
5768,CCOCC(O)CO,"3-ethoxypropane-1,2-diol",372.65,le15,1
5769,O=S1(=O)CCCC1,"Thiophene, tetrahydro-, 1,1-dioxide",443.828,le15,1
5770,CCOC(=O)CS,"Acetic acid, mercapto-, ethyl ester",320.95,le15,1
5771,C=CS(=O)(=O)CC,(Ethylsulphonyl)ethylene,382.15,le15,1
5772,COC(=O)CCS,methyl 3-sulfanylpropanoate,333.15,le15,1
5773,CC(C)c1ccccc1,"Benzene, (1-methylethyl)-",304.15,le15,1
5774,CCc1ccccc1C,1-ethyl-2-methylbenzene,312.5499999999999,le15,1
5775,C=CC1CC2C=CC1C2,"Bicyclo(2.2.1)hept-2-ene, 5-ethenyl-",299.35,le15,1
5776,CC=C1CC2C=CC1C2,"Bicyclo(2.2.1)hept-2-ene, 5-ethylidene-",311.45,le15,1
5777,C1=CCC2CC=CC2C1,"1H-Indene, 3a,4,7,7a-tetrahydro-",306.95,le15,1
5778,CC=C1CC2C=CC1C2,5ethylidene2norbornene,311.0,le15,1
5779,CCc1ccccc1,mEthyltoluene,311.0,le15,1
5780,NC(=S)C(N)=S,Ethanedithioamide,379.35,le15,1
5781,C1CSCSC1,"1,3-Dithiane",363.15,le15,1
5782,C1CSCCS1,"1,4-Dithiane",355.25,le15,1
5783,C=CCOC(=O)Cl,"Carbonochloridic acid, 2-propenyl ester",361.15,le15,1
5784,C=C(C)OC(=O)Cl,prop-1-en-2-yl carbonochloridate,289.25,le15,1
5785,CCCCC(=O)Cl,Pentanoyl chloride,305.95,le15,1
5786,CC1(CCl)COC1,"Oxetane, 3-(chloromethyl)-3-methyl-",316.0499999999999,le15,1
5787,CCC(C)C(=O)Cl,2-methylbutanoyl chloride,298.65,le15,1
5788,CC(C)CC(=O)Cl,3-methylbutanoyl chloride,298.65,le15,1
5789,CC(C)(C)C(=O)Cl,"2,2-dimethylpropanoyl chloride",282.0499999999999,le15,1
5790,CCCCCCCl,1-chlorohexane,299.15,le15,1
5791,CCC(C)(Cl)CC,3-chloro-3-methylpentane,282.5499999999999,le15,1
5792,CCCC(Cl)CC,3-chlorohexane,298.15,le15,1
5793,CC(C)(C)CCCl,"1-chloro-3,3-dimethylbutane",292.15,le15,1
5794,CCC(CC)CCl,3-(chloromethyl)pentane,298.15,le15,1
5795,C[Si](C)/C=C/Cl,[(E)-2-chloroethenyl]-dimethylsilicon,269.15,le15,1
5796,FC(F)(Cl)Cl,"Methane, dichlorodifluoro-",284.15,le15,1
5797,C=C(C)Br,2-bromoprop-1-ene,327.15,le15,1
5798,C=CCBr,"1-Propene, 3-bromo-",272.15,le15,1
5799,CC(=O)OO[N+](=O)[O-],"Peroxide, acetyl nitro",357.85,le15,1
5800,N#Cc1ccc(F)cc1,4-fluorobenzonitrile,338.75,le15,1
5801,N#Cc1cccc(F)c1,3-fluorobenzonitrile,340.15,le15,1
5802,CC(=O)c1cccnc1,"Ethanone, 1-(3-pyridinyl)-",377.15,le15,1
5803,Nc1ccc(C=O)cc1,"Benzaldehyde, p-amino- (8CI)",395.14099999999996,le15,1
5804,Cc1ccccc1N=O,"Benzene, 1-methyl-2-nitroso- (9CI)",347.85,le15,1
5805,O/N=C\c1ccccc1,"Benzaldehyde, oxime, (Z)-",382.05,le15,1
5806,CC(=O)c1ccncc1,"Ethanone, 1-(4-pyridinyl)-",360.15,le15,1
5807,CC(=O)c1ccccn1,"Ethanone, 1-(2-pyridinyl)-",346.45,le15,1
5808,O=CNc1ccccc1,"Formamide, N-phenyl-",423.35,le15,1
5809,N[C@@H](CS)C(=O)O,L-Cysteine,404.65,le15,1
5810,NCCc1ccccc1,2-phenylethanamine,363.75,le15,1
5811,Cc1cccc(N)c1C,"Benzenamine, 2,3-dimethyl-",369.15,le15,1
5812,Cc1cccc(C)c1N,"Benzenamine, 2,6-dimethyl-",364.15,le15,1
5813,Cc1ccccc1CN,"Benzenemethanamine, 2-methyl-",357.04999999999984,le15,1
5814,Cc1ccc(N)c(C)c1,"Benzenamine, 2,4-dimethyl-",363.75,le15,1
5815,Cc1ccc(C)c(N)c1,"Benzenamine, 2,5-dimethyl-",367.05,le15,1
5816,Cc1cccc(CN)c1,(3-methylphenyl)methanamine,353.75,le15,1
5817,CCNc1ccccc1,"Benzenamine, N-ethyl-",358.15,le15,1
5818,Cc1ccc(CN)cc1,"Benzylamine, p-methyl- (8CI)",348.15,le15,1
5819,Cc1cc(C)cc(N)c1,"Benzenamine, 3,5-dimethyl-",366.45,le15,1
5820,CCc1cnccc1C,3-ethyl-4-methylpyridine,343.251,le15,1
5821,CCc1ccnc(C)c1,4-ethyl-2-methylpyridine,330.15,le15,1
5822,CCc1ccccc1N,"Aniline, o-ethyl- (8CI)",358.15,le15,1
5823,CNc1ccccc1C,"o-Toluidine, N-methyl- (8CI)",349.54999999999984,le15,1
5824,CC(N)c1ccccc1,"Benzenemethanamine, alpha-methyl-",348.9530000000001,le15,1
5825,CNc1cccc(C)c1,"m-Toluidine, N-methyl- (8CI)",350.45,le15,1
5826,Cc1cc(C)c(C)cn1,"2,4,5-trimethylpyridine",331.0499999999999,le15,1
5827,CCc1cccc(C)n1,2-ethyl-6-methylpyridine,316.5499999999999,le15,1
5828,CCCc1ccncc1,4-propylpyridine,337.66,le15,1
5829,Cc1ccc(C)c(C)n1,"2,3,6-trimethylpyridine",320.75,le15,1
5830,Cc1ccnc(C)c1C,"2,3,4-trimethylpyridine",335.0499999999999,le15,1
5831,Cc1ccc(N)cc1C,"Benzenamine, 3,4-dimethyl-",371.45,le15,1
5832,CNCc1ccccc1,N-methyl-1-phenylmethanamine,350.95,le15,1
5833,CCc1ccc(C)nc1,"Pyridine, 5-ethyl-2-methyl-",339.25,le15,1
5834,CCc1cccc(N)c1,"Benzenamine, 3-ethyl- (9CI)",358.15,le15,1
5835,CCc1ccc(N)cc1,"Aniline, p-ethyl- (8CI)",358.15,le15,1
5836,CNc1ccc(C)cc1,"N,4-dimethylaniline",345.25,le15,1
5837,CC(C)c1ccccn1,2-propan-2-ylpyridine,296.35,le15,1
5838,Cc1cnc(C)c(C)c1,"2,3,5-trimethylpyridine",315.95,le15,1
5839,O=Cc1ccccc1O,"Benzaldehyde, 2-hydroxy-",349.85,le15,1
5840,O=Cc1ccc(O)cc1,"Benzaldehyde, 4-hydroxy-",374.45,le15,1
5841,c1ccc2c(c1)OCO2,"Benzene, 1,2-methylenedioxy-",328.15,le15,1
5842,CC1=CC(=O)C=CC1=O,"2,5-Cyclohexadiene-1,4-dione, 2-methyl-",338.0499999999999,le15,1
5843,O=Cc1cccc(O)c1,"Benzaldehyde, 3-hydroxy-",371.75,le15,1
5844,O=CC=Cc1ccco1,"2-Propenal, 3-(2-furanyl)-",361.95,le15,1
5845,NC(=O)c1cccnc1,3-Pyridinecarboxamide,429.15,le15,1
5846,OC[C@H](O)[C@H](O)CO,"1,2,3,4-Butanetetrol, (2R,3S)-rel-",481.95,le15,1
5847,ON=Cc1ccncc1,"4-Pyridinecarboxaldehyde, oxime",345.25,le15,1
5848,ON=Cc1ccccn1,"2-Pyridinecarboxaldehyde, oxime",346.65,le15,1
5849,NC(=O)c1ccncc1,4-Pyridinecarboxamide,429.15,le15,1
5850,O=S1(=O)CCCO1,"1,2-Oxathiolane, 2,2-dioxide",406.931,le15,1
5851,OCCc1ccccc1,Phenethyl alcohol,371.55,le15,1
5852,Cc1ccccc1CO,"Benzyl alcohol, o-methyl- (8CI)",377.55,le15,1
5853,CCc1ccccc1O,"Phenol, 2-ethyl-",351.45,le15,1
5854,Cc1ccc(O)cc1C,"Phenol, 3,4-dimethyl-",367.15,le15,1
5855,COc1cccc(C)c1,1-methoxy-3-methylbenzene,327.15,le15,1
5856,COc1ccc(C)cc1,"Benzene, 1-methoxy-4-methyl-",326.45,le15,1
5857,COCc1ccccc1,"Ether, benzyl methyl (8CI)",326.15,le15,1
5858,Cc1cccc(C)c1O,"Phenol, 2,6-dimethyl-",351.45,le15,1
5859,COc1ccccc1C,1-methoxy-2-methylbenzene,324.15,le15,1
5860,Cc1cccc(CO)c1,"Benzenemethanol, 3-methyl-",378.75,le15,1
5861,Cc1ccc(CO)cc1,4-Methyl-benzenemethanol (9CI),378.15,le15,1
5862,CCc1cccc(O)c1,"Phenol, m-ethyl- (8CI)",367.15,le15,1
5863,CC(O)c1ccccc1,1-phenylethanol,358.15,le15,1
5864,COC1=CC=CC=CC1,"Ether, 1,3,5-cycloheptatrien-1-yl methyl (7CI,8CI)",345.65,le15,1
5865,CCOc1ccccc1,"Benzene, ethoxy-",328.15,le15,1
5866,Cc1cc(C)cc(O)c1,"Phenol, 3,5-dimethyl-",365.45,le15,1
5867,Cc1cc(N)ccc1N,"1,4-Benzenediamine, 2-methyl-",413.75,le15,1
5868,Cc1ccc(N)cc1N,"1,3-Benzenediamine, 4-methyl-",422.65,le15,1
5869,Cc1ccc(N)c(N)c1,"1,2-Benzenediamine, 4-methyl-",405.25,le15,1
5870,Cc1c(N)cccc1N,"1,3-Benzenediamine, 2-methyl-",421.45,le15,1
5871,CN(C)c1ccncc1,"4-Pyridinamine, N,N-dimethyl-",344.85,le15,1
5872,Cc1cc(N)cc(C)n1,"2,6-dimethylpyridin-4-amine",399.60699999999997,le15,1
5873,CN(C)c1ccccn1,"2-Pyridinamine, N,N-dimethyl- (9CI)",347.15,le15,1
5874,Cc1cnc(C)c(C)n1,"2,3,5-Trimethylpyrazine",327.5499999999999,le15,1
5875,CN(N)c1ccccc1,1-methyl-1-phenylhydrazine,366.75,le15,1
5876,Cc1cccc(N)c1N,"1,2-Benzenediamine, 3-methyl-",404.25,le15,1
5877,CCS(=O)(=O)CC,Ethyl sulfone (8CI),391.55,le15,1
5878,CO[SiH](OC)OC,"Silane, trimethoxy-",268.75,le15,1
5879,C#CCC1CCCCC1,prop-2-ynylcyclohexane,310.65,le15,1
5880,C[Si]c1ccccc1,methyl(phenyl)silicon,311.65,le15,1
5881,CCSSCC,Ethyl disulfide (8CI),313.15,le15,1
5882,CSCCSC,"1,2-bis(methylsulfanyl)ethane",333.0499999999999,le15,1
5883,CCSSCC,DiethylDisulfide,313.0,le15,1
5884,COC(=O)C(=O)Cl,methyl 2-chloro-2-oxoacetate,319.85,le15,1
5885,CC(C)OC(=O)Cl,"Carbonochloridic acid, 1-methylethyl ester",298.15,le15,1
5886,CCCOC(=O)Cl,propyl carbonochloridate,302.25,le15,1
5887,O=C(O)CCCCl,"Butyric acid, 4-chloro- (8CI)",374.25,le15,1
5888,COC(=O)CCCl,methyl 3-chloropropanoate,313.65,le15,1
5889,CCOCC(=O)Cl,2-ethoxyacetyl chloride,480.55,le15,1
5890,COC(=O)C(C)Cl,methyl 2-chloropropanoate,310.75,le15,1
5891,CCOC(=O)CCl,"Acetic acid, chloro-, ethyl ester",338.75,le15,1
5892,CCOC(=O)CCl,Ethylchloroacetate,326.0,le15,1
5893,CC(=O)Br,Acetyl bromide,322.75,le15,1
5894,O=CCBr,"Acetaldehyde, bromo-",346.75,le15,1
5895,ClCC#CCCl,"1,4-dichlorobut-2-yne",433.15,le15,1
5896,C=C(Cl)C(=C)Cl,"2,3-dichlorobuta-1,3-diene",310.35,le15,1
5897,CC(C)Br,"Propane, 2-bromo-",292.5499999999999,le15,1
5898,O=C(O)c1cccnc1,3-Pyridinecarboxylic acid,403.85,le15,1
5899,O=C(O)c1ccncc1,4-Pyridinecarboxylic acid,466.45,le15,1
5900,NC(=O)c1cnccn1,2-Pyrazinecarboxamide,443.05,le15,1
5901,COc1ccccc1N,"Benzenamine, 2-methoxy-",380.15,le15,1
5902,OCCc1ccccn1,2-(2-Pyridyl)ethanol,365.95,le15,1
5903,CNc1ccc(O)cc1,"Phenol, 4-(methylamino)- (9CI)",421.75,le15,1
5904,COc1cccc(N)c1,"Benzenamine, 3-methoxy-",382.75,le15,1
5905,Nc1cccc(CO)c1,"Benzenemethanol, 3-amino- (9CI)",402.75,le15,1
5906,Cc1ccc(N)cc1O,"Phenol, 5-amino-2-methyl-",389.45,le15,1
5907,Cc1cccc(O)c1N,"Phenol, 2-amino-3-methyl-",372.05,le15,1
5908,Cc1ccc(N)c(O)c1,"Phenol, 2-amino-5-methyl-",372.95,le15,1
5909,OCCc1ccncc1,4-Pyridineethanol,374.65,le15,1
5910,Nc1ccccc1CO,"Benzenemethanol, 2-amino-",399.45,le15,1
5911,Cc1ccc(O)c(N)c1,"p-Cresol, 2-amino- (8CI)",371.75,le15,1
5912,COc1ccc(N)cc1,"Benzenamine, 4-methoxy-",377.65,le15,1
5913,CC(=O)c1cccn1C,"Ethanone, 1-(1-methyl-1H-pyrrol-2-yl)-",349.35,le15,1
5914,CCc1c(C)c[nH]c1C,"3-ethyl-2,4-dimethyl-1H-pyrrole",344.15,le15,1
5915,CCCCn1cccc1,1-butylpyrrole,330.0499999999999,le15,1
5916,CC(C)(Cl)[N+](=O)[O-],"Propane, 2-chloro-2-nitro-",310.5499999999999,le15,1
5917,CC(Cl)C[N+](=O)[O-],2-chloro-1-nitropropane,332.95,le15,1
5918,CC(CCl)[N+](=O)[O-],"Propane, 1-chloro-2-nitro-",332.95,le15,1
5919,N#CC(Cl)CCl,"Propionitrile, 2,3-dichloro- (6CI,7CI,8CI)",357.04999999999984,le15,1
5920,COP(OC)OC,"Phosphorous acid, trimethyl ester",356.85,le15,1
5921,COP(C)(=O)OC,"Phosphonic acid, methyl-, dimethyl ester",342.0499999999999,le15,1
5922,OCP(CO)CO,"Methanol, phosphinidynetri- (7CI,8CI)",415.45,le15,1
5923,COP(OC)OC,Trimethylphosphite,300.0,le15,1
5924,CCOC(=O)C(F)F,"Acetic acid, 2,2-difluoro-, ethyl ester",298.15,le15,1
5925,O=C(F)c1ccccc1,benzoyl fluoride,327.45,le15,1
5926,O=Cc1cccc(F)c1,"Benzaldehyde, m-fluoro- (8CI)",329.85,le15,1
5927,O=Cc1ccc(F)cc1,"Benzaldehyde, p-fluoro- (8CI)",329.85,le15,1
5928,O=Cc1ccccc1F,"Benzaldehyde, o-fluoro- (8CI)",328.15,le15,1
5929,O=S1(=O)OCCO1,"1,3,2-Dioxathiolane, 2,2-dioxide",366.65,le15,1
5930,COc1ccccc1O,"Phenol, 2-methoxy-",355.35,le15,1
5931,Cc1cc(O)ccc1O,"1,4-Benzenediol, 2-methyl-",413.35,le15,1
5932,COc1cccc(O)c1,"Phenol, 3-methoxy-",392.25,le15,1
5933,COc1ccc(O)cc1,"Phenol, 4-methoxy-",393.95,le15,1
5934,Cc1ccc(O)c(O)c1,"1,2-Benzenediol, 4-methyl- (9CI)",394.25,le15,1
5935,Cc1cccc(O)c1O,"1,2-Benzenediol, 3-methyl-",389.85,le15,1
5936,Cc1ccc(O)cc1O,"4-methylbenzene-1,3-diol",403.25,le15,1
5937,Cc1cc(O)cc(O)c1,"1,3-Benzenediol, 5-methyl-",432.15,le15,1
5938,Cc1c(O)cccc1O,"1,3-Benzenediol, 2-methyl-",416.05,le15,1
5939,OCc1cccc(O)c1,"Benzyl alcohol, m-hydroxy- (8CI)",420.485,le15,1
5940,Cc1cc(C)oc(=O)c1,"4,6-dimethylpyran-2-one",363.25,le15,1
5941,Cc1cc(=O)cc(C)o1,"2,6-dimethylpyran-4-one",376.55,le15,1
5942,OCc1ccc(O)cc1,"Benzyl alcohol, p-hydroxy- (8CI)",418.95,le15,1
5943,CCOS(C)(=O)=O,ethyl methanesulfonate,373.15,le15,1
5944,C#CC1(O)CCCCC1,"Cyclohexanol, 1-ethynyl-",346.15,le15,1
5945,CC1CC=CCC1C=O,"3-Cyclohexene-1-carboxaldehyde, 6-methyl-",326.35,le15,1
5946,C=CC1CCC2OC2C1,"7-Oxabicyclo(4.1.0)heptane, 3-ethenyl-",321.25,le15,1
5947,CC(=O)C1=CCCCC1,1-(cyclohexen-1-yl)ethanone,346.35,le15,1
5948,CC1=CC(=O)CC(C)C1,"3,5-dimethylcyclohex-2-en-1-one",352.15,le15,1
5949,CC(C)(C)c1ccco1,2tertbutylfuran,280.0,le15,1
5950,SCc1ccccc1,Benzenemethanethiol,343.15,le15,1
5951,CSc1ccccc1,"Sulfide, methyl phenyl (6CI,8CI)",330.35,le15,1
5952,Cc1cccc(S)c1,3-methylbenzenethiol,345.95,le15,1
5953,Cc1ccccc1S,2-methylbenzenethiol,337.0499999999999,le15,1
5954,Cc1ccc(S)cc1,4-methylbenzenethiol,342.65,le15,1
5955,SCc1ccccc1,Benzenemethanethiol,343.0,le15,1
5956,C1CC2CCCC(C1)C2,bicyclo[3.3.1]nonane,310.45,le15,1
5957,C1CCC2CCCC2C1,"1H-Indene, octahydro-",310.45,le15,1
5958,CC#CCCCCCC,non-2-yne,312.15,le15,1
5959,CCC#CCCCCC,non-3-yne,310.75,le15,1
5960,CCCC#CCCCC,non-4-yne,311.45,le15,1
5961,COC(CCl)OC,"2-chloro-1,1-dimethoxyethane",302.039,le15,1
5962,OCCOCCCl,"Ethanol, 2-(2-chloroethoxy)-",363.75,le15,1
5963,CCSC(=O)Cl,"Formic acid, chlorothio-, S-ethyl ester (7CI,8CI)",303.75,le15,1
5964,FCCCCCCl,1-chloro-5-fluoropentane,310.0499999999999,le15,1
5965,CCSCCCl,"Sulfide, 2-chloroethyl ethyl (8CI)",325.15,le15,1
5966,O=CC=C(Cl)Cl,"2-Propenal, 3,3-dichloro- (9CI)",327.15,le15,1
5967,OCCBr,2-Bromo-1-ethanol,313.15,le15,1
5968,COCBr,bromo(methoxy)methane,299.85,le15,1
5969,ClCC=CCCl,"2-Butene, 1,4-dichloro-",327.5499999999999,le15,1
5970,C=C(CCl)CCl,"1-Propene, 3-chloro-2-(chloromethyl)- (9CI)",309.85,le15,1
5971,C/C=C(\Cl)CCl,"(Z)-1,2-dichlorobut-2-ene",305.5499999999999,le15,1
5972,CCN1C(=O)C=CC1=O,"1H-Pyrrole-2,5-dione, 1-ethyl-",346.15,le15,1
5973,C=C(C#N)C(=O)OCC,"2-Propenoic acid, 2-cyano-, ethyl ester",352.35,le15,1
5974,Cc1nc(N)nc(N)n1,"s-Triazine, 2,4-diamino-6-methyl- (8CI)",525.15,le15,1
5975,CNc1ccc(F)cc1,4-Fluoro-N-methylaniline,336.65,le15,1
5976,N#CC1(O)CCCCC1,1-Hydroxy-1-cyclohexanecarbonitrile,385.25,le15,1
5977,Nc1ccccc1S,"Benzenethiol, 2-amino-",368.95,le15,1
5978,CN1C2CCCC1CC2,8-methyl-8-azabicyclo[3.2.1]octane,315.35,le15,1
5979,C1CCC2NCCC2C1,"2,3,3a,4,5,6,7,7a-octahydro-1H-indole",332.5499999999999,le15,1
5980,CCCCCCCC#N,Octanenitrile,346.0,le15,1
5981,COP(=O)([O-])OC,"Phosphoric acid, dimethyl ester",323.5499999999999,le15,1
5982,CCOP(=O)([O-])[O-],"Phosphoric acid, monoethyl ester",379.55,le15,1
5983,O=P(O)(CO)CO,Bis-(hydroxymethyl)-phosphinic acid,578.25,le15,1
5984,O=Cc1ccc(CO)o1,"2-Furancarboxaldehyde, 5-(hydroxymethyl)-",352.54999999999984,le15,1
5985,Oc1cc(O)cc(O)c1,"1,3,5-Benzenetriol",448.05,le15,1
5986,Cc1occc(=O)c1O,"4H-Pyran-4-one, 3-hydroxy-2-methyl-",400.47,le15,1
5987,Oc1ccc(O)c(O)c1,"1,2,4-Trihydroxybenzene",307.35,le15,1
5988,COC(=O)c1ccco1,"2-Furancarboxylic acid, methyl ester",331.75,le15,1
5989,Cc1cc(O)nc(=O)[nH]1,"2(1H)-Pyrimidinone, 4-hydroxy-6-methyl- (8CI)",481.15,le15,1
5990,COc1ccccc1F,1-fluoro-2-methoxybenzene,322.95,le15,1
5991,COc1cccc(F)c1,1-fluoro-3-methoxybenzene,317.0499999999999,le15,1
5992,OCc1ccc(F)cc1,"Benzenemethanol, 4-fluoro- (9CI)",363.15,le15,1
5993,COc1ccc(F)cc1,1-fluoro-4-methoxybenzene,316.15,le15,1
5994,COS(=O)(=O)OC,"Sulfuric acid, dimethyl ester",356.48299999999995,le15,1
5995,C=CCOC(=O)C(=C)C,"2-Propenoic acid, 2-methyl-, 2-propenyl ester",310.15,le15,1
5996,O=C(O)C1=CCCCC1,cyclohexene-1-carboxylic acid,384.15,le15,1
5997,C/C=C/C=C/C(=O)OC,"methyl (2E,4E)-hexa-2,4-dienoate",343.15,le15,1
5998,C/C=C/C=C/C(=O)OC,"methyl (2E,4E)-hexa-2,4-dienoate",336.25,le15,1
5999,CC(=O)C1CCCC1=O,2-Acetylcyclopentan-1-one,345.95,le15,1
6000,O=C(O)C1CC=CCC1,Cyclohex-3-ene-1-carboxylic acid,383.05,le15,1
6001,CCOCc1ccco1,2-(ethoxymethyl)furan,314.35,le15,1
6002,N#CCN1CCOCC1,4-Morpholineacetonitrile,360.15,le15,1
6003,Oc1ccccc1S,"Phenol, o-mercapto- (6CI,7CI,8CI)",362.25,le15,1
6004,CC(=O)c1cccs1,1-thiophen-2-ylethanone,355.54999999999984,le15,1
6005,CC(=O)c1ccsc1,1-thiophen-3-ylethanone,342.15,le15,1
6006,C#CC(C)(O)CC(C)C,"1-Hexyn-3-ol, 3,5-dimethyl-",317.5499999999999,le15,1
6007,CC(=O)CCC=C(C)C,"5-Hepten-2-one, 6-methyl-",323.15,le15,1
6008,C1CCCC2OC2CC1,9-Oxabicyclo(6.1.0)nonane (8CI)(9CI),329.25,le15,1
6009,CCCC=C(C=O)CC,"2-Hexenal, 2-ethyl-",341.15,le15,1
6010,CC(=O)C1CCCCC1,1-cyclohexylethanone,334.5499999999999,le15,1
6011,CC1(C)CCCCC1=O,"2,2-dimethylcyclohexan-1-one",323.25,le15,1
6012,CC/C(C)=C(/C)C(C)=O,"(Z)-3,4-dimethylhex-3-en-2-one",334.5499999999999,le15,1
6013,CC1CCCC(C)C1=O,"2,6-dimethylcyclohexan-1-one",326.95,le15,1
6014,CC1(C)CCCC(=O)C1,"3,3-dimethylcyclohexan-1-one",323.25,le15,1
6015,OCC1CC2CCC1C2,Bicyclo(2.2.1)heptane-2-methanol,357.15,le15,1
6016,CCC1CCC(=O)CC1,4-ethylcyclohexan-1-one,331.65,le15,1
6017,C=CCC(C)(O)CC=C,"4-methylhepta-1,6-dien-4-ol",341.95,le15,1
6018,CC1CC(=O)C(C)(C)C1,"2,2,4-trimethylcyclopentan-1-one",318.5499999999999,le15,1
6019,O=C1CCCCCCC1,cyclooctanone,345.92800000000005,le15,1
6020,CC1CC(C)(C)CC1=O,"2,4,4-trimethylcyclopentan-1-one",318.5499999999999,le15,1
6021,CCCc1cccs1,2-propylthiophene,305.45,le15,1