,smiles,compound,flashpoint,source,pure substance
10807,O=C1c2cccc(O)c2C(=O)c2c(O)cc(CO)cc21,"9,10-Anthracenedione, 1,8-dihydroxy-3-(hydroxymethyl)- (9CI)",585.05,le15,1
10808,Cc1cc(O)c2c(c1)C(=O)c1cc(O)cc(O)c1C2=O,"Anthraquinone, 1,3,8-trihydroxy-6-methyl- (8CI)",595.95,le15,1
10809,O=c1c(O)c(-c2ccccc2)oc2cc(O)cc(O)c12,"4H-1-Benzopyran-4-one, 3,5,7-trihydroxy-2-phenyl- (9CI)",475.15,le15,1
10810,O=c1cc(-c2ccc(O)cc2)oc2cc(O)cc(O)c12,"4H-1-Benzopyran-4-one, 5,7-dihydroxy-2-(4-hydroxyphenyl)- (9CI)",490.15,le15,1
10811,CCCC(=O)O.CCCC(=O)O.O=C1OC(=O)C(O)=C1O,"Maleic anhydride, dihydroxy-, dibutyrate",435.65,le15,1
10812,Nc1ccc(O)c2c1C(=O)c1c(O)ccc(N)c1C2=O,"9,10-Anthracenedione, 1,5-diamino-4,8-dihydroxy-",619.75,le15,1
10813,O=[N+]([O-])c1ccc(/C=C/c2ccc([N+](=O)[O-])cc2)cc1,"Benzene, 1,1'-(1,2-ethenediyl)bis(4-nitro-, (E)-",455.85,le15,1
10814,CC(C)=CCOc1c2occc2cc2ccc(=O)oc12,"7H-Furo(3,2-g)(1)benzopyran-7-one, 9-((3-methyl-2-butenyl)oxy)-",498.05,le15,1
10815,COc1cc(O)c2c(c1)Cc1cc(C)cc(O)c1C2=O,"Anthrone, 1,8-dihydroxy-3-methoxy-6-methyl-",483.25,le15,1
10816,Cc1nnc(NS(=O)(=O)c2ccc(N)cc2)s1,"Benzenesulfonamide, 4-amino-N-(5-methyl-1,3,4-thiadiazol-2-yl)-",532.25,le15,1
10817,C[C@]12CC[C@@H]3c4ccc(O)cc4CC[C@H]3[C@@H]1CCC2=O,"Estra-1,3,5(10)-trien-17-one, 3-hydroxy-",462.85,le15,1
10818,CC(C)(OOC(C)(C)c1ccccc1)c1ccccc1,"Peroxide, bis(alpha,alpha-dimethylbenzyl)",372.75,le15,1
10819,CN(C)CCOC(C)(c1ccccc1)c1ccccn1,"Ethanamine, N,N-dimethyl-2-(1-phenyl-1-(2-pyridinyl)ethoxy)-",447.65,le15,1
10820,CCCCOC(=O)C1CCC(C(=O)OCCCC)C1,"1,3-Cyclopentanedicarboxylic acid, dibutyl ester",434.35,le15,1
10821,CCCCCCCC(=O)OC(=O)CCCCCCC,octanoyl octanoate,415.55,le15,1
10822,S=C1N=CC=NC(=S)SSSS1,"1,2,3,4,6,9-Tetrathiadiazecine-5,10-dithione",483.95,le15,1
10823,CCCCCCCCCCCCCCCCC(=O)O,heptadecanoic acid,431.55,le15,1
10824,CCCCCCCCCCCCCC(=O)OC(C)C,propan-2-yl tetradecanoate,417.25,le15,1
10825,CCCCCCCCCCCCCCCC(=O)OC,methyl hexadecanoate,425.95,le15,1
10826,CCCCCCCCCCCCCCCCCCO,Stearyl alcohol,411.85,le15,1
10827,O=[N+]([O-])c1cc(C(F)(F)F)cc([N+](=O)[O-])c1Cl,"Toluene, 4-chloro-3,5-dinitro-alpha,alpha,alpha-trifluoro-",399.15,le15,1
10828,CCCCCCCCCOCCCCCCCCC,1-nonoxynonane,402.45,le15,1
10829,FC(Br)(Br)Br,tribromo(fluoro)methane,289.65,le15,1
10830,O=C1CN=C(c2ccccc2)c2cc(Cl)ccc2N1,"2H-1,4-Benzodiazepin-2-one, 7-chloro-1,3-dihydro-5-phenyl-",500.95,le15,1
10831,CN1CCN=C(c2ccccc2)c2cc(Cl)ccc21,"1H-1,4-Benzodiazepine, 7-chloro-2,3-dihydro-1-methyl-5-phenyl-",471.55,le15,1
10832,FC(F)(F)C(F)(Cl)C(F)(Cl)C(F)(F)F,"2,3-dichloro-1,1,1,2,3,4,4,4-octafluorobutane",273.75,le15,1
10833,COP(=O)(OC)Oc1ccc(Cl)cc1Cl,"Phosphoric acid, 2,4-dichlorophenyl dimethyl ester",439.65,le15,1
10834,BrCc1c2ccccc2cc2ccccc12,"Anthracene, 9-bromomethyl-",482.15,le15,1
10835,CN(C)C(=O)CCNc1ccc(Br)cc1,"Propanamide, 3-((4-bromophenyl)amino)-N,N-dimethyl- (9CI)",467.75,le15,1
10836,O=[N+]([O-])c1cc(Cl)c(Cl)c([N+](=O)[O-])c1Cl,"Benzene, 1,2,4-trichloro-3,5-dinitro-",435.95,le15,1
10837,BrCCCCCCCCBr,"1,8-dibromooctane",386.15,le15,1
10838,Fc1c(F)c(F)c2c(F)c(F)c(F)c(F)c2c1F,"1,2,3,4,5,6,7,8-octafluoronaphthalene",347.45,le15,1
10839,O=C1c2ccc(O)c(O)c2C(=O)c2c(O)ccc(O)c21,"9,10-Anthracenedione, 1,2,5,8-tetrahydroxy-",553.75,le15,1
10840,COc1ccc(C(=O)Nc2ccccc2)cc1[N+](=O)[O-],"Benzamide, 4-methoxy-3-nitro-N-phenyl-",458.15,le15,1
10841,N#CCCC1(CCC#N)c2ccccc2-c2ccccc21,"9H-Fluorene-9,9-dipropanenitrile (9CI)",522.45,le15,1
10842,OC(CN1CCCCC1)c1cc(-c2ccccc2)on1,"1-Piperidineethanol, alpha-(5-phenyl-3-isoxazolyl)-",509.65,le15,1
10843,C[C@]12CC[C@@H]3c4ccc(O)cc4CC[C@H]3[C@@H]1CC[C@@H]2O,"Estra-1,3,5(10)-triene-3,17-diol, (17beta)-",482.75,le15,1
10844,COC(=O)CCCCCCCCCCCC(=O)OC,"Tridecanedioic acid, dimethyl ester",413.95,le15,1
10845,CCOP(=S)(OCC)SC1CCSC1,"Phosphorodithioic acid, O,O-diethyl S-(tetrahydro-3-thienyl) ester",437.35,le15,1
10846,ClC1=C(Cl)C(Cl)(Cl)C(Cl)=C1Cl,"1,3-Cyclopentadiene, 1,2,3,4,5,5-hexachloro-",423.15,le15,1
10847,Clc1ccc(Cl)c(I)c1,"1,4-dichloro-2-iodobenzene",367.05,le15,1
10848,COc1c2ccoc2nc2c(OC)c3c(cc12)OCO3,"1,3-Dioxolo(4,5-g)furo(2,3-b)quinoline, 4,9-dimethoxy-",489.15,le15,1
10849,O=[N+]([O-])c1ccc2c(ccc3c4ccccc4ccc23)c1,"Chrysene, 2-nitro-",531.95,le15,1
10850,N#Cc1c(Cl)nc(Cl)c(C#N)c1-c1ccccc1,"3,5-Pyridinedicarbonitrile, 2,6-dichloro-4-phenyl-",497.45,le15,1
10851,COc1cc(O)c2c(=O)c3c(O)ccc(O)c3oc2c1,"9H-Xanthen-9-one, 1,5,8-trihydroxy-3-methoxy- (9CI)",501.15,le15,1
10852,Nc1ccc(-c2ccc(N)cc2[N+](=O)[O-])c([N+](=O)[O-])c1,"2,2'-Dinitrobenzidine",529.05,le15,1
10853,Nc1ccc(-c2ccc(N)c([N+](=O)[O-])c2)cc1[N+](=O)[O-],"(1,1'-Biphenyl)-4,4'-diamine, 3,3'-dinitro- (9CI)",527.75,le15,1
10854,O=C(CCc1ccc(O)cc1)c1c(O)cc(O)cc1O,"Propiophenone, 2',4',6'-trihydroxy-3-(p-hydroxyphenyl)- (8CI)",564.25,le15,1
10855,C=CCOC(=O)OCCOCCOC(=O)OCC=C,"2,5,8,10-Tetraoxatridec-12-enoic acid, 9-oxo-, 2-propenyl ester",418.45,le15,1
10856,CCOP(=S)(OCC)OCCS(=O)CC,"Phosphorothioic acid, O,O-diethyl O-(2-(ethylsulfinyl)ethyl) ester",453.75,le15,1
10857,c1ccc(P(C2CCCCC2)C2CCCCC2)cc1,Dicyclohexylphenylphosphine,474.25,le15,1
10858,CC(C)=CCCC(C)CCOC(=O)Cc1ccccc1,"Acetic acid, phenyl-, 3,7-dimethyl-6-octenyl ester",394.35,le15,1
10859,CCCCCCCCCCCC(=O)OCC(O)CO,"Dodecanoic acid, 2,3-dihydroxypropyl ester",408.75,le15,1
10860,CCOP(=S)(OCC)SCCSCC,"Phosphorodithioic acid, O,O-diethyl S-(2-(ethylthio)ethyl) ester",426.95,le15,1
10861,CC(C)(C)OC([SiH3])=C(OC(C)(C)C)OC(C)(C)C,"Silane, tris(1,1-dimethylethoxy)ethenyl- (9CI)",388.05,le15,1
10862,CCCCCCCCCCCCCCc1ccccc1,tetradecylbenzene,433.55,le15,1
10863,COC(=O)C1(O)c2ccccc2-c2ccc(Cl)cc21,"9H-Fluorene-9-carboxylic acid, 2-chloro-9-hydroxy-, methyl ester",484.85,le15,1
10864,CN(C)CCC(c1ccc(Cl)cc1)c1ccccn1,"Pyridine, 2-(p-chloro-alpha-(2-(dimethylamino)ethyl)benzyl)-",456.15,le15,1
10865,O=C(CBr)Nc1cc([N+](=O)[O-])ccc1O,"Acetanilide, 2-bromo-2'-hydroxy-5'-nitro- (8CI)",512.65,le15,1
10866,O=C(CBr)c1ccc(-c2ccccc2)cc1,"Acetophenone, 2-bromo-4'-phenyl- (8CI)",348.25,le15,1
10867,CCOP(=O)(OCC)Oc1ccc([N+](=O)[O-])cc1,"Phosphoric acid, diethyl 4-nitrophenyl ester",435.45,le15,1
10868,O=[N+]([O-])c1ccc(Nc2ccc(O)cc2)c([N+](=O)[O-])c1,"Phenol, 4-((2,4-dinitrophenyl)amino)-",495.35,le15,1
10869,O=C1c2ccccc2-c2c3c(cc4ccnc1c24)OCO3,"8H-Benzo(g)-1,3-benzodioxolo(6,5,4-de)quinolin-8-one (9CI)",548.15,le15,1
10870,CCCOP(C)(=S)Oc1ccc([N+](=O)[O-])cc1,"Phosphonothioic acid, methyl-, O-(4-nitrophenyl) O-propyl ester",445.75,le15,1
10871,Cc1cc2c(cc1S(N)(=O)=O)S(=O)(=O)CCC2,"2H-1-Benzothiopyran-7-sulfonamide, 3,4-dihydro-6-methyl-, 1,1-dioxide",559.05,le15,1
10872,CCC(=O)N(c1ccccn1)C(C)CN1CCCCC1,N-(1-piperidin-1-ylpropan-2-yl)-N-pyridin-2-ylpropanamide,474.95,le15,1
10873,Clc1nc(Cl)nc(Nc2ccccc2Cl)n1,"1,3,5-Triazin-2-amine, 4,6-dichloro-N-(2-chlorophenyl)- (9CI)",505.35,le15,1
10874,O=C(O)C(Br)C(Br)C(=O)O,"Succinic acid, 2,3-dibromo- (8CI)",385.65,le15,1
10875,COc1c(Cl)c(Cl)c(Cl)c(Cl)c1OC,"Benzene, 1,2,3,4-tetrachloro-5,6-dimethoxy-",395.25,le15,1
10876,O=[N+]([O-])c1cc2nc(C(F)(F)F)[nH]c2cc1[N+](=O)[O-],"Benzimidazole, 5,6-dinitro-2-(trifluoromethyl)-",512.95,le15,1
10877,FC(F)(Br)C(F)(Cl)Br,"1,2-dibromo-1-chloro-1,2,2-trifluoroethane",282.25,le15,1
10878,O=[N+]([O-])c1ccc(Sc2ccc([N+](=O)[O-])cc2)cc1,"Benzene, 1,1'-thiobis(4-nitro-",521.75,le15,1
10879,O=C1C=CC(=O)N1CCCCCCN1C(=O)C=CC1=O,"1H-Pyrrole-2,5-dione, 1,1'-(1,6-hexanediyl)bis- (9CI)",491.25,le15,1
10880,c1cc2ccc3cc4cccc5ccc6cc(c1)c2c3c6c54,"Dibenzo(def,mno)chrysene",520.3499999999998,le15,1
10881,c1ccc2c(c1)-c1ccc3ccc4cccc5cc-2c1c3c45,"Indeno(1,2,3-cd)pyrene",520.3499999999998,le15,1
10882,c1cc2ccc3c4cccc5ccc(c6ccc(c1)c2c36)c54,Benzo(def)cyclopenta(hi)chrysene,538.45,le15,1
10883,CCOP(=O)(OCC)SCS(=O)(=O)CC,"Phosphorothioic acid, O,O-diethyl S-((ethylsulfonyl)methyl) ester",462.85,le15,1
10884,CC1CC(OC(=O)C(O)c2ccccc2)CC(C)(C)C1,"Benzeneacetic acid, alpha-hydroxy-, 3,3,5-trimethylcyclohexyl ester",423.25,le15,1
10885,CCCCCC=CC(=O)CCc1ccc(O)c(OC)c1,"4-Decen-3-one, 1-(4-hydroxy-3-methoxyphenyl)-",423.45,le15,1
10886,O[Si](c1ccccc1)(c1ccccc1)c1ccccc1,"Silane, hydroxytriphenyl-",461.95,le15,1
10887,CCOC(CCCCCCC[SiH3])(OCC)OCC,"Silane, triethoxyoctyl-",374.45,le15,1
10888,N#Cc1cc(Br)c(O)c(Br)c1,"Benzonitrile, 3,5-dibromo-4-hydroxy-",387.55,le15,1
10889,CC(C)COC(=O)COc1ccc(Cl)cc1Cl,"Acetic acid, (2,4-dichlorophenoxy)-, 2-methylpropyl ester (9CI)",402.05,le15,1
10890,CCCCOC(=O)COc1ccc(Cl)cc1Cl,"Acetic acid, (2,4-dichlorophenoxy)-, butyl ester",405.15,le15,1
10891,COP(=S)(OC)Oc1ccc([N+](=O)[O-])c(C)c1,"Phosphorothioic acid, O,O-dimethyl O-(3-methyl-4-nitrophenyl) ester",438.35,le15,1
10892,O=C(Nc1ccc2c(c1)Cc1ccccc1-2)C(F)(F)F,"Acetamide, N-9H-fluoren-2-yl-2,2,2-trifluoro- (9CI)",475.15,le15,1
10893,CCOP(=S)(OC)Oc1ccc([N+](=O)[O-])cc1,"Phosphorothioic acid, O-ethyl O-methyl O-(4-nitrophenyl) ester (9CI)",438.05,le15,1
10894,Cn1cnc([N+](=O)[O-])c1Sc1[nH]cnc2ncnc1-2,"1H-Purine, 6-((1-methyl-4-nitro-1H-imidazol-5-yl)thio)-",641.65,le15,1
10895,CCCCCCCCCCCCCCBr,1-bromotetradecane,400.45,le15,1
10896,Oc1ccc(C(c2ccc(O)cc2)c2ccccn2)cc1,"Phenol, 4,4'-(2-pyridinylmethylene)bis- (9CI)",506.45,le15,1
10897,C[Si](C)(Cl)O[Si](C)(C)O[Si](C)(C)Cl,bis[[chloro(dimethyl)silyl]oxy]-dimethylsilane,326.45,le15,1
10898,CNC(=O)Oc1c(C(C)(C)C)cc(C)cc1C(C)(C)C,"Phenol, 2,6-bis(1,1-dimethylethyl)-4-methyl-, methylcarbamate (9CI)",429.15,le15,1
10899,Cl[As]1c2ccccc2Nc2ccccc21,10-chloro-5H-phenarsazinine,469.85,le15,1
10900,O=C(CBr)c1ccc(Br)cc1,"Ethanone, 2-bromo-1-(4-bromophenyl)-",387.25,le15,1
10901,O=C(OCC1CO1)c1ccccc1C(=O)OCC1CO1,"Phthalic acid, bis(2,3-epoxypropyl) ester",446.05,le15,1
10902,O=C(O)CN(CCO)CCN(CC(=O)O)CC(=O)O,"Glycine, N-(2-(bis(carboxymethyl)amino)ethyl)-N-(2-hydroxyethyl)-",573.15,le15,1
10903,O=P(c1ccccc1)(c1ccccc1)c1ccccc1,"Phosphine oxide, triphenyl-",506.95,le15,1
10904,COc1ccccc1N=Nc1c(O)ccc2ccccc12,"2-Naphthalenol, 1-((2-methoxyphenyl)azo)-",495.35,le15,1
10905,Cc1c([N+](=O)[O-])cc2c(c1[N+](=O)[O-])C(C)(C)CC2(C)C,"1H-Indene, 2,3-dihydro-1,1,3,3,5-pentamethyl-4,6-dinitro-",418.45,le15,1
10906,CS(=O)(=O)OC[C@H](O)[C@@H](O)COS(C)(=O)=O,"Threitol, 1,4-dimethanesulfonate, (2S,3S)- (8CI)",594.05,le15,1
10907,CC(=O)CCCCn1c(=O)c2c(ncn2C)n(C)c1=O,"1H-Purine-2,6-dione, 3,7-dihydro-3,7-dimethyl-1-(5-oxohexyl)-",548.25,le15,1
10908,c1ccc2c(c1)ccc1cc3c(ccc4ccccc43)cc12,"Dibenz(a,h)anthracene",537.65,le15,1
10909,c1ccc2c(c1)ccc1c2ccc2ccc3ccccc3c21,Benzo(c)chrysene,537.65,le15,1
10910,c1ccc2c(c1)ccc1c2ccc2c3ccccc3ccc21,Benzo(a)chrysene,537.65,le15,1
10911,c1ccc2c(c1)ccc1cc3ccc4ccccc4c3cc12,"Dibenz(a,j)anthracene",537.65,le15,1
10912,Cc1cc(C)nc(NS(=O)(=O)c2ccc(N)cc2)n1,"Benzenesulfonamide, 4-amino-N-(4,6-dimethyl-2-pyrimidinyl)-",545.25,le15,1
10913,CC(C)COC(=O)c1ccccc1C(=O)OCC(C)C,"1,2-Benzenedicarboxylic acid, bis(2-methylpropyl) ester",427.05,le15,1
10914,CCCCOC(=O)c1ccc(C(=O)OCCCC)cc1,"1,4-Benzenedicarboxylic acid, dibutyl ester",453.35,le15,1
10915,CCCCC(CC)COC(=O)c1ccccc1C(=O)[O-],"1,2-Benzenedicarboxylic acid, mono(2-ethylhexyl) ester (9CI)",417.25,le15,1
10916,CCCCOC(=O)c1ccccc1C(=O)OCCCC,"1,2-Benzenedicarboxylic acid, dibutyl ester",450.55,le15,1
10917,Cc1ccc(/C(=C\CN2CCCC2)c2ccccn2)cc1,"Pyridine, 2-(1-(4-methylphenyl)-3-(1-pyrrolidinyl)-1-propenyl)-, (E)-",490.25,le15,1
10918,ClC(c1ccccc1)(c1ccccc1)c1ccccc1,"Benzene, 1,1',1''-(chloromethylidyne)tris-",451.05,le15,1
10919,O=C(O)C1CCc2cc(C3CCCCC3)c(Cl)cc21,"1H-Indene-1-carboxylic acid, 6-chloro-5-cyclohexyl-2,3-dihydro- (9CI)",483.65,le15,1
10920,FC(F)(Cl)C(F)(Cl)I,"1,2-dichloro-1,1,2-trifluoro-2-iodoethane",289.0499999999999,le15,1
10921,c1ccc2c(c1)ccc1nc3ccc4ccccc4c3cc12,"Dibenz(a,j)acridine",513.45,le15,1
10922,c1ccc2c(c1)ccc1cc3ccc4ccccc4c3nc12,"Dibenz(c,h)acridine",513.45,le15,1
10923,c1ccc2c(c1)ccc1nc3c(ccc4ccccc43)cc12,"Dibenz(a,h)acridine",513.45,le15,1
10924,O=Cc1cc(Br)cc(Br)c1O,"Salicylaldehyde, 3,5-dibromo- (6CI,7CI,8CI)",384.85,le15,1
10925,O=Cc1cc(Br)c(O)c(Br)c1,"3,5-Dibromo-4-hydroxybenzaldehyde",392.25,le15,1
10926,Ic1ccc(-c2ccccc2)cc1,1-iodo-4-phenylbenzene,418.95,le15,1
10927,CNc1ccc(Cl)cc1C(=O)c1ccccc1Cl,"Benzophenone, 2',5-dichloro-2-methylamino-",499.55,le15,1
10928,COc1nccnc1NS(=O)(=O)c1ccc(N)cc1,"Benzenesulfonamide, 4-amino-N-(3-methoxypyrazinyl)-",522.45,le15,1
10929,CCC(c1ccccc1)c1c(O)c2ccccc2oc1=O,"2H-1-Benzopyran-2-one, 4-hydroxy-3-(1-phenylpropyl)-",424.95,le15,1
10930,COc1cc(NS(=O)(=O)c2ccc(N)cc2)ncn1,"Benzenesulfonamide, 4-amino-N-(6-methoxy-4-pyrimidinyl)-",537.3499999999998,le15,1
10931,CC(=O)Nc1ccc2c(c1)Cc1cc(NC(C)=O)ccc1-2,"Acetamide, N,N'-9H-fluorene-2,7-diylbis- (9CI)",520.05,le15,1
10932,CCOc1ccc(-n2c(C)nc3ccccc3c2=O)cc1,"4(3H)-Quinazolinone, 3-(p-ethoxyphenyl)-2-methyl-",504.05,le15,1
10933,C=C[Si](OCCOC)(OCCOC)OCCOC,"6-Ethenyl-6-(methoxyethoxy)-2,5,7,10-tetraoxa-6-silaundecane (9CI)",377.95,le15,1
10934,CN(C)CCCN1c2ccccc2CCc2ccccc21,"5H-Dibenz(b,f)azepine-5-propanamine, 10,11-dihydro-N,N-dimethyl- (9CI)",452.85,le15,1
10935,CCCCC/C=C/C/C=C/CCCCCCCC(=O)O,"9,12-Octadecadienoic acid, (9E,12E)-",546.15,le15,1
10936,CCCCCCCCCCCCCCC1CCCCC1,tetradecylcyclohexane,437.85,le15,1
10937,O=CC(Br)(Br)Br,"Acetaldehyde, tribromo-",338.15,le15,1
10938,CC(Br)(Br)CBr,"1,2,2-tribromopropane",344.85,le15,1
10939,CC(Br)C(Br)Br,"1,1,2-tribromopropane",344.95,le15,1
10940,BrCC(Br)CBr,"Propane, 1,2,3-tribromo-",366.15,le15,1
10941,CCOP(=S)(CC)Sc1ccc(Cl)cc1,"Phosphonodithioic acid, ethyl-, S-(4-chlorophenyl) O-ethyl ester",441.25,le15,1
10942,O=[N+]([O-])c1cc(Br)ccc1Br,"1,4-Dibromo-2-nitrobenzene",388.05,le15,1
10943,O=C(O)C(c1ccc(Cl)cc1)c1ccc(Cl)cc1,"Benzeneacetic acid, 4-chloro-alpha-(4-chlorophenyl)- (9CI)",475.75,le15,1
10944,O=C(O)c1ccccc1Nc1cccc(C(F)(F)F)c1,"Anthranilic acid, N-(alpha,alpha,alpha-trifluoro-m-tolyl)-",453.05,le15,1
10945,O=C1CN=C(c2ccccc2)c2cc([N+](=O)[O-])ccc2N1,"2H-1,4-Benzodiazepin-2-one, 1,3-dihydro-7-nitro-5-phenyl-",527.55,le15,1
10946,CNc1ncnc2c1ncn2[C@@H]1O[C@H](CO)[C@@H](O)[C@H]1O,"Adenosine, N-methyl- (8CI)(9CI)",619.45,le15,1
10947,CCCN(CCC)c1c([N+](=O)[O-])cc(C)cc1[N+](=O)[O-],"Benzenamine, 4-methyl-2,6-dinitro-N,N-dipropyl- (9CI)",475.55,le15,1
10948,CCC(CC)Nc1c([N+](=O)[O-])cc(C)c(C)c1[N+](=O)[O-],"Benzenamine, N-(1-ethylpropyl)-3,4-dimethyl-2,6-dinitro- (9CI)",481.55,le15,1
10949,COc1c(O)cc2c3c1-c1ccccc1CC3N(C)CC2,"4H-Dibenzo(de,g)quinolin-2-ol, 5,6,6a,7-tetrahydro-1-methoxy-6-methyl-",499.95,le15,1
10950,CC1CN(C2CCCCCCCCCCC2)CC(C)O1,"Morpholine, 4-cyclododecyl-2,6-dimethyl-",382.85,le15,1
10951,CC(I)I,"1,1-diiodoethane",345.65,le15,1
10952,ICCI,"1,2-diiodoethane",374.05,le15,1
10953,COC(=O)C=C(CC(=O)OC)OP(=O)(OC)OC,"2-Pentenedioic acid, 3-((dimethoxyphosphinyl)oxy)-, dimethyl ester",439.95,le15,1
10954,COc1c(C=O)c(O)cc2c1C(=O)c1ccccc1C2=O,"2-Anthraquinonecarboxaldehyde, 3-hydroxy-1-methoxy-",478.05,le15,1
10955,COCCOC(=O)c1ccccc1C(=O)OCCOC,"Phthalic acid, bis(2-methoxyethyl) ester (8CI)",404.75,le15,1
10956,CCCCOC(=O)C1(O)c2ccccc2-c2ccccc21,"9H-Fluorene-9-carboxylic acid, 9-hydroxy-, butyl ester",405.95,le15,1
10957,CCCCCCCCOC(=O)c1cc(O)c(O)c(O)c1,"Benzoic acid, 3,4,5-trihydroxy-, octyl ester",450.25,le15,1
10958,OCCOCCOCCOCCOCCOCCO,"3,6,9,12,15-Pentaoxaheptadecane-1,17-diol",383.15,le15,1
10959,Sc1c(Cl)c(Cl)c(Cl)c(Cl)c1Cl,"Benzenethiol, 2,3,4,5,6-pentachloro-",417.75,le15,1
10960,O=C(CCC(=O)OC1CCCCC1)OC1CCCCC1,"Butanedioic acid, dicyclohexyl ester (9CI)",455.35,le15,1
10961,CC(C)(C)c1cc(-c2ccccc2)cc(C(C)(C)C)c1O,"(1,1'-Biphenyl)-4-ol, 3,5-bis(1,1-dimethylethyl)-",441.05,le15,1
10962,CC(C)CCC(C)Nc1ccc(Nc2ccccc2)cc1,"1,4-Benzenediamine, N-(1,4-dimethylpentyl)-N'-phenyl-",525.8499999999998,le15,1
10963,OCC(Br)(Br)Br,"Ethanol, 2,2,2-tribromo-",372.85,le15,1
10964,Brc1ccccc1I,1-bromo-2-iodobenzene,377.95,le15,1
10965,Brc1ccc(I)cc1,1-bromo-4-iodobenzene,375.05,le15,1
10966,Brc1cccc(I)c1,1-bromo-3-iodobenzene,378.45,le15,1
10967,OC[C@H]1OC(n2cnc3c(NO)ncnc32)[C@H](O)[C@@H]1O,"Adenine, N-hydroxy-9-ribofuranosyl-",652.55,le15,1
10968,C=CCN1CC[C@]23CCCC[C@H]2[C@H]1Cc1ccc(O)cc13,"Morphinan-3-ol, 17-(2-propenyl)-",487.35,le15,1
10969,CCOP(=O)(OC=C(Cl)Cl)OCCCl,"Phosphoric acid, 2-chloroethyl 2,2-dichloroethenyl ethyl ester",397.65,le15,1
10970,CCCCCCCCCCCCCCCCCC(N)=O,Octadecanamide,480.65,le15,1
10971,O=[N+]([O-])c1ccc(Oc2ccc(Cl)cc2Cl)cc1,"Benzene, 2,4-dichloro-1-(4-nitrophenoxy)-",445.05,le15,1
10972,COc1ccc(-c2coc3cc(O)cc(O)c3c2=O)cc1,"Isoflavone, 5,7-dihydroxy-4'-methoxy- (8CI)",471.35,le15,1
10973,COc1cc(O)c2c(c1)C(=O)c1cc(C)cc(O)c1C2=O,"9,10-Anthracenedione, 1,8-dihydroxy-3-methoxy-6-methyl- (9CI)",488.55,le15,1
10974,OC[C@H]1O[C@@H](n2cnc3c(=S)[nH]cnc32)[C@H](O)[C@@H]1O,"9H-Purine-6(1H)-thione, 9-beta-D-ribofuranosyl- (8CI)",659.15,le15,1
10975,Cc1ccc2nc3c4cccc5cccc(c(=O)n3c2c1)c54,"7H-Benzimidazo(2,1-a)benz(de)isoquinolin-7-one, 10-methyl-",599.3499999999998,le15,1
10976,CC(=O)Nc1ccc(Oc2ccc(NC(C)=O)cc2)cc1,"Acetanilide, 4',4'''-oxybis- (8CI)",562.25,le15,1
10977,O=C(C=Cc1ccccc1)c1ccc(-c2ccccc2)cc1,4'-Phenylchalcone,478.65,le15,1
10978,Cc1ccc2cc3c(ccc4ccccc43)c3c2c1CC3O,"1,2-Dihydro-3-methylbenz(j)aceanthrylen- 1-ol",479.95,le15,1
10979,CCN(Cc1ccncc1)C(=O)C(CO)c1ccccc1,"Benzeneacetamide, N-ethyl-alpha-(hydroxymethyl)-N-(4-pyridinylmethyl)-",524.95,le15,1
10980,C=CC(C)(CCC=C(C)C)OC(=O)C=Cc1ccccc1,"2-Propenoic acid, 3-phenyl-, 1-ethenyl-1,5-dimethyl-4-hexenyl ester",489.25,le15,1
10981,CN(C)CCCN1c2ccccc2Sc2ccccc21,"10H-Phenothiazine-10-propanamine, N,N-dimethyl- (9CI)",476.55,le15,1
10982,CC(C)CCCCCCCCCCCCCCC(=O)O,"Heptadecanoic acid, 16-methyl-",498.75,le15,1
10983,CCCCCCCCCCCCCCCCCC(=O)O,octadecanoic acid,435.55,le15,1
10984,CCCCCCCCCCCCCC(=O)OCCCC,"Myristic acid, butyl ester (8CI)",431.65,le15,1
10985,CCCCN(CCCC)C(=O)N(CCCC)CCCC,"Urea, tetrabutyl-",405.15,le15,1
10986,Clc1c(Cl)c(Cl)c(Cl)c(Cl)c1Cl,"Benzene, hexachloro-",424.25,le15,1
10987,CN1C(=O)CN=C(c2ccccc2)c2cc(Cl)ccc21,"2H-1,4-Benzodiazepin-2-one, 7-chloro-1,3-dihydro-1-methyl-5-phenyl-",527.75,le15,1
10988,ClC(Cl)C(Cl)(Cl)C(Cl)(Cl)Cl,"1,1,1,2,2,3,3-heptachloropropane",376.05,le15,1
10989,ClC(C(Cl)(Cl)Cl)C(Cl)(Cl)Cl,"1,1,1,2,3,3,3-heptachloropropane",372.75,le15,1
10990,O=C(Nc1ccc2c(c1)Cc1ccccc1-2)c1ccccc1,"Benzamide, N-9H-fluoren-2-yl- (9CI)",518.65,le15,1
10991,CN1CC[C@]23c4c5ccc(O)c4O[C@H]2C(=O)CC[C@H]3[C@H]1C5,"Morphinan-6-one, 4,5alpha-epoxy-3-hydroxy-17-methyl- (8CI)",514.55,le15,1
10992,CCCN(CCC)S(=O)(=O)c1ccc(C(=O)O)cc1,"Benzoic acid, 4-((dipropylamino)sulfonyl)-",491.85,le15,1
10993,O=P(O)(O)O.OCCCl.OCCCl.OCCCl,"Ethanol, 2-chloro-, phosphate (3:1)",505.35,le15,1
10994,CCCCCCCCCCCC(=O)OCCSC#N,"Dodecanoic acid, 2-thiocyanatoethyl ester (9CI)",465.15,le15,1
10995,CCCCC(CC)CN(CCO)CC(CC)CCCC,"Ethanol, 2-(bis(2-ethylhexyl)amino)-",413.05,le15,1
10996,O=C1OC(=O)c2c(Cl)c(Cl)c(Cl)c(Cl)c21,"1,3-Isobenzofurandione, 4,5,6,7-tetrachloro-",434.75,le15,1
10997,CC1(C)C(=O)N(Br)C(=O)N1Br,"2,4-Imidazolidinedione, 1,3-dibromo-5,5-dimethyl-",378.25,le15,1
10998,Brc1ccc(Br)c2ccccc12,"1,4-dibromonaphthalene",454.55,le15,1
10999,Cc1cc(O)c2c(c1O)C(=O)c1c(O)ccc(O)c1C2=O,"9,10-Anthracenedione, 1,4,5,8-tetrahydroxy-2-methyl- (9CI)",591.65,le15,1
11000,Cc1cc(O)c2c(c1O)C(=O)c1cc(O)cc(O)c1C2=O,"Anthraquinone, 1,4,5,7-tetrahydroxy-2-methyl- (8CI)",621.75,le15,1
11001,O=C1c2cc(O)cc(O)c2C(=O)c2c(O)cc(CO)cc21,"9,10-Anthracenedione, 1,3,8-trihydroxy-6-(hydroxymethyl)-",647.55,le15,1
11002,O=c1c(O)c(-c2ccc(O)cc2)oc2cc(O)cc(O)c12,"4H-1-Benzopyran-4-one, 3,5,7-trihydroxy-2-(4-hydroxyphenyl)-",499.25,le15,1
11003,COc1cc(OC)c2c(=O)c3cc(OC)ccc3oc2c1,"Xanthen-9-one, 1,3,7-trimethoxy-",477.55,le15,1
11004,Nc1ccc(Cc2ccc(N)c(C(=O)O)c2)cc1C(=O)O,"5,5'-Methylenedianthranilic acid",575.55,le15,1
11005,CCCCOP(=O)(OCCCC)Oc1ccccc1,"Phosphoric acid, dibutyl phenyl ester",442.25,le15,1
11006,CCOc1ccc(N=[N+]([O-])c2ccc(OCC)cc2)cc1,"Azoxybenzene, 4,4'-diethoxy- (8CI)",493.05,le15,1
11007,CCCCC(CC)COC(=O)OCC(CC)CCCC,bis(2-ethylhexyl) carbonate,404.45,le15,1
11008,CCCCCCCCCCCCCCCCCCS,1-Octadecanethiol,458.15,le15,1
11009,FC(F)(C(Cl)(Cl)Cl)C(Cl)(Cl)Cl,"Propane, 2,2-difluoro-1,1,1,3,3,3-hexachloro-",352.95,le15,1
11010,ClC(Br)(Br)Br,tribromo(chloro)methane,325.95,le15,1