,smiles,compound,flashpoint,source,pure substance
6022,Cc1cc(C)c(C)s1,"2,3,5-trimethylthiophene",309.35,le15,1
6023,CCc1sccc1C,2-ethyl-3-methylthiophene,306.85,le15,1
6024,CC1CCCC(C)C1C,"1,2,3-trimethylcyclohexane",301.0499999999999,le15,1
6025,CCCC1CCCCC1,propylcyclohexane,308.15,le15,1
6026,CC1CC(C)CC(C)C1,"1,3,5-trimethylcyclohexane",301.0499999999999,le15,1
6027,CC1CC(C)CC(C)C1,"1,3,5-Trimethylcyclohexane",301.0499999999999,le15,1
6028,CCCCC1CCCC1,butylcyclopentane,307.85,le15,1
6029,CC1CCCC(C)(C)C1,"1,1,3-trimethylcyclohexane",298.35,le15,1
6030,CC(C)CC1CCCC1,2-methylpropylcyclopentane,304.65,le15,1
6031,CCC1CCCCC1C,1-ethyl-2-methylcyclohexane,305.0499999999999,le15,1
6032,CCC1CCCCC1C,1-ethyl-2-methylcyclohexane,305.0499999999999,le15,1
6033,CCC1(C)CCCCC1,1-ethyl-1-methylcyclohexane,302.35,le15,1
6034,CC1CCCCC1(C)C,"1,1,2-trimethylcyclohexane",298.35,le15,1
6035,CC1[C@H](C)CCC[C@H]1C,"(1R,3R)-1,2,3-trimethylcyclohexane",301.0499999999999,le15,1
6036,CC1CCC(C)C(C)C1,"1,2,4-trimethylcyclohexane",301.0499999999999,le15,1
6037,CC[C@@H]1CCC[C@H](C)C1,"(1R,3S)-1-ethyl-3-methylcyclohexane",305.0499999999999,le15,1
6038,CC1(C)CCC(C)(C)C1,"1,1,3,3-tetramethylcyclopentane",291.0499999999999,le15,1
6039,C=CCCCCCCC,1-Nonene,297.15,le15,1
6040,CC(C)C1CCCCC1,propan-2-ylcyclohexane,308.75,le15,1
6041,C/C=C/CCCCCC,(E)-non-2-ene,305.35,le15,1
6042,CC(C)C1CCCCC1,IsopropylCyclohexane,308.0,le15,1
6043,CCCC1CCCCC1,propylcyclohexane,308.0,le15,1
6044,ClCc1ccccc1,"Benzene, (chloromethyl)-",347.039,le15,1
6045,Cc1ccc(Cl)cc1,4chlorotoluene,322.0,le15,1
6046,O=C(Cl)C(=O)Cl,oxalyl dichloride,277.65,le15,1
6047,FCCBr,"Ethane, 1-bromo-2-fluoro-",272.15,le15,1
6048,CC(=O)C(Cl)Cl,"2-Propanone, 1,1-dichloro-",297.5499999999999,le15,1
6049,O=C(Cl)CCCl,3-chloropropanoyl chloride,334.85,le15,1
6050,O=C(CCl)CCl,"2-Propanone, 1,3-dichloro-",362.15,le15,1
6051,CCCC(Cl)Cl,"1,1-dichlorobutane",291.45,le15,1
6052,CC(C)C(Cl)Cl,"1,1-dichloro-2-methylpropane",288.75,le15,1
6053,CC(C)C(Cl)Cl,"1,1-dichloro-2-methylpropane",288.85,le15,1
6054,CC(Cl)CCCl,"1,3-dichlorobutane",303.75,le15,1
6055,C[C@@H](Cl)[C@@H](C)Cl,"(2R,3R)-2,3-dichlorobutane",291.45,le15,1
6056,CCC(C)(Cl)Cl,"2,2-dichlorobutane",288.75,le15,1
6057,ClCCCCCl,"Butane, 1,4-dichloro-",313.95,le15,1
6058,Nc1nc(=O)cc(O)[nH]1,"4(1H)-Pyrimidinone, 2-amino-6-hydroxy-",553.55,le15,1
6059,Cn1cncc1[N+](=O)[O-],1-Methyl-5-nitro-1H-imidazole,425.85,le15,1
6060,Cn1ccnc1[N+](=O)[O-],"1H-Imidazole, 1-methyl-2-nitro- (9CI)",413.75,le15,1
6061,O=C1CCCCC(=O)N1,Adipimide,421.95,le15,1
6062,N#CCCCCC(=O)O,"Valeric acid, 5-cyano-",419.55,le15,1
6063,CC(=O)N1CCCCC1,1-piperidin-1-ylethanone,370.15,le15,1
6064,O=CNC1CCCCC1,N-cyclohexylformamide,422.15,le15,1
6065,CN1CCCCCC1=O,"2H-Azepin-2-one, hexahydro-1-methyl- (8CI)(9CI)",376.45,le15,1
6066,C=CC(=O)N(CC)CC,"2-Propenamide, N,N-diethyl- (9CI)",364.625,le15,1
6067,CC(C)N1CCCC1=O,"2-Pyrrolidinone, 1-(1-methylethyl)-",366.15,le15,1
6068,CCCCOCCC#N,"Propanenitrile, 3-butoxy-",361.35,le15,1
6069,CCC1CCC(C)NC1,"Piperidine, 5-ethyl-2-methyl-",317.35,le15,1
6070,CCCCN1CCCC1,1-butylpyrrolidine,309.25,le15,1
6071,NC1CCCCCCC1,cyclooctanamine,335.95,le15,1
6072,CCNC1CCCCC1,"Cyclohexanamine, N-ethyl-",316.0499999999999,le15,1
6073,CCCN1CCCCC1,1-propylpiperidine,312.95,le15,1
6074,CCCC1CCNCC1,4-propylpiperidine,321.5499999999999,le15,1
6075,CNCC1CCCCC1,"Cyclohexanemethylamine, N-methyl-",314.45,le15,1
6076,CCCC1CCCCN1,2-propylpiperidine,321.5499999999999,le15,1
6077,Nc1ccccc1Cl,"Benzenamine, 2-chloro-",371.15,le15,1
6078,Nc1cccc(Cl)c1,"Benzenamine, 3-chloro-",397.05,le15,1
6079,Cc1cccc(Cl)n1,6-Chloro-2-methylpyridine,346.15,le15,1
6080,Nc1ccc(Cl)cc1,"Benzenamine, 4-chloro-",333.85,le15,1
6081,Cc1ccnc(Cl)c1,2-chloro-4-methylpyridine,362.75,le15,1
6082,C[As](F)F,difluoro(methyl)arsane,279.04999999999995,le15,1
6083,NC(=O)C(Cl)Cl,"Acetamide, 2,2-dichloro-",377.45,le15,1
6084,COC(=O)C(F)(F)F,"methyl 2,2,2-trifluoroacetate",266.15,le15,1
6085,O=C1CC(=O)NC(=O)N1,"2,4,6(1H,3H,5H)-Pyrimidinetrione",423.15,le15,1
6086,CC(C)(O)C(F)(F)F,"1,1,1-Trifluoro-2-methylpropan-2-ol",320.5499999999999,le15,1
6087,OCCCC(F)(F)F,"4,4,4-trifluorobutan-1-ol",306.95,le15,1
6088,N#Cc1ccc(C#N)cc1,"1,4-Benzenedicarbonitrile",415.95,le15,1
6089,O=C1OC2CCCC1O2,"6,8-Dioxabicyclo(3.2.1)octan-7-one",362.95,le15,1
6090,N#Cc1ccccc1C#N,"1,2-Benzenedicarbonitrile",426.45,le15,1
6091,C=CC(=O)OCC1CO1,"2-Propenoic acid, oxiranylmethyl ester",349.25,le15,1
6092,N#Cc1cccc(C#N)c1,"1,3-Benzenedicarbonitrile",416.15,le15,1
6093,O=C(O)C1CCCCC1,Cyclohexanecarboxylic acid,380.15,le15,1
6094,C=CC(=O)OCC(C)C,"2-Propenoic acid, 2-methylpropyl ester",305.95,le15,1
6095,C=CC(=O)OCCCC,Acrylic acid butyl ester (8CI),312.5499999999999,le15,1
6096,C=CCCCCC(=O)O,hept-6-enoic acid,386.45,le15,1
6097,O=C(O)CC1CCCC1,2-cyclopentylacetic acid,387.15,le15,1
6098,CC(=O)OCC=C(C)C,"2-Buten-1-ol, 3-methyl-, acetate",322.15,le15,1
6099,CC1CCCCOC1=O,"2-Oxepanone, methyl-",359.15,le15,1
6100,C=C(C)C(=O)OCCC,"2-Propenoic acid, 2-methyl-, propyl ester",307.85,le15,1
6101,CC(=O)C(C)(C)C(C)=O,"3,3-dimethylpentane-2,4-dione",330.15,le15,1
6102,C=COC(=O)CCCC,ethenyl pentanoate,311.5499999999999,le15,1
6103,O=COC1CCCCC1,cyclohexyl formate,326.45,le15,1
6104,CC(=O)CC(C)C(C)=O,"3-methylhexane-2,5-dione",344.15,le15,1
6105,C=C(C)C(=O)OC(C)C,"2-Propenoic acid, 2-methyl-, 1-methylethyl ester",304.15,le15,1
6106,C/C=C(\C)C(=O)OCC,"Crotonic acid, 2-methyl-, ethyl ester, (E)- (8CI)",317.15,le15,1
6107,CCC(=O)CC(=O)CC,"3,5-Heptanedione",336.5499999999999,le15,1
6108,C#CC(OCC)OCC,"3,3-diethoxyprop-1-yne",305.35,le15,1
6109,CC(=O)C(=O)CC(C)C,"2,3-Hexanedione, 5-methyl-",306.15,le15,1
6110,CCOC(=O)C1CCC1,ethyl cyclobutanecarboxylate,316.35,le15,1
6111,CCOC1CCC=CO1,"3,4-Dihydro-2H-pyran-2-yl ethyl ether",297.5499999999999,le15,1
6112,CCOC(=O)C=C(C)C,"2-Butenoic acid, 3-methyl-, ethyl ester",307.0499999999999,le15,1
6113,CC1CC(=O)CC(C)O1,"4H-Pyran-4-one, tetrahydro-2,6-dimethyl-",338.65,le15,1
6114,CCC(C(C)=O)C(C)=O,"3-ethylpentane-2,4-dione",333.35,le15,1
6115,C=CC(=O)OC(C)(C)C,"Acrylic acid, tert-butyl ester (8CI)",304.75,le15,1
6116,C=CCOC(=O)CCC,"Butanoic acid, 2-propenyl ester",314.85,le15,1
6117,CCCC/C=C/C(=O)O,(E)-hept-2-enoic acid,406.55,le15,1
6118,C=CC(=O)OCCCC,butyl2propenoat,310.0,le15,1
6119,O=NN1CCCCCC1,"1H-Azepine, hexahydro-1-nitroso-",376.35,le15,1
6120,CN1CCCN(C)C1=O,"2(1H)-Pyrimidinone, tetrahydro-1,3-dimethyl-",358.45,le15,1
6121,CCCCCC(=O)CC,octan-3-one,319.15,le15,1
6122,CC(C)(C)CC1(C)CO1,"2-(2,2-dimethylpropyl)-2-methyloxirane",301.15,le15,1
6123,CCCCC(C=O)CC,"Hexanal, 2-ethyl-",323.15,le15,1
6124,CC(=O)CCCC(C)C,6-methylheptan-2-one,317.75,le15,1
6125,CC(O)C1CCCCC1,"Cyclohexanemethanol, alpha-methyl-",346.15,le15,1
6126,CC(C)=CCCC(C)O,6-methylhept-5-en-2-ol,340.95,le15,1
6127,CCCCC(C)C(C)=O,3-methylheptan-2-one,317.75,le15,1
6128,CCCCCCC1CO1,"Oxirane, hexyl- (9CI)",310.35,le15,1
6129,CC1(C)COC(C)(C)C1,"2,2,4,4-tetramethyloxolane",297.45,le15,1
6130,C=CC(O)CCCCC,Oct-1-ene-3-ol,334.25,le15,1
6131,CC1(O)CCCCCC1,1-methylcycloheptan-1-ol,344.75,le15,1
6132,OCCC1CCCCC1,"Ethanol, 2-cyclohexyl-",359.85,le15,1
6133,C=COCCCCCC,1-ethenoxyhexane,282.95,le15,1
6134,CC1CC(C)CC(O)C1,"3,5-dimethylcyclohexan-1-ol",346.45,le15,1
6135,CC1CCC(O)CC1C,"3,4-dimethylcyclohexan-1-ol",351.45,le15,1
6136,CCCCC(=O)C(C)C,2-methylheptan-3-one,317.35,le15,1
6137,CC1(C)CCC(C)(C)O1,"Furan, tetrahydro-2,2,5,5-tetramethyl-",277.04999999999995,le15,1
6138,CCCC(=O)C(C)CC,3-methylheptan-4-one,317.75,le15,1
6139,CCC(C)C(C)C(C)=O,"3,4-dimethylhexan-2-one",307.35,le15,1
6140,CCCC(C)(C)C(C)=O,"3,3-dimethylhexan-2-one",307.5499999999999,le15,1
6141,CC(C)CC(=O)C(C)C,"2,5-dimethylhexan-3-one",307.35,le15,1
6142,CCC1(O)CCCCC1,1-ethylcyclohexan-1-ol,341.35,le15,1
6143,C=CC(C)(O)CC(C)C,"3,5-dimethylhex-1-en-3-ol",313.25,le15,1
6144,CCCC(=O)C(C)(C)C,tert-Butyl propyl ketone,307.5499999999999,le15,1
6145,CCCCCC(=O)CC,3octanone,326.0,le15,1
6146,CCC(=O)CC(C)CC,5methyl3heptanone,316.0,le15,1
6147,CC1CN(C)CCN1C,"1,2,4-trimethylpiperazine",304.25,le15,1
6148,CC(C)N1CCNCC1,"Piperazine, 1-(1-methylethyl)- (9CI)",329.5499999999999,le15,1
6149,CCN1CCCC(N)C1,1-ethylpiperidin-3-amine,333.75,le15,1
6150,CCC(C)C(C)C(C)C,"2,3,4-trimethylhexane",301.15,le15,1
6151,CCCC(C)C(C)CC,"3,4-dimethylheptane",333.15,le15,1
6152,CCC(C)CC(C)CC,"3,5-dimethylheptane",328.0499999999999,le15,1
6153,CCC(CC)(CC)CC,"3,3-diethylpentane",305.95,le15,1
6154,CC(C)(C)CC(C)(C)C,"2,2,4,4-tetramethylpentane",292.45,le15,1
6155,CCCCCC(C)(C)C,"2,2-dimethylheptane",297.5499999999999,le15,1
6156,CC(C)CCCC(C)C,"2,6-dimethylheptane",326.25,le15,1
6157,CC(C)C(C)C(C)(C)C,"2,2,3,4-tetramethylpentane",298.65,le15,1
6158,CCC(C)CCC(C)C,"2,5-dimethylheptane",327.35,le15,1
6159,CCCC(CC)CCC,4-ethylheptane,297.15,le15,1
6160,CCCCCC(C)CC,3-methyloctane,298.45,le15,1
6161,CCCCC(C)C(C)C,"Heptane, 2,3-dimethyl-",333.25,le15,1
6162,CCCC(C)(CC)CC,3-ethyl-3-methylhexane,302.35,le15,1
6163,CCCCC(C)(C)CC,"3,3-dimethylheptane",300.35,le15,1
6164,CCC(C)(C)C(C)(C)C,"2,2,3,3-tetramethylpentane",302.15,le15,1
6165,CCCCC(CC)CC,3-ethylheptane,298.25,le15,1
6166,CCCC(C)C(C)(C)C,"2,2,3-trimethylhexane",298.5499999999999,le15,1
6167,CCC(C)CC(C)(C)C,"2,2,4-trimethylhexane",294.0499999999999,le15,1
6168,CCCC(C)(C)C(C)C,"2,3,3-trimethylhexane",300.85,le15,1
6169,CCC(C)(C)CC(C)C,"2,4,4-trimethylhexane",296.25,le15,1
6170,CC(C)C(C)(C)C(C)C,"2,3,3,4-tetramethylpentane",302.65,le15,1
6171,CCCC(CC)C(C)C,3-ethyl-2-methylhexane,330.45,le15,1
6172,CCCCC(C)CCC,4-methyloctane,297.35,le15,1
6173,CCC(CC)CC(C)C,4-ethyl-2-methylhexane,325.35,le15,1
6174,CCCCCCC(C)C,2-methyloctane,298.35,le15,1
6175,CCC(C)C(C)(C)CC,"3,3,4-trimethylhexane",301.75,le15,1
6176,CCC(C)C(CC)CC,3methyl4ethylhexane,297.0,le15,1
6177,Oc1cccc(Cl)c1,"Phenol, 3-chloro-",350.04999999999984,le15,1
6178,Oc1ccccc1Cl,"Phenol, 2-chloro-",337.0499999999999,le15,1
6179,Oc1ccc(Cl)cc1,4chlorophenol,388.0,le15,1
6180,CCS(=O)(=O)Cl,ethanesulfonyl chloride,326.45,le15,1
6181,O=C(Cl)OCCl,chloromethyl carbonochloridate,298.65,le15,1
6182,O=c1[nH]c(=O)[nH]c(=O)[nH]1,"s-Triazine-2,4,6(1H,3H,5H)-trione (8CI)",706.75,le15,1
6183,Nc1ccc(F)cc1F,"Benzenamine, 2,4-difluoro-",335.15,le15,1
6184,Nc1ccc(F)c(F)c1,"Benzenamine, 3,4-difluoro-",358.15,le15,1
6185,O=C1CC[C@@H](C(=O)O)N1,"Proline, 5-oxo-, L-",500.95,le15,1
6186,C=CCN(N=O)C(N)=O,"Urea, N-nitroso-N-2-propenyl- (9CI)",349.15,le15,1
6187,O=[N+]([O-])c1cccs1,2-nitrothiophene,367.05,le15,1
6188,O=[N+]([O-])c1ccsc1,3-nitrothiophene,363.65,le15,1
6189,c1ccc2ncccc2c1,Quinoline,374.15,le15,1
6190,c1ccc2cnccc2c1,Isoquinoline,374.25,le15,1
6191,N#C/C=C/c1ccccc1,(E)-3-phenylprop-2-enenitrile,378.35,le15,1
6192,NC1(C(=O)O)CCCC1,1-Aminocyclopentane-1-carboxylic acid,381.85,le15,1
6193,O=[N+]([O-])C1CCCCC1,nitrocyclohexane,354.35,le15,1
6194,CC(=O)N1CCOCC1,"Morpholine, 4-acetyl-",395.15,le15,1
6195,CC(=O)CC(=O)N(C)C,"Butanamide, N,N-dimethyl-3-oxo-",355.54999999999984,le15,1
6196,O=C1CCCN1CCO,"2-Pyrrolidinone, 1-(2-hydroxyethyl)-",373.15,le15,1
6197,CCC=C(CC)[N+](=O)[O-],"3-Hexene, 3-nitro-",338.75,le15,1
6198,CCN(C(C)=O)C(C)=O,N-acetyl-N-ethylacetamide,347.54999999999984,le15,1
6199,OCCC1CCNCC1,2-piperidin-4-ylethanol,374.85,le15,1
6200,CC(C)C(=NO)C(C)C,"N-(2,4-dimethylpentan-3-ylidene)hydroxylamine",371.95,le15,1
6201,CCC(=O)N(CC)CC,"N,N-diethylpropanamide",346.75,le15,1
6202,OCCC1CCCCN1,2-piperidin-2-ylethanol,375.35,le15,1
6203,CCN(CC)CC1CO1,"Oxiranemethanamine, N,N-diethyl- (9CI)",314.25,le15,1
6204,CCCCCC(C)=NO,"2-Heptanone, oxime",613.8499999999998,le15,1
6205,CN1CCCC(CO)C1,(1-methylpiperidin-3-yl)methanol,367.55,le15,1
6206,OCCN1CCCCC1,1-Piperidineethanol,364.35,le15,1
6207,CN1CN(C)CN(C)C1,"1,3,5-trimethyl-1,3,5-triazinane",322.5499999999999,le15,1
6208,NCCN1CCNCC1,"Piperazine, 1-(2-aminoethyl)-",366.15,le15,1
6209,CC(C)(C)CN=C=S,Neopentyl isothiocyanate,327.503,le15,1
6210,CCCCCN=C=S,Pentyl isothiocyanate,338.35,le15,1
6211,CCCCC(CC)CN,"1-Hexanamine, 2-ethyl-",325.35,le15,1
6212,CC(C)(C)CC(C)(C)N,"Butylamine, 1,1,3,3-tetramethyl- (6CI,7CI,8CI)",305.15,le15,1
6213,CC(C)CNCC(C)C,"1-Propanamine, 2-methyl-N-(2-methylpropyl)-",302.5499999999999,le15,1
6214,CCC(C)NC(C)CC,N-butan-2-ylbutan-2-amine,293.75,le15,1
6215,CCCCCCC(C)N,"Heptylamine, 1-methyl-",335.95,le15,1
6216,CCCCN(CC)CC,"1-Butanamine, N,N-diethyl-",299.95,le15,1
6217,CCN(C(C)C)C(C)C,N-ethyl-N-propan-2-ylpropan-2-amine,283.75,le15,1
6218,CCCCNCCCC,"1-Butanamine, N-butyl-",314.25,le15,1
6219,CCCCC(CC)CN,2ethyl1hexanamine,323.0,le15,1
6220,ClCBr,"Methane, bromochloro-",284.15,le15,1
6221,Oc1ccc(Cl)cn1,5-Chloropyridin-2-ol,402.75,le15,1
6222,Oc1cccnc1Cl,"3-Pyridinol, 2-chloro-",418.15,le15,1
6223,O=[N+]([O-])C(Cl)Cl,"Methane, dichloronitro-",296.35,le15,1
6224,O=c1[nH]cc(F)c(=O)[nH]1,"2,4(1H,3H)-Pyrimidinedione, 5-fluoro-",469.65,le15,1
6225,C=C(CC(=O)O)C(=O)O,2-methylidenebutanedioic acid,471.85,le15,1
6226,O=CC#Cc1ccccc1,"Propiolaldehyde, phenyl- (8CI)",367.55,le15,1
6227,c1ccc2nccnc2c1,Quinoxaline,371.15,le15,1
6228,O=CCCCC(O)C=O,"Hexanedial, 2-hydroxy-",380.75,le15,1
6229,CCOC(=O)CC(C)=O,"Butanoic acid, 3-oxo-, ethyl ester",340.15,le15,1
6230,CC(C)(C)C(=O)C(=O)O,"3,3-dimethyl-2-oxobutanoic acid",351.54999999999984,le15,1
6231,C=C(C)C(=O)OCCO,"2-Propenoic acid, 2-methyl-, 2-hydroxyethyl ester",370.37199999999996,le15,1
6232,C=CC(=O)OCC(C)O,"2-Propenoic acid, 2-hydroxypropyl ester (9CI)",353.04999999999984,le15,1
6233,C(OCC1CO1)C1CO1,"Oxirane, 2,2'-(oxybis(methylene))bis-",343.75,le15,1
6234,C=CC(=O)OCCOC,"Acrylic acid, 2-methoxyethyl ester (8CI)",333.15,le15,1
6235,c1ccc2ncncc2c1,quinazoline,379.817,le15,1
6236,COC1C=CC(OC)O1,"2,5-dimethoxy-2,5-dihydrofuran",320.35,le15,1
6237,CCOC(=O)CCC=O,"Butanoic acid, 4-oxo-, ethyl ester",341.65,le15,1
6238,COC(=O)C(C)C(C)=O,methyl 2-methyl-3-oxobutanoate,505.55,le15,1
6239,CCOC(=O)CC(C)=O,ethyl3oxobutanoat,343.0,le15,1
6240,CCC(=O)OC(=O)CC,PropionicAnhydride,336.0,le15,1
6241,O=[N+]([O-])N1CCCCC1,1-nitropiperidine,391.25,le15,1
6242,C1=Cc2ccccc2CC1,"Naphthalene, 1,2-dihydro-",343.5,le15,1
6243,C1=CCc2ccccc2C1,"1,4-dihydronaphthalene",343.85,le15,1
6244,Cc1cccc2c1C=CC2,4-methyl-1H-indene,347.85,le15,1
6245,Cc1cccc2c1CC=C2,7-methyl-1H-indene,348.04999999999984,le15,1
6246,Cc1ccc2c(c1)CC=C2,6-methyl-1H-indene,346.45,le15,1
6247,C=Cc1cccc(C=C)c1,"1,3-bis(ethenyl)benzene",347.75,le15,1
6248,CCCOC(=O)CCC,"Butanoic acid, propyl ester",312.0499999999999,le15,1
6249,CCCCCC(=O)OC,"Hexanoic acid, methyl ester",315.15,le15,1
6250,COC(C)(C)CC(C)=O,"2-Pentanone, 4-methoxy-4-methyl-",314.45,le15,1
6251,CCOC(=O)CC(C)C,"Butyric acid, 3-methyl-, ethyl ester (6CI,7CI,8CI)",299.15,le15,1
6252,CC(=O)OCCC(C)C,"1-Butanol, 3-methyl-, acetate",298.15,le15,1
6253,CCCCC(=O)OCC,"Valeric acid, ethyl ester (8CI)",312.0499999999999,le15,1
6254,CCC(=O)OCC(C)C,"Propanoic acid, 2-methylpropyl ester",299.15,le15,1
6255,CCCCOC(=O)CC,"Propanoic acid, butyl ester",311.15,le15,1
6256,CCC(=O)OC(C)CC,butan-2-yl propanoate,306.5499999999999,le15,1
6257,CCC(C)COC(C)=O,2-methylbutyl acetate,308.15,le15,1
6258,CCCCCCOC=O,"Formic acid, hexyl ester",320.95,le15,1
6259,CCCC(=O)OC(C)C,propan-2-yl butanoate,303.15,le15,1
6260,CCCOC(=O)C(C)C,propyl 2-methylpropanoate,306.5499999999999,le15,1
6261,CCOC(=O)C(C)(C)C,"ethyl 2,2-dimethylpropanoate",289.15,le15,1
6262,CCCCC(C)C(=O)O,2-methylhexanoic acid,330.15,le15,1
6263,N#CSCSC#N,"Thiocyanic acid, methylene ester",399.45,le15,1
6264,CCOC(=O)C(C)CC,"Butyric acid, 2-methyl-, ethyl ester (8CI)",306.5499999999999,le15,1
6265,CCC(C)(CC)C(=O)O,"Butanoic acid, 2-ethyl-2-methyl-",365.15,le15,1
6266,CCC(=O)OC(C)(C)C,"Propanoic acid, 1,1-dimethylethyl ester",298.5499999999999,le15,1
6267,CCCC(C)(C)C(=O)O,"2,2-dimethylpentanoic acid",365.15,le15,1
6268,CCCCOCC1CO1,"Propane, 1-butoxy-2,3-epoxy-",328.75,le15,1
6269,CC(C)(C)OCC1CO1,"Oxirane, ((1,1-dimethylethoxy)methyl)-",316.45,le15,1
6270,CCCCCCC(=O)[O-],2pentylacetate,305.0,le15,1
6271,CCC(=O)OC(C)(C)C,tertButylPropionate,293.0,le15,1
6272,OCCN1CCNCC1,N-(2-Hydroxyethyl)piperazine,375.05,le15,1
6273,NCCCCCC(N)=O,6-aminohexanamide,414.35,le15,1
6274,CCN(N=O)C(C)(C)C,"tert-Butylamine, N-ethyl-N-nitroso-",346.75,le15,1
6275,NCCN1CCOCC1,"Morpholine, 4-(2-aminoethyl)-",448.15,le15,1
6276,CCCCN(CC)N=O,"1-Butanamine, N-ethyl-N-nitroso- (9CI)",355.75,le15,1
6277,CCCCC(CC)CO,"1-Hexanol, 2-ethyl-",350.35,le15,1
6278,CC(C)CC(C)(C)CO,"1-Pentanol, 2,2,4-trimethyl-",329.75,le15,1
6279,CCCCOCCCC,"Butane, 1,1'-oxybis-",298.15,le15,1
6280,CCCCC(O)CCC,octan-4-ol,344.25,le15,1
6281,CCCC(O)(CC)CC,3-ethylhexan-3-ol,333.75,le15,1
6282,CCCC(C)(O)CCC,4-methylheptan-4-ol,333.75,le15,1
6283,CC(C)CCCCCO,"1-Heptanol, 6-methyl-",344.25,le15,1
6284,CCCCC(C)(C)CO,"1-Hexanol, 2,2-dimethyl-",333.75,le15,1
6285,CCCC(O)C(C)(C)C,"2,2-dimethylhexan-3-ol",329.75,le15,1
6286,CC(C)CCCC(C)O,6-methylheptan-2-ol,340.35,le15,1
6287,CC(C)C(O)C(C)(C)C,"2,2,4-trimethylpentan-3-ol",323.15,le15,1
6288,CCCCC(C)(O)CC,"3-Heptanol, 3-methyl- (8CI)(9CI)",333.75,le15,1
6289,CCCCCCOCC,1-ethoxyhexane,304.35,le15,1
6290,CCCCOCC(C)C,1-(2-methylpropoxy)butane,295.95,le15,1
6291,CCCC(C)C(C)(C)O,"2,3-dimethylhexan-2-ol",329.75,le15,1
6292,CCC(C)C(C)C(C)O,"3,4-dimethylhexan-2-ol",332.35,le15,1
6293,CCCC(O)CC(C)C,2-Methylheptan-4-ol,337.35,le15,1
6294,CCCCC(C)C(C)O,"2-Heptanol, 3-methyl- (8CI)(9CI)",337.35,le15,1
6295,CCCC(CO)CCC,"1-Pentanol, 2-propyl-",344.85,le15,1
6296,CCC(O)(CC)C(C)C,3-ethyl-2-methylpentan-3-ol,329.75,le15,1
6297,CC(C)C(C)C(C)(C)O,"2,3,4-trimethylpentan-2-ol",323.15,le15,1
6298,CC(C)CCC(C)(C)O,"2,5-dimethylhexan-2-ol",329.75,le15,1
6299,CCC(C)CC(O)CC,"3-Heptanol, 5-methyl-",337.35,le15,1
6300,CCCCC(CC)CO,2ethylhexanol,346.0,le15,1
6301,CCCCCC(O)CC,3octanol,338.0,le15,1
6302,CN(C)CCCN(C)C,"1,3-Propanediamine, N,N,N',N'-tetramethyl-",304.85,le15,1
6303,CCN(CC)CCCN,"1,3-Propanediamine, N,N-diethyl-",326.15,le15,1
6304,NCCCCCCCN,"heptane-1,7-diamine",360.95,le15,1
6305,CCCC[Si](C)(C)C,Butyltrimethylsilane,281.65,le15,1
6306,O=C(O)C(F)(F)Cl,"2-chloro-2,2-difluoroacetic acid",299.0499999999999,le15,1
6307,O=C(Cl)c1ccco1,furan-2-carbonyl chloride,330.25,le15,1
6308,Fc1ccccc1Cl,1-chloro-2-fluorobenzene,310.15,le15,1
6309,Fc1ccc(Cl)cc1,1-chloro-4-fluorobenzene,302.15,le15,1
6310,Fc1ccccc1Cl,1-chloro-2-fluorobenzene,293.15,le15,1
6311,COS(=O)(=O)Cl,chlorosulfonyloxymethane,306.95,le15,1
6312,Cc1cc(Cl)n(C)n1,"5-Chloro-1,3-dimethyl-1H-pyrazole",335.85,le15,1
6313,CCP(Cl)Cl,dichloro(ethyl)phosphane,305.95,le15,1
6314,CC(F)(Cl)CCl,"1,2-dichloro-2-fluoropropane",276.75,le15,1
6315,N#CC(=O)c1ccccc1,"Glyoxylonitrile, phenyl- (8CI)",357.15,le15,1
6316,N#Cc1cccc(C=O)c1,m-Formylbenzonitrile,354.45,le15,1
6317,NCC(=O)CCC(=O)O,"Pentanoic acid, 5-amino-4-oxo-",407.45,le15,1
6318,c1cnc2cnncc2c1,"Pyrido(2,3-d)pyridazine",452.45,le15,1
6319,c1cc2cnncc2cn1,"Pyrido(3,4-d)pyridazine",467.05,le15,1
6320,CN(C)C(=O)N(C)N=O,"Urea, 1,1,3-trimethyl-3-nitroso-",316.85,le15,1
6321,Cc1cc2ccccc2[nH]1,2-methyl-1H-indole,385.65,le15,1
6322,Cc1ccc2[nH]ccc2c1,5-methyl-1H-indole,387.85,le15,1
6323,Cc1cccc2cc[nH]c12,7-methyl-1H-indole,383.65,le15,1
6324,Cc1cccc(CC#N)c1,2-(3-methylphenyl)acetonitrile,381.55,le15,1
6325,Cc1ccc(CC#N)cc1,2-(4-methylphenyl)acetonitrile,379.25,le15,1
6326,Cc1cccc(C#N)c1C,"Benzonitrile, 2,3-dimethyl-",373.15,le15,1
6327,Cc1ccccc1CC#N,2-(2-methylphenyl)acetonitrile,384.45,le15,1
6328,Cc1c[nH]c2ccccc12,"1H-Indole, 3-methyl-",405.15,le15,1
6329,CC(C#N)c1ccccc1,"Benzeneacetonitrile, alpha-methyl-",367.05,le15,1
6330,Cc1cccc2[nH]ccc12,4-methyl-1H-indole,387.25,le15,1
6331,CCCC(C)OC(N)=O,"Carbamic acid, 1-methylbutyl ester",367.35,le15,1
6332,OCCN1CCOCC1,2-Morpholinoethanol,372.55,le15,1
6333,CCCCCC[N+](=O)[O-],"Hexane, 1-nitro-",345.15,le15,1
6334,CC(=O)OCCN(C)C,2-dimethylaminoethyl acetate,529.95,le15,1
6335,NCCCCCC(=O)O,"Hexanoic acid, 6-amino-",381.55,le15,1
6336,CC(C)=NNC(N)=S,"Hydrazinecarbothioamide, 2-(1-methylethylidene)-",356.25,le15,1
6337,CCCCOCCCN,3butoxypropylamine,336.0,le15,1
6338,NCCCNCCCN,"1,3-Propanediamine, N-(3-aminopropyl)-",391.15,le15,1
6339,ClC=C(Cl)Cl,"1,1,2-Trichloroethylene",285.25,le15,1