,smiles,compound,flashpoint,source,pure substance
8649,O=Cc1c(F)c(F)cc(F)c1F,"2,3,5,6-Tetrafluorobenzaldehyde",347.04999999999984,le15,1
8650,Cc1c(F)c(F)c(C)c(F)c1F,"1,2,4,5-tetrafluoro-3,6-dimethylbenzene",320.35,le15,1
8651,CCOS(=O)(=O)C(F)(F)F,ethyl trifluoromethanesulfonate,308.75,le15,1
8652,O=C1c2ccccc2C(=O)C1(O)O,"1H-Indene-1,3(2H)-dione, 2,2-dihydroxy-",512.8499999999998,le15,1
8653,CCOC(=O)C(=O)c1ccccc1,ethyl 2-oxo-2-phenylacetate,386.15,le15,1
8654,C=CC(O)c1ccc2c(c1)OCO2,"1,3-Benzodioxole-5-methanol, alpha-ethenyl-",408.35,le15,1
8655,c1cc2c(cc1CC1CO1)OCO2,"1,3-Benzodioxole, 5-(oxiranylmethyl)- (9CI)",367.15,le15,1
8656,O=C(O)CCSCCC(=O)O,"Propanoic acid, 3,3'-thiobis-",401.15,le15,1
8657,C(#Cc1ccccc1)c1ccccc1,2-phenylethynylbenzene,399.193,le15,1
8658,C=CCc1ccc(OC)c(OC)c1,"Benzene, 1,2-dimethoxy-4-(2-propenyl)-",390.15,le15,1
8659,CC=Cc1ccc(OCC)c(O)c1,"Phenol, 2-ethoxy-5-(1-propenyl)-",438.35,le15,1
8660,CC(C)C(=O)OCc1ccccc1,"Propanoic acid, 2-methyl-, phenylmethyl ester",368.65,le15,1
8661,Cc1ccc(OC(=O)C(C)C)cc1,"Propanoic acid, 2-methyl-, 4-methylphenyl ester",366.95,le15,1
8662,COc1ccc(CCC(C)=O)cc1,"2-Butanone, 4-(p-methoxyphenyl)- (6CI,7CI,8CI)",385.15,le15,1
8663,CCC(=O)OC(C)c1ccccc1,"Benzenemethanol, alpha-methyl-, propanoate",379.15,le15,1
8664,CC(C)COC(=O)c1ccccc1,"Benzoic acid, isobutyl ester (6CI,7CI,8CI)",374.55,le15,1
8665,CCC(=O)OCCc1ccccc1,"Propanoic acid, 2-phenylethyl ester",367.55,le15,1
8666,CCCCOC(=O)c1ccccc1,"Benzoic acid, butyl ester",380.15,le15,1
8667,CC1(c2ccccc2)CCOCO1,"4-methyl-4-phenyl-1,3-dioxane",386.95,le15,1
8668,CCOC(=O)CCc1ccccc1,ethyl 3-phenylpropanoate,381.15,le15,1
8669,CC(=O)OC(C)Cc1ccccc1,"Acetic acid, alpha-methyl-phenethyl ester",376.15,le15,1
8670,CCC(C(=O)OC)c1ccccc1,methyl 2-phenylbutanoate,366.75,le15,1
8671,COC(C=Cc1ccccc1)OC,"Benzene, (3,3-dimethoxy-1-propenyl)-",372.55,le15,1
8672,CCCCOc1ccc(C=O)cc1,"Benzaldehyde, 4-butoxy-",396.95,le15,1
8673,C=CC(=O)OCC1CC2C=CC1C2,"2-Propenoic acid, bicyclo(2.2.1)hept-5-en-2-ylmethyl ester",395.55,le15,1
8674,CC(C)(C)c1ccc(C(=O)O)cc1,"Benzoic acid, 4-(1,1-dimethylethyl)-",408.05,le15,1
8675,CCCC(=O)OCc1ccccc1,"Butanoic acid, phenylmethyl ester",421.722,le15,1
8676,CC(C)OC(=O)Cc1ccccc1,"Benzeneacetic acid, 1-methylethyl ester",370.65,le15,1
8677,CCN(CC)C(=O)c1cccnc1,"N,N-diethylpyridine-3-carboxamide",414.25,le15,1
8678,COCCOCCOCCOC,"1,2-Bis(2-methoxyethoxy)ethane",386.15,le15,1
8679,CCOCCOCCOCCO,"Ethanol, 2-(2-(2-ethoxyethoxy)ethoxy)-",405.15,le15,1
8680,CCN(CC)c1ccc(N=O)cc1,"Benzenamine, N,N-diethyl-4-nitroso-",402.55,le15,1
8681,CCCCCc1ccc(C)cc1O,"Phenol, 5-methyl-2-pentyl- (9CI)",398.45,le15,1
8682,Cc1cc(O)c(C(C)(C)C)cc1C,"3,4-Xylenol, 6-tert-butyl-",388.85,le15,1
8683,O=C1CCCCC1C1=CCCCC1,2-(1-Cyclohexen-1-yl)cyclohexan-1-one,389.25,le15,1
8684,Cc1cc(C)c(O)c(C(C)(C)C)c1,"Phenol, 2-(1,1-dimethylethyl)-4,6-dimethyl-",384.85,le15,1
8685,CC(C)c1cccc(C(C)C)c1O,"Phenol, 2,6-bis(1-methylethyl)-",380.65,le15,1
8686,OCCCCCCc1ccccc1,Benzenehexanol,394.95,le15,1
8687,CCCCCCc1ccccc1O,"Phenol, 2-hexyl- (9CI)",413.05,le15,1
8688,CC(C)c1ccc(C(C)(C)O)cc1,"Benzenemethanol, alpha,alpha-dimethyl-4-(1-methylethyl)- (9CI)",378.65,le15,1
8689,Cc1cc(C(C)(C)C)c(C)cc1O,"4-tert-butyl-2,5-dimethylphenol",390.95,le15,1
8690,CC(C)CCOCc1ccccc1,3-methylbutoxymethylbenzene,366.85,le15,1
8691,C1=CCCC2OC2CCC=CCC1,"13-Oxabicyclo(10.1.0)trideca-4,8-diene",386.75,le15,1
8692,CCCCS(=O)(=O)CCCC,Butyl sulfone (8CI),412.75,le15,1
8693,S=C1NCCNC(=S)S1,"1,3,6-Thiadiazepine-2,7-dithione, tetrahydro-",395.05,le15,1
8694,CC(C)CS(=O)(=O)CC(C)C,2-methyl-1-(2-methylpropylsulfonyl)propane,383.35,le15,1
8695,CC(C)(C)SSC(C)(C)C,"Disulfide, bis(1,1-dimethylethyl)",335.35,le15,1
8696,CCCCSSCCCC,1-(butyldisulfanyl)butane,366.45,le15,1
8697,SCCCCCCCCS,"Octane-1,8-dithiol",374.256,le15,1
8698,CC(C)(C)SSC(C)(C)C,Ditertbutyldisulfide,340.0,le15,1
8699,COC(=O)/C=C(/Cl)C(=O)OC,dimethyl (E)-2-chlorobut-2-enedioate,364.65,le15,1
8700,ClP(Cl)c1ccccc1,"Phosphonous dichloride, phenyl-",362.45,le15,1
8701,Oc1cc(Cl)c(Cl)cc1O,"1,2-Benzenediol, 4,5-dichloro-",409.75,le15,1
8702,Oc1ccc(Cl)c(Cl)c1O,"1,2-Benzenediol, 3,4-dichloro-",392.45,le15,1
8703,Oc1cc(Cl)c(O)cc1Cl,"Hydroquinone, 2,5-dichloro- (8CI)",392.65,le15,1
8704,CCOP(=S)(Cl)Cl,"Phosphorodichloridothioic acid, O-ethyl ester",336.15,le15,1
8705,C=CC(=O)OCCBr,"2-Propenoic acid, 2-bromoethyl ester (9CI)",340.75,le15,1
8706,CC(C)(C)C(=O)CBr,"2-Butanone, 1-bromo-3,3-dimethyl-",348.15,le15,1
8707,CC(=O)CCCCBr,6-bromohexan-2-one,351.35,le15,1
8708,BrCC1CCCCO1,"2H-Pyran, 2-(bromomethyl)tetrahydro-",338.15,le15,1
8709,CCCCCCCBr,"Heptane, 1-bromo-",333.75,le15,1
8710,Nc1ccc(F)cc1C(F)(F)F,"alpha,alpha,alpha,4-Tetrafluoro-o-toluidine",345.35,le15,1
8711,Nc1ccc(F)c(C(F)(F)F)c1,"alpha,alpha,alpha,4-Tetrafluoro-m-toluidine",364.15,le15,1
8712,CC(=O)NC(=O)c1ccccc1O,"Benzamide, N-acetyl-2-hydroxy- (9CI)",454.05,le15,1
8713,CC(=O)Nc1ccc(C(=O)O)cc1,"Benzoic acid, p-acetamido- (8CI)",492.85,le15,1
8714,CC(=O)NNC(=O)c1ccncc1,"Hydrazine, 1-acetyl-2-isonicotinoyl-",504.25,le15,1
8715,c1ccc2c(c1)cnc1ccccc12,phenanthridine,429.05,le15,1
8716,c1ccc2c(c1)ccc1cccnc12,Benzo(h)quinoline,429.05,le15,1
8717,CC(C)OC(=O)Nc1ccccc1,"Carbamic acid, phenyl-, 1-methylethyl ester",284.15,le15,1
8718,CCCCc1ccc(C(=O)O)nc1,"2-Pyridinecarboxylic acid, 5-butyl-",426.05,le15,1
8719,CN(C)P(=O)(N(C)C)N(C)C,"Phosphoric triamide, hexamethyl-",367.85,le15,1
8720,CC(Cc1ccccc1)OC(N)=O,"Carbamic acid, alpha-methylphenethyl ester",445.55,le15,1
8721,CCOC(=O)CNc1ccccc1,ethyl 2-anilinoacetate,392.75,le15,1
8722,CNC(=O)Oc1ccc(C)c(C)c1,"Carbamic acid, methyl-, 3,4-xylyl ester",389.35,le15,1
8723,CCOC(=O)NCc1ccccc1,ethyl N-benzylcarbamate,411.05,le15,1
8724,CNC(=O)Oc1cc(C)cc(C)c1,"Phenol, 3,5-dimethyl-, methylcarbamate (9CI)",387.35,le15,1
8725,CCCCOc1ccc(N=O)cc1,"Ether, butyl p-nitrosophenyl",396.15,le15,1
8726,CC(C)(C)c1cccc([N+](=O)[O-])c1,1-tert-butyl-3-nitrobenzene,360.95,le15,1
8727,CCN(CCO)c1cccc(C)c1,"Ethanol, 2-(ethyl(3-methylphenyl)amino)-",397.15,le15,1
8728,ClCC(Cl)=C(Cl)Cl,"1-Propene, 1,1,2,3-tetrachloro-",335.45,le15,1
8729,COc1c(F)c(F)cc(F)c1F,"1,2,4,5-tetrafluoro-3-methoxybenzene",314.85,le15,1
8730,CC(=O)Oc1ccccc1C(=O)O,"Benzoic acid, 2-(acetyloxy)-",523.15,le15,1
8731,O=C(O)C=Cc1ccc(O)c(O)c1,"2-Propenoic acid, 3-(3,4-dihydroxyphenyl)- (9CI)",493.15,le15,1
8732,COC(=O)c1ccc(C(=O)O)cc1,4-methoxycarbonylbenzoic acid,409.15,le15,1
8733,O=C[C@H](O)[C@@H](O)[C@H](O)[C@H](O)CO,D-Glucose,559.8499999999998,le15,1
8734,CC(=O)Nc1ccc([N+](=O)[O-])cc1,"Acetanilide, 4'-nitro- (8CI)",474.25,le15,1
8735,CP(=O)(F)OC1CCCCC1,[fluoro(methyl)phosphoryl]oxycyclohexane,370.45,le15,1
8736,OC1C(O)C(O)C(O)C(O)C1O,"cyclohexane-1,2,3,4,5,6-hexol",416.537,le15,1
8737,Cn1c(=O)c2[nH]cnc2n(C)c1=O,"1H-Purine-2,6-dione, 3,7-dihydro-1,3-dimethyl-",501.57599999999996,le15,1
8738,O=C1c2ccccc2-c2ccccc21,9H-Fluoren-9-one,417.292,le15,1
8739,O=C1C=Cc2cccc3cccc1c23,1H-Phenalen-1-one (9CI),431.05,le15,1
8740,CC(C)OP(C)(=O)OC(C)C,"Phosphonic acid, methyl-, bis(1-methylethyl) ester",370.85,le15,1
8741,c1cnc2c(c1)ccc1cccnc12,"1,10-Phenanthroline",437.906,le15,1
8742,CCCOC(=O)c1ccc(O)cc1,"Benzoic acid, 4-hydroxy-, propyl ester",397.75,le15,1
8743,CCOC(=O)c1ccc(OC)cc1,"Benzoic acid, 4-methoxy-, ethyl ester",379.25,le15,1
8744,COc1ccc(COC(C)=O)cc1,(4-methoxyphenyl)methyl acetate,408.15,le15,1
8745,c1cnc2c(c1)ccc1ncccc12,"1,7-Phenanthroline",437.95,le15,1
8746,CC(C)OC(=O)c1ccccc1O,propan-2-yl 2-hydroxybenzoate,369.65,le15,1
8747,CCCOC(=O)c1ccccc1O,propyl 2-hydroxybenzoate,373.65,le15,1
8748,COc1ccc(C(C)=O)cc1OC,"1-(3,4-dimethoxyphenyl)ethanone",386.55,le15,1
8749,OCC1COC(c2ccccc2)O1,"1,3-Dioxolane-4-methanol, 2-phenyl-",426.45,le15,1
8750,CCC(Oc1ccccc1)C(=O)O,2-phenoxybutanoic acid,388.45,le15,1
8751,CCOC(=O)c1cccc(OC)c1,ethyl 3-methoxybenzoate,298.5499999999999,le15,1
8752,COc1cc(N)ccc1NC(C)=O,2-Acetylamino-5-aminoanisole,396.75,le15,1
8753,CCOc1ccc(NC(N)=O)cc1,"Urea, (4-ethoxyphenyl)- (9CI)",407.75,le15,1
8754,COc1ccc2nc(N)sc2c1,"Benzothiazole, 2-amino-6-methoxy-",437.05,le15,1
8755,COc1cccc2sc(N)nc12,"2-Benzothiazolamine, 4-methoxy- (9CI)",437.05,le15,1
8756,C(=C/c1ccccc1)\c1ccccc1,"Benzene, 1,1'-(1,2-ethenediyl)bis-, (E)- (9CI)",401.65,le15,1
8757,c1ccc2c(c1)Cc1ccccc1C2,"9,10-dihydroanthracene",404.95,le15,1
8758,C(=C\c1ccccc1)\c1ccccc1,(Z)-stilbene,401.65,le15,1
8759,CC1c2ccccc2-c2ccccc21,"9H-Fluorene, 9-methyl- (9CI)",410.65,le15,1
8760,C=C(c1ccccc1)c1ccccc1,1-phenylethenylbenzene,386.15,le15,1
8761,C(=C/c1ccccc1)\c1ccccc1,(E)-stilbene,401.65,le15,1
8762,CS(=N)(=O)CCC(N)C(=O)O,"Butanoic acid, 2-amino-4-(S-methylsulfonimidoyl)- (9CI)",439.95,le15,1
8763,COc1ccc(O)c(C(C)(C)C)c1,"Phenol, 2-(1,1-dimethylethyl)-4-methoxy-",378.75,le15,1
8764,COc1ccc(O)c(C(C)(C)C)c1,"Phenol, (1,1-dimethylethyl)-4-methoxy-",378.75,le15,1
8765,CCNC(=S)Nc1ccccc1,"Urea, 1-ethyl-3-phenyl-2-thio- (8CI)",387.15,le15,1
8766,CC(C)(C)c1ccc(C(C)(C)C)o1,"2,5-ditert-butylfuran",345.25,le15,1
8767,CCO[Si](C)(C)c1ccccc1,"Silane, dimethylethoxyphenyl-",346.25,le15,1
8768,CC1SC(C)SC(C)S1,"2,4,6-trimethyl-1,3,5-trithiane",375.75,le15,1
8769,FC(F)(F)c1ccccc1Cl,"Toluene, o-chloro-alpha,alpha,alpha-trifluoro- (8CI)",317.15,le15,1
8770,FC(F)(F)c1ccc(Cl)cc1,"Toluene, p-chloro-alpha,alpha,alpha-trifluoro-",320.15,le15,1
8771,FC(F)(F)c1cccc(Cl)c1,"Toluene, m-chloro-alpha,alpha,alpha-trifluoro- (8CI)",309.15,le15,1
8772,CCOC(=O)C(C)Br,"Propionic acid, 2-bromo-, ethyl ester (6CI,7CI,8CI)",331.5499999999999,le15,1
8773,CCCC(Br)C(=O)O,"Valeric acid, 2-bromo- (8CI)",367.35,le15,1
8774,CCC(Br)C(=O)OC,"Butanoic acid, 2-bromo-, methyl ester",331.5499999999999,le15,1
8775,COC(=O)CCCBr,methyl 4-bromobutanoate,360.15,le15,1
8776,CCOC(=O)CCBr,"Propionic acid, 3-bromo-, ethyl ester (8CI)",343.15,le15,1
8777,CC(C)C(Br)C(=O)O,"Butanoic acid, 2-bromo-3-methyl-",380.15,le15,1
8778,O=C(O)CCCCBr,"Pentanoic acid, 5-bromo-",387.55,le15,1
8779,OCCCCCCBr,"1-Hexanol, 6-bromo-",368.75,le15,1
8780,COC(=O)c1cccc([N+](=O)[O-])c1,methyl 3-nitrobenzoate,409.95,le15,1
8781,Cc1c(C(=O)O)cccc1[N+](=O)[O-],"Benzoic acid, 2-methyl-3-nitro-",425.05,le15,1
8782,Cc1ccc([N+](=O)[O-])cc1C(=O)O,"Benzoic acid, 2-methyl-5-nitro-",432.75,le15,1
8783,Cc1ccc([N+](=O)[O-])c(C(=O)O)c1,"Benzoic acid, 5-methyl-2-nitro-",438.15,le15,1
8784,O=C(O)Cc1ccccc1[N+](=O)[O-],"Acetic acid, (o-nitrophenyl)-",429.05,le15,1
8785,Cc1cccc(C(=O)O)c1[N+](=O)[O-],"Benzoic acid, 3-methyl-2-nitro-",426.508,le15,1
8786,Cc1ccc(C(=O)O)c([N+](=O)[O-])c1,"p-Toluic acid, 3-nitro- (8CI)",432.15,le15,1
8787,O=C(O)Cc1ccc([N+](=O)[O-])cc1,"Acetic acid, (p-nitrophenyl)-",444.75,le15,1
8788,O=C(O)Cc1cccc([N+](=O)[O-])c1,"Benzeneacetic acid, 3-nitro- (9CI)",442.95,le15,1
8789,Cc1cc(C(=O)O)ccc1[N+](=O)[O-],"Benzoic acid, 3-methyl-4-nitro-",434.35,le15,1
8790,CN(N=O)c1ccc([N+](=O)[O-])cc1,"Benzenamine, N-methyl-4-nitro-N-nitroso- (9CI)",457.05,le15,1
8791,Nc1ccc2c(c1)Cc1ccccc1-2,9H-Fluoren-2-amine,477.95,le15,1
8792,NC1c2ccccc2-c2ccccc21,9-Aminofluorene,441.25,le15,1
8793,C(=Nc1ccccc1)c1ccccc1,"N,1-diphenylmethanimine",400.324,le15,1
8794,Cc1ccc2[nH]c3ccccc3c2c1,3-methyl-9H-carbazole,438.55,le15,1
8795,Nc1cccc2c1Cc1ccccc1-2,9H-Fluoren-1-amine (9CI),461.95,le15,1
8796,N=C(c1ccccc1)c1ccccc1,diphenylmethanimine,397.45,le15,1
8797,Cn1c2ccccc2c2ccccc21,"9H-Carbazole, 9-methyl- (9CI)",431.25,le15,1
8798,Nc1ccc2c(c1)-c1ccccc1C2,9H-Fluoren-3-amine (9CI),466.45,le15,1
8799,Nc1cccc2c1-c1ccccc1C2,9H-Fluoren-4-amine (9CI),477.95,le15,1
8800,OCCN(CCO)c1ccccc1,"Ethanol, 2,2'-(phenylimino)bis-",473.15,le15,1
8801,Cn1c(=S)sc2ccccc21,"3-methyl-1,3-benzothiazole-2-thione",408.75,le15,1
8802,CCCCCCCCCCCC#N,Lauronitrile (8CI),387.15,le15,1
8803,C1CCC(NC2CCCCC2)CC1,"Cyclohexanamine, N-cyclohexyl-",369.25,le15,1
8804,FC(F)(F)c1ccc(Cl)nc1,2-chloro-5-(trifluoromethyl)pyridine,330.754,le15,1
8805,O=C(Cl)C(Cl)(Cl)Cl,"Acetyl chloride, trichloro-",304.15,le15,1
8806,ClCCC(Cl)(Cl)Cl,"Propane, 1,1,1,3-tetrachloro-",324.5499999999999,le15,1
8807,ClCC(Cl)(Cl)CCl,"Propane, 1,2,2,3-tetrachloro-",335.65,le15,1
8808,CC(Cl)(Cl)C(Cl)Cl,"1,1,2,2-tetrachloropropane",319.0499999999999,le15,1
8809,ClCC(Cl)C(Cl)Cl,"1,1,2,3-tetrachloropropane",336.75,le15,1
8810,N#Cc1ccc(Br)cc1,4-bromobenzonitrile,370.15,le15,1
8811,N#Cc1ccccc1Br,2-bromobenzonitrile,386.85,le15,1
8812,N#Cc1cccc(Br)c1,3-bromobenzonitrile,363.45,le15,1
8813,FC(F)(F)COCC(F)(F)F,"1,1,1-trifluoro-2-(2,2,2-trifluoroethoxy)ethane",274.85,le15,1
8814,OCC(F)(F)C(F)C(F)(F)F,"2,2,3,4,4,4-hexafluorobutan-1-ol",324.85,le15,1
8815,Oc1c(F)c(F)c(O)c(F)c1F,"2,3,5,6-Tetrafluorohydroquinone",351.25,le15,1
8816,Cc1c(F)c(F)c(F)c(F)c1F,"1,2,3,4,5-pentafluoro-6-methylbenzene",307.5499999999999,le15,1
8817,O=[N+]([O-])OCC(O)CO[N+](=O)[O-],"1,2,3-Propanetriol, 1,3-dinitrate (9CI)",329.95,le15,1
8818,N#CCCC[SiH2]C(Cl)Cl,"Butanenitrile, 4-(dichloromethylsilyl)-",365.15,le15,1
8819,Cc1cccc([N+](=O)[O-])c1[N+](=O)[O-],"Benzene, 1-methyl-2,3-dinitro-",443.35,le15,1
8820,Nc1cc([N+](=O)[O-])ccc1C(=O)O,"Benzoic acid, 2-amino-4-nitro-",487.85,le15,1
8821,CCOP(=O)(OCC)OCC,"Phosphoric acid, triethyl ester",388.75,le15,1
8822,O=c1c(=O)c2cccc3cccc1c32,"1,2-Acenaphthylenedione",423.35,le15,1
8823,COC1=C(OC)C(=O)C(C)=CC1=O,"2,5-Cyclohexadiene-1,4-dione, 2,3-dimethoxy-5-methyl-",421.75,le15,1
8824,COc1cccc(OC)c1C(=O)O,"Benzoic acid, 2,6-dimethoxy-",399.65,le15,1
8825,CCC(=O)c1c(O)cc(O)cc1O,"1-Propanone, 1-(2,4,6-trihydroxyphenyl)-",447.85,le15,1
8826,COc1cc(O)c(C=O)c(OC)c1,"4,6-Dimethoxysalicylaldehyde",411.15,le15,1
8827,COC(=O)c1ccc(O)c(OC)c1,methyl 4-hydroxy-3-methoxybenzoate,393.35,le15,1
8828,OC[C@H](O)[C@@H](O)[C@H](O)[C@H](O)CO,D-Glucitol,565.65,le15,1
8829,CC(OP(C)(=O)F)C(C)(C)C,"Phosphonofluoridic acid, methyl-, 1,2,2-trimethylpropyl ester",348.65,le15,1
8830,CCOc1ccc(N)c([N+](=O)[O-])c1,"Benzenamine, 4-ethoxy-2-nitro-",436.35,le15,1
8831,OC[C@@H](O)[C@@H](O)[C@H](O)[C@H](O)CO,D-Mannitol,565.6469999999998,le15,1
8832,CN(C)N=Nc1[nH]cnc1C(N)=O,"1H-Imidazole-4-carboxamide, 5-(3,3-dimethyl-1-triazenyl)-",502.85,le15,1
8833,O=C(c1ccccc1)c1ccccc1,"Methanone, diphenyl-",396.85,le15,1
8834,O=Cc1ccc(-c2ccccc2)cc1,"(1,1'-Biphenyl)-4-carboxaldehyde (9CI)",459.25,le15,1
8835,O=Cc1cccc(-c2ccccc2)c1,"3-Biphenylcarboxaldehyde (6CI,7CI,8CI)",465.15,le15,1
8836,Cc1ccccc1OCC(O)CO,"1,2-Propanediol, 3-(2-methylphenoxy)-",434.65,le15,1
8837,c1ccc(N=Nc2ccccc2)cc1,"Diazene, diphenyl-",396.05,le15,1
8838,OCCOCCOc1ccccc1,"Ethanol, 2-(2-phenoxyethoxy)-",414.05,le15,1
8839,CC12CCC(C(=O)OC1=O)C2(C)C,"5,8,8-trimethyl-3-oxabicyclo[3.2.1]octane-2,4-dione",394.25,le15,1
8840,C1CC2OC2C1OC1CCC2OC12,"6-Oxabicyclo(3.1.0)hexane, 2,2'-oxybis-",366.35,le15,1
8841,O=C(O)C(S)C(S)C(=O)O,"Butanedioic acid, 2,3-dimercapto-",388.772,le15,1
8842,Nc1ccc2c(c1)[nH]c1ccccc12,9H-Carbazol-2-amine (9CI),523.75,le15,1
8843,c1ccc(N=Nc2ccccc2)cc1,diphenyldiazene,396.05,le15,1
8844,CCCCC(=O)OCc1ccco1,furan-2-ylmethyl pentanoate,371.45,le15,1
8845,CCOP(=S)(CC)OCC,"Phosphonothioic acid, ethyl-, O,O-diethyl ester",345.35,le15,1
8846,CCOP(=O)(CC)SCC,"Phosphonothioic acid, ethyl-, O,S-diethyl ester",364.85,le15,1
8847,Cc1ccccc1-c1ccccc1C,1-methyl-2-(2-methylphenyl)benzene,380.05,le15,1
8848,CC(c1ccccc1)c1ccccc1,1-phenylethylbenzene,382.75,le15,1
8849,Cc1ccc(Cc2ccccc2)cc1,1-benzyl-4-methylbenzene,393.75,le15,1
8850,Cc1ccccc1Cc1ccccc1,1-benzyl-2-methylbenzene,395.45,le15,1
8851,CCc1ccccc1-c1ccccc1,1-ethyl-2-phenylbenzene,410.05,le15,1
8852,Cc1ccc(-c2ccccc2)cc1C,"1,2-dimethyl-4-phenylbenzene",402.05,le15,1
8853,CCc1cccc(-c2ccccc2)c1,1-ethyl-3-phenylbenzene,398.45,le15,1
8854,Cc1ccc(-c2cccc(C)c2)cc1,1-methyl-3-(4-methylphenyl)benzene,398.95,le15,1
8855,Cc1cc(C)cc(-c2ccccc2)c1,"1,3-dimethyl-5-phenylbenzene",394.75,le15,1
8856,c1ccc(CCc2ccccc2)cc1,Bibenzyl,402.0,le15,1
8857,CC(C)=CCC/C(C)=C/COC=O,"2,6-Octadien-1-ol, 3,7-dimethyl-, formate, (2E)-",382.25,le15,1
8858,C=CC(C)(CCC=C(C)C)OC=O,"1,6-Octadien-3-ol, 3,7-dimethyl-, formate",358.75,le15,1
8859,C=CCOC(=O)CC1CCCCC1,"Cyclohexaneacetic acid, 2-propenyl ester",371.95,le15,1
8860,COC(OC)[SiH2]c1ccccc1,"Silane, dimethoxymethylphenyl-",353.15,le15,1
8861,C1CCCCCC2OC2CCCC1,13-Oxabicyclo(10.1.0)tridecane,386.15,le15,1
8862,C1CCC(OC2CCCCC2)CC1,cyclohexyloxycyclohexane,367.05,le15,1
8863,CCCCCCCCCC=CC=O,Dodec-2-en-1-al,394.15,le15,1
8864,CCCCCCCC1CCCC1=O,"Cyclopentanone, 2-heptyl-",371.75,le15,1
8865,C[C@H]1CCC[C@@]2(C)CCCC[C@]12O,"(4S,4aS,8aR)-4,8a-dimethyl-1,2,3,4,5,6,7,8-octahydronaphthalen-4a-ol",377.35,le15,1
8866,CO[Si](CCS)(OC)OC,"Ethanethiol, 2-(trimethoxysilyl)-",344.95,le15,1
8867,CCCC=C(CCCC)CCCC,"4-Nonene, 5-butyl-",339.25,le15,1
8868,CCCCCCCC1CCCCC1,heptylcyclohexane,366.35,le15,1
8869,C=CCCCCCCCCCCC,1tridecene,353.0,le15,1
8870,N#Cc1ccc(Cl)c([N+](=O)[O-])c1,"Benzonitrile, 4-chloro-3-nitro-",399.167,le15,1
8871,O=C(O)C=Cc1ccc(Cl)cc1,"2-Propenoic acid, 3-(4-chlorophenyl)- (9CI)",423.65,le15,1
8872,C=Cc1ccccc1Br,1-bromo-2-ethenylbenzene,357.082,le15,1
8873,BrC=Cc1ccccc1,"Benzene, (2-bromoethenyl)-",374.85,le15,1
8874,C=Cc1ccc(Br)cc1,1-bromo-4-ethenylbenzene,359.85,le15,1
8875,Nc1c(F)c(F)c(F)c(F)c1F,"Benzenamine, 2,3,4,5,6-pentafluoro-",346.15,le15,1
8876,Nc1c([N+](=O)[O-])cccc1[N+](=O)[O-],"Benzenamine, 2,6-dinitro- (9CI)",441.35,le15,1
8877,ClCCCCCCCCCl,"1,8-dichlorooctane",391.15,le15,1
8878,Nc1ccc([N+](=O)[O-])cc1[N+](=O)[O-],"Benzenamine, 2,4-dinitro-",497.15,le15,1
8879,Nc1cc([N+](=O)[O-])cc([N+](=O)[O-])c1,"Benzenamine, 3,5-dinitro- (9CI)",467.55,le15,1
8880,O=C(c1ccccc1)c1ccccn1,phenyl(pyridin-2-yl)methanone,427.05,le15,1
8881,Nc1ccc2c(c1)oc1ccccc12,3-Aminodibenzofuran,450.15,le15,1
8882,O=C(c1ccccc1)c1cccnc1,phenyl(pyridin-3-yl)methanone,423.15,le15,1
8883,Nc1ccc2oc3ccccc3c2c1,2-Dibenzofuranamine,450.15,le15,1
8884,O=C(c1ccccc1)c1ccncc1,"Methanone, phenyl-4-pyridinyl-",423.15,le15,1
8885,CNCC(O)c1ccc(O)c(O)c1,"Benzyl alcohol, 3,4-dihydroxy-alpha-((methylamino)methyl)-, (-)-",481.05,le15,1
8886,c1ccc(CNc2ccccc2)cc1,N-benzylaniline,425.15,le15,1
8887,CN(c1ccccc1)c1ccccc1,N-methyl-N-phenylaniline,389.75,le15,1
8888,Cc1ccccc1-c1ccc(N)cc1,"4-Biphenylamine, 2'-methyl-",418.85,le15,1
8889,Cc1cccc(Nc2ccccc2)c1,"Benzenamine, 3-methyl-N-phenyl-",420.55,le15,1
8890,c1ccc(CCc2ccccn2)cc1,2-phenethylpyridine,379.25,le15,1
8891,CCC1(CC)C(=O)NCC(C)C1=O,"2,4-Piperidinedione, 3,3-diethyl-5-methyl-",416.25,le15,1
8892,Clc1cc(Cl)nc(Cl)n1,"Pyrimidine, 2,4,6-trichloro-",375.65,le15,1
8893,Cn1c(=O)oc2ccc(Cl)cc21,"2-Benzoxazolinone, 5-chloro-3-methyl-",404.75,le15,1
8894,CC(C)(N)Cc1ccc(Cl)cc1,"Benzeneethanamine, 4-chloro-alpha,alpha-dimethyl-",400.15,le15,1
8895,ClC[Si](Cl)(Cl)Cl,trichloro(chloromethyl)silane,342.5499999999999,le15,1
8896,CC(C)CI,"Propane, 1-iodo-2-methyl-",285.15,le15,1
8897,CC(C)(C)I,2-iodo-2-methylpropane,280.95,le15,1
8898,Oc1c(F)c(F)c(F)c(F)c1F,"Phenol, pentafluoro-",345.15,le15,1
8899,O=[N+]([O-])c1ccc(O)c([N+](=O)[O-])c1,"Phenol, 2,4-dinitro-",415.95,le15,1
8900,O=[N+]([O-])c1cccc(O)c1[N+](=O)[O-],"Phenol, 2,3-dinitro-",424.35,le15,1
8901,O=[N+]([O-])c1ccc([N+](=O)[O-])c(O)c1,"Phenol, 2,5-dinitro-",414.65,le15,1
8902,O=[N+]([O-])c1cccc([N+](=O)[O-])c1O,"Phenol, 2,6-dinitro-",377.95,le15,1
8903,O=[N+]([O-])C=Cc1ccc([N+](=O)[O-])o1,"Furan, 2-nitro-5-(2-nitroethenyl)-",420.45,le15,1
8904,O=[N+]([O-])c1ccc(O)cc1[N+](=O)[O-],"Phenol, 3,4-dinitro-",467.25,le15,1
8905,CCOC(=O)CC(=O)C(F)(F)F,"ethyl 4,4,4-trifluoro-3-oxobutanoate",302.0499999999999,le15,1
8906,CC(C)OP(=O)(F)OC(C)C,"Phosphorofluoridic acid, bis(1-methylethyl) ester",337.65,le15,1
8907,c1ccc2c(c1)Oc1ccccc1O2,"Dibenzo(b,e)(1,4)dioxin",388.85,le15,1
8908,O=C1C=CC(=O)C(c2ccccc2)=C1,"p-Benzoquinone, 2-phenyl- (8CI)",398.35,le15,1
8909,OC(c1ccccc1)c1ccccc1,"Benzenemethanol, alpha-phenyl-",413.95,le15,1
8910,Oc1ccc(Cc2ccccc2)cc1,"p-Cresol, alpha-phenyl- (8CI)",427.35,le15,1
8911,c1ccc(COc2ccccc2)cc1,phenoxymethylbenzene,383.95,le15,1
8912,OCc1ccc(-c2ccccc2)cc1,p-Phenylbenzyl alcohol,428.05,le15,1
8913,Oc1ccccc1Cc1ccccc1,2-benzylphenol,420.45,le15,1
8914,Cc1cccc(Oc2ccccc2)c1,1-methyl-3-phenoxybenzene,383.95,le15,1
8915,Cc1ccccc1Oc1ccccc1,1-methyl-2-phenoxybenzene,380.05,le15,1