,smiles,compound,flashpoint,source,pure substance
7248,c1ccc(CCC2CO2)cc1,"Benzene, (3,4-epoxybutyl)-",358.65,le15,1
7249,CC(=Cc1ccccc1)CO,"2-Propen-1-ol, 2-methyl-3-phenyl-",395.65,le15,1
7250,CC(=O)CCc1ccccc1,"2-Butanone, 4-phenyl-",371.15,le15,1
7251,Cc1ccc(CCC=O)cc1,3-(4-methylphenyl)propanal,372.55,le15,1
7252,CCC(=O)c1cccc(C)c1,1-(3-methylphenyl)propan-1-one,371.25,le15,1
7253,CC=Cc1ccc(OC)cc1,"Benzene, 1-methoxy-4-(1-propenyl)-",361.55,le15,1
7254,CC(C)c1ccc(C=O)cc1,"Benzaldehyde, 4-(1-methylethyl)-",366.45,le15,1
7255,Oc1cccc2c1CCCC2,"5,6,7,8-tetrahydronaphthalen-1-ol",395.75,le15,1
7256,CC(=O)c1cc(C)ccc1C,"1-(2,5-dimethylphenyl)ethanone",361.95,le15,1
7257,C/C=C/c1ccc(OC)cc1,"Benzene, 1-methoxy-4-(1-propenyl)-, (E)-",361.55,le15,1
7258,C=CCc1cc(C)ccc1O,4-methyl-2-prop-2-enylphenol,374.85,le15,1
7259,CCCC(=O)c1ccccc1,1phenyl1butanone,361.0,le15,1
7260,CC=Cc1ccc(OC)cc1,Anethole,363.0,le15,1
7261,CCOC(OCC)OCC,"Ethane, 1,1',1''-(methylidynetris(oxy))tris-",303.15,le15,1
7262,CCOCCOCCOC,"Ether, 2-ethoxyethyl 2-methoxyethyl",326.95,le15,1
7263,NN1C(=O)CSC1=S,"4-Thiazolidinone, 3-amino-2-thioxo-",389.15,le15,1
7264,CN(C)C=Nc1ccccc1,"N,N-dimethyl-N'-phenylmethanimidamide",359.85,le15,1
7265,CC(C)OCCOCCO,"Ethanol, 2-(2-(1-methylethoxy)ethoxyl)-",354.04999999999984,le15,1
7266,CCOC(OCC)OCC,Triethoxymethane,303.0,le15,1
7267,Cc1cc2ccccc2s1,2-methyl-1-benzothiophene,345.54999999999984,le15,1
7268,C#CCSc1ccccc1,"Sulfide, phenyl 2-propynyl (6CI,7CI,8CI)",349.85,le15,1
7269,OCCCCCCCCF,"1-Octanol, 8-fluoro-",378.95,le15,1
7270,CC1CC(C)S(=O)(=O)C1,"Thiophene, tetrahydro-2,4-dimethyl-, 1,1-dioxide",418.75,le15,1
7271,Cc1cc(C)c(C)c(C)c1C,"1,2,3,4,5-pentamethylbenzene",364.25,le15,1
7272,Cc1cccc(C(C)(C)C)c1,1-tert-butyl-3-methylbenzene,333.65,le15,1
7273,CC(C)CCc1ccccc1,3-methylbutylbenzene,338.15,le15,1
7274,CCC(C)(C)c1ccccc1,2-methylbutan-2-ylbenzene,332.45,le15,1
7275,CCc1cc(C)cc(CC)c1,"1,3-diethyl-5-methylbenzene",342.95,le15,1
7276,CCCC(C)c1ccccc1,pentan-2-ylbenzene,333.75,le15,1
7277,CCC(C)Cc1ccccc1,2-methylbutylbenzene,337.15,le15,1
7278,CCc1ccc(C(C)C)cc1,1-ethyl-4-propan-2-ylbenzene,338.85,le15,1
7279,Cc1ccc(C(C)C)c(C)c1,"2,4-dimethyl-1-propan-2-ylbenzene",340.25,le15,1
7280,CCc1cccc(C(C)C)c1,1-ethyl-3-propan-2-ylbenzene,335.95,le15,1
7281,Cc1ccc(CC(C)C)cc1,1-methyl-4-(2-methylpropyl)benzene,340.45,le15,1
7282,CCc1cc(C)c(C)cc1C,"1-ethyl-2,4,5-trimethylbenzene",348.75,le15,1
7283,CCCC(C)c1ccccc1,pentan-2-ylbenzene,333.75,le15,1
7284,Cc1ccccc1CC(C)C,1-methyl-2-(2-methylpropyl)benzene,341.75,le15,1
7285,Cc1ccc(C(C)(C)C)cc1,"Benzene, 1-methyl-4-(1,1-dimethylethyl)- (9CI)",327.5499999999999,le15,1
7286,CC(C)C(C)c1ccccc1,3-methylbutan-2-ylbenzene,330.0499999999999,le15,1
7287,C=CCSSCCC,"Disulfide, 2-propenyl propyl",327.5499999999999,le15,1
7288,C=C(C)C(=O)OCCCl,"2-Propenoic acid, 2-methyl-, 2-chloroethyl ester",348.45,le15,1
7289,CCCCCCC(=O)Cl,Heptanoyl chloride,330.15,le15,1
7290,CCC(C)CCCCCl,"Heptane, 1-chloro-5-methyl-",325.65,le15,1
7291,CCCCC(CC)CCl,"Heptane, 3-(chloromethyl)-",333.15,le15,1
7292,Clc1ccc(Cl)nn1,"Pyridazine, 3,6-dichloro-",421.05,le15,1
7293,O=S(=O)(Cl)CCl,"Methanesulfonyl chloride, chloro-",346.54999999999984,le15,1
7294,BrC1CCCC1,bromocyclopentane,308.15,le15,1
7295,C=CCCCBr,5-bromopent-1-ene,304.15,le15,1
7296,NCC(F)(F)C(F)(F)F,"2,2,3,3,3-pentafluoropropan-1-amine",322.65,le15,1
7297,C=Cc1ccc([N+](=O)[O-])cc1,"Benzene, 1-ethenyl-4-nitro- (9CI)",358.45,le15,1
7298,O=[N+]([O-])C=Cc1ccccc1,"Benzene, (2-nitroethenyl)-",390.65,le15,1
7299,COc1cc(C#N)ccc1O,4-Hydroxy-3-methoxybenzonitrile,403.25,le15,1
7300,CNc1ncnc2nc[nH]c12,"Adenine, N-methyl- (8CI)",525.05,le15,1
7301,Cn1cnc2c(N)ncnc21,"Adenine, 9-methyl- (8CI)",460.35699999999997,le15,1
7302,CC(=O)N(C)c1ccccc1,"Acetamide, N-methyl-N-phenyl-",366.35,le15,1
7303,CN(C)C(=O)c1ccccc1,"N,N-dimethylbenzamide",385.05,le15,1
7304,CN(C)c1ccc(C=O)cc1,"Benzaldehyde, 4-(dimethylamino)-",376.45,le15,1
7305,CCOC=Nc1ccccc1,ethyl N-phenylmethanimidate,344.15,le15,1
7306,OCCN(CCO)CCO,"Ethanol, 2,2',2''-nitrilotris-",458.15,le15,1
7307,Cc1ccc(N=C=S)cc1,1-isothiocyanato-4-methylbenzene,373.65,le15,1
7308,S=C=NCc1ccccc1,"Benzene, (isothiocyanatomethyl)-",373.55,le15,1
7309,Cc1nc2ccccc2s1,"Benzothiazole, 2-methyl-",375.15,le15,1
7310,CSCC[C@H](N)C(=O)O,Methionine,412.55,le15,1
7311,CSCC[C@H](N)C(=O)O,"Methionine, L-",412.55,le15,1
7312,CCSC[C@H](N)C(=O)O,"L-Cysteine, S-ethyl- (9CI)",401.85,le15,1
7313,CCN(CC)c1ccccc1,"Benzenamine, N,N-diethyl-",370.95,le15,1
7314,CC(C)NCc1ccccc1,N-benzylpropan-2-amine,360.15,le15,1
7315,CCCCc1ccc(N)cc1,"Benzenamine, 4-butyl-",374.85,le15,1
7316,CC(C)(N)Cc1ccccc1,2-methyl-1-phenylpropan-2-amine,366.25,le15,1
7317,CCc1cccc(CC)c1N,"Benzenamine, 2,6-diethyl-",396.45,le15,1
7318,CC(C)(C)c1ccc(N)cc1,"Benzenamine, 4-(1,1-dimethylethyl)-",374.15,le15,1
7319,CCCCNc1ccccc1,"Benzenamine, N-butyl-",380.15,le15,1
7320,CC(c1ccccc1)N(C)C,"Benzenemethanamine, N,N,alpha-trimethyl- (9CI)",337.5499999999999,le15,1
7321,CC(C)=CCC/C(C)=C/C#N,"2,6-Octadienenitrile, 3,7-dimethyl-, (2E)-",376.85,le15,1
7322,CC(C)(C)c1ccccc1N,2-tert-butylaniline,372.85,le15,1
7323,CC(N)CCc1ccccc1,4-phenylbutan-2-amine,370.95,le15,1
7324,CC(C)Cc1ccc(N)cc1,4-(2-methylpropyl)aniline,375.85,le15,1
7325,CCC(C)c1ccc(N)cc1,"Benzenamine, 4-(1-methylpropyl)-",380.95,le15,1
7326,CCC(CC)c1ccccn1,2-pentan-3-ylpyridine,324.45,le15,1
7327,CN(C)C1CSSC1,"1,2-Dithiolan-4-amine, N,N-dimethyl-",353.54999999999984,le15,1
7328,OCC(Cl)(Cl)Cl,"Ethanol, 2,2,2-trichloro-",361.15,le15,1
7329,CNC(=O)C(Cl)C(C)=O,"Butanamide, 2-chloro-N-methyl-3-oxo-",398.75,le15,1
7330,CCN(CC)C(=O)CCl,"Acetamide, 2-chloro-N,N-diethyl-",350.15,le15,1
7331,OCC(F)(F)C(F)(F)F,"2,2,3,3,3-pentafluoropropan-1-ol",284.75,le15,1
7332,Fc1cc(F)c(F)cc1F,"1,2,4,5-tetrafluorobenzene",289.15,le15,1
7333,Fc1ccc(F)c(F)c1F,"1,2,3,4-tetrafluorobenzene",293.75,le15,1
7334,Fc1cc(F)c(F)c(F)c1,"1,2,3,5-tetrafluorobenzene",277.54999999999995,le15,1
7335,O=C(O)[C@H](O)[C@@H](O)C(=O)O,"(2R,3R)-2,3-dihydroxybutanedioic acid",482.55,le15,1
7336,O=Cc1ccccc1C(=O)O,"Benzoic acid, 2-formyl-",435.75,le15,1
7337,O=Cc1ccc2c(c1)OCO2,"1,3-Benzodioxole-5-carboxaldehyde",376.75,le15,1
7338,O=Cc1ccc(C(=O)O)cc1,4-formylbenzoic acid,442.35,le15,1
7339,OC1OC[C@H](O)[C@H](O)[C@H]1O,L-Arabinopyranose,428.45,le15,1
7340,Nc1nc(N)c2[nH]cnc2n1,"Purine-2,6-diyldiamine",720.9649999999997,le15,1
7341,COC(=O)c1ccccc1C,methyl 2-methylbenzoate,355.35,le15,1
7342,COC(=O)c1cccc(C)c1,methyl 3-methylbenzoate,368.75,le15,1
7343,COC(=O)c1ccc(C)cc1,"Benzoic acid, 4-methyl-, methyl ester",363.15,le15,1
7344,COC(=O)Cc1ccccc1,"Acetic acid, phenyl-, methyl ester",367.05,le15,1
7345,O=COCCc1ccccc1,"Formic acid, 2-phenylethyl ester",392.25,le15,1
7346,CC(=O)Oc1cccc(C)c1,(3-methylphenyl) acetate,358.35,le15,1
7347,CC(=O)OCc1ccccc1,"Acetic acid, phenylmethyl ester",375.35,le15,1
7348,CC(=O)Oc1ccc(C)cc1,"Acetic acid, 4-methylphenyl ester",363.15,le15,1
7349,O=C(O)CCc1ccccc1,Hydrocinnamic acid (8CI),443.195,le15,1
7350,COc1cccc(C(C)=O)c1,1-(3-methoxyphenyl)ethanone,364.35,le15,1
7351,Cc1ccc(C(=O)O)c(C)c1,"2,4-dimethylbenzoic acid",404.45,le15,1
7352,CCOc1ccccc1C=O,2-ethoxybenzaldehyde,380.15,le15,1
7353,CC(=O)COc1ccccc1,1-phenoxypropan-2-one,358.15,le15,1
7354,CC(=O)Oc1ccc(C)cc1,(4-methylphenyl) acetate,446.65,le15,1
7355,Cc1cccc(C)c1C(=O)O,"2,6-dimethylbenzoic acid",399.25,le15,1
7356,CC1=CC(=O)C(C)=C(C)C1=O,"2,5-Cyclohexadiene-1,4-dione, 2,3,5-trimethyl-",350.45,le15,1
7357,C=CCc1ccc(O)c(O)c1,"1,2-Benzenediol, 4-(2-propenyl)-",414.85,le15,1
7358,CC(=O)c1cc(C)ccc1O,1-(2-hydroxy-5-methylphenyl)ethanone,372.95,le15,1
7359,COCC(=O)c1ccccc1,2-methoxy-1-phenylethanone,368.05,le15,1
7360,COc1ccc(CC=O)cc1,2-(4-methoxyphenyl)acetaldehyde,381.65,le15,1
7361,CCOc1ccc(C=O)cc1,"Benzaldehyde, 4-ethoxy-",348.15,le15,1
7362,CCOc1cccc(C=O)c1,3-ethoxybenzaldehyde,379.75,le15,1
7363,c1ccc(OCC2CO2)cc1,"Propane, 1,2-epoxy-3-phenoxy-",367.907,le15,1
7364,CC(C(=O)O)c1ccccc1,2-phenylpropanoic acid,421.15,le15,1
7365,CC(=O)Oc1ccccc1C,(2-methylphenyl) acetate,357.15,le15,1
7366,CC(=O)NNc1ccccc1,"Acetic acid, 2-phenylhydrazide",360.95,le15,1
7367,CN(C)c1ccc(N=O)cc1,"Benzenamine, N,N-dimethyl-4-nitroso-",383.45,le15,1
7368,NC(=O)NCc1ccccc1,"Urea, (phenylmethyl)- (9CI)",398.05,le15,1
7369,NNC(=O)Cc1ccccc1,"Acetic acid, phenyl-, hydrazide (8CI)",447.65,le15,1
7370,CN(Cc1ccccc1)N=O,N-Methyl-N-nitroso-benzenemethanamine,407.25,le15,1
7371,CNC(=O)Nc1ccccc1,"Urea, N-methyl-N'-phenyl- (9CI)",372.05,le15,1
7372,OCCOCCOCCO,"Ethanol, 2,2'-(1,2-ethanediylbis(oxy))bis-",438.75,le15,1
7373,Nc1nc2ccccc2s1,"Benzothiazole, 2-amino-",412.95,le15,1
7374,Nc1ccc2ncsc2c1,"Benzothiazole, 6-amino-",422.35,le15,1
7375,S=c1[nH]c2ccccc2[nH]1,"2H-Benzimidazole-2-thione, 1,3-dihydro-",390.65,le15,1
7376,CSCCC(O)C(=O)O,"Butanoic acid, 2-hydroxy-4-(methylthio)-",418.35,le15,1
7377,CS(=O)C(C)(C)C(=O)O,"Propionic acid, 2-methyl-2-(methylsulfinyl)-",441.35,le15,1
7378,CC(C)(C)c1ccccc1O,"Phenol, 2-(1,1-dimethylethyl)-",383.15,le15,1
7379,CCC(C)c1ccccc1O,"Phenol, 2-(1-methylpropyl)-",385.15,le15,1
7380,Cc1ccc(C(C)C)c(O)c1,"Phenol, 5-methyl-2-(1-methylethyl)-",374.15,le15,1
7381,CC(C)(C)c1ccc(O)cc1,"Phenol, 4-(1,1-dimethylethyl)-",384.05,le15,1
7382,C=C(C)C1CC=C(C)C(=O)C1,"2-Cyclohexen-1-one, 2-methyl-5-(1-methylethenyl)-",362.05,le15,1
7383,CCC(C)c1ccc(O)cc1,"Phenol, 4-(1-methylpropyl)-",388.75,le15,1
7384,CC(C)(O)Cc1ccccc1,"Phenethyl alcohol, alpha,alpha-dimethyl-",354.25,le15,1
7385,CCCc1ccc(OC)cc1,"Benzene, 1-methoxy-4-propyl-",363.15,le15,1
7386,Cc1cc(O)c(C)c(C)c1C,"2,3,4,5-tetramethylphenol",389.75,le15,1
7387,Cc1coc2c1CCC(C)C2,"p-Mentha-3,8-diene, 3,9-epoxy- (8CI)",348.65,le15,1
7388,Cc1ccc(C(C)C)cc1O,"Phenol, 2-methyl-5-(1-methylethyl)-",379.85,le15,1
7389,Cc1cc(C)c(C)c(O)c1C,"2,3,5,6-tetramethylphenol",384.75,le15,1
7390,CC(C)c1ccc(CO)cc1,"Benzenemethanol, 4-(1-methylethyl)-",379.15,le15,1
7391,CC(C)=CCCc1ccoc1,3-(4-methylpent-3-enyl)furan,329.0499999999999,le15,1
7392,CC1(C)C2CC=C(C=O)C1C2,"Bicyclo(3.1.1)hept-2-ene-2-carboxaldehyde, 6,6-dimethyl-",352.04999999999984,le15,1
7393,CC(C)(C)c1cccc(O)c1,"Phenol, 3-(1,1-dimethylethyl)-",382.65,le15,1
7394,O=C1C2CC3CC(C2)CC1C3,"Tricyclo(3.3.1.13,7)decanone (9CI)",368.85,le15,1
7395,CCCCOc1ccccc1,n-Butyl phenyl ether,355.15,le15,1
7396,CC1=CC(=O)[C@H]2C[C@@H]1C2(C)C,"(1S,5S)-2,6,6-trimethylbicyclo[3.1.1]hept-2-en-4-one",358.15,le15,1
7397,CCC(C)(O)c1ccccc1,"Benzenemethanol, alpha-ethyl-alpha-methyl-",363.75,le15,1
7398,CCOc1ccc(CC)cc1,1-ethoxy-4-ethylbenzene,355.45,le15,1
7399,Cc1cc(C(C)C)ccc1O,2-methyl-4-propan-2-ylphenol,377.25,le15,1
7400,C=C(C)C1CC=C(C=O)CC1,4-prop-1-en-2-ylcyclohexene-1-carbaldehyde,368.75,le15,1
7401,C=C(C)[C@H]1CC=C(C)C(=O)C1,"2-Cyclohexen-1-one, 2-methyl-5-(1-methylethenyl)-, (5S)-",370.15,le15,1
7402,CC(CCO)c1ccccc1,"Benzenepropanol, gamma-methyl-",375.25,le15,1
7403,Cc1cc(O)ccc1C(C)C,3-methyl-4-propan-2-ylphenol,377.25,le15,1
7404,Cc1cccc(C(C)C)c1O,2-methyl-6-propan-2-ylphenol,368.75,le15,1
7405,Cc1cc(C)c(O)c(C)c1C,"2,3,4,6-tetramethylphenol",383.95,le15,1
7406,OC1CC2CC1C1CC=CC21,"4,7-Methano-1H-inden-6-ol, 3a,4,5,6,7,7a-hexahydro-",363.35,le15,1
7407,Cc1ccc(O)c(C(C)C)c1,4-methyl-2-propan-2-ylphenol,371.25,le15,1
7408,C=C(C)[C@@H]1CC=C(C)C(=O)C1,"2-Cyclohexen-1-one, 2-methyl-5-(1-methylethenyl)-, (R)- (9CI)",361.15,le15,1
7409,CCC(C)Oc1ccccc1,butan-2-yloxybenzene,344.75,le15,1
7410,Cc1ccc(C(C)(C)O)cc1,"Benzenemethanol, alpha,alpha,4-trimethyl-",375.85,le15,1
7411,CCCCc1ccc(O)cc1,4-butylphenol,394.65,le15,1
7412,CC(O)CCc1ccccc1,4-phenylbutan-2-ol,383.15,le15,1
7413,Cc1cc(O)cc(C(C)C)c1,3-methyl-5-propan-2-ylphenol,381.45,le15,1
7414,OCCCCc1ccccc1,"1-Butanol, 4-phenyl- (8CI)",387.45,le15,1
7415,CCCCc1cccc(O)c1,3-butylphenol,395.85,le15,1
7416,CC1=CC(=O)C2CC1C2(C)C,"2,6,6-trimethylbicyclo[3.1.1]hept-2-en-4-one",358.15,le15,1
7417,CC1=CC(=O)C2(C(C)C)CC12,2-methyl-5-propan-2-ylbicyclo[3.1.0]hex-2-en-4-one,358.35,le15,1
7418,Cc1ccc(C(C)C)cc1O,Carvacrol,379.0,le15,1
7419,CC(Cc1ccccc1)NN,"Hydrazine, (1-methyl-2-phenylethyl)- (9CI)",421.15,le15,1
7420,Cc1cc(C)c(N)c(C)c1N,"2,4-Mesitylenediamine (7CI,8CI)",431.55,le15,1
7421,C=CCSc1ccccc1,(Allylthio)benzene,351.968,le15,1
7422,CCCS(=O)(=O)CCC,Propyl sulfone (8CI),398.95,le15,1
7423,Nc1nc(=S)ss1,"3H-1,2,4-Dithiazole-3-thione, 5-amino- (8CI)(9CI)",397.15,le15,1
7424,CC[Si](OC)(OC)OC,ethyl(trimethoxy)silane,297.35,le15,1
7425,C[Si](C)(C)c1ccccc1,trimethyl(phenyl)silane,317.15,le15,1
7426,CCCSSCCC,Propyl disulfide (8CI),339.25,le15,1
7427,SCCCCCCS,"Hexane-1,6-dithiol",363.75,le15,1
7428,CCSCCSCC,"1,2-Bis(ethylthio)ethane",354.35,le15,1
7429,CC(C)SSC(C)C,Isopropyl disulfide (8CI),291.45,le15,1
7430,CC(C)(C)OC(=O)CCl,"Acetic acid, chloro-, 1,1-dimethylethyl ester",314.5499999999999,le15,1
7431,CCCCOC(=O)CCl,butyl 2-chloroacetate,353.04999999999984,le15,1
7432,CCOC(=O)CCCCl,"Butyric acid, 4-chloro-, ethyl ester (8CI)",324.85,le15,1
7433,O=C(O)CCCCCCl,"Hexanoic acid, 6-chloro-",380.75,le15,1
7434,CC1(C)OCC(CCl)O1,"1,3-Dioxolane, 4-(chloromethyl)-2,2-dimethyl-",327.65,le15,1
7435,CC(C)OC(=O)C(C)Cl,propan-2-yl 2-chloropropanoate,317.85,le15,1
7436,CCCC[Si](C)(C)Cl,butyl-chloro-dimethylsilane,303.25,le15,1
7437,C[Si](C)(C)CCCCl,3-chloropropyl(trimethyl)silane,303.65,le15,1
7438,CCCC(C)Br,2-bromopentane,293.75,le15,1
7439,CC[C@H](C)CBr,(2S)-1-bromo-2-methylbutane,295.35,le15,1
7440,CCC(Br)CC,3-bromopentane,304.45,le15,1
7441,CC(C)CCBr,1-bromo-3-methylbutane,305.35,le15,1
7442,CC(C)(C)CBr,"Propane, 1-bromo-2,2-dimethyl-",279.85,le15,1
7443,Fc1cc(F)c(F)nc1F,"2,3,5,6-tetrafluoropyridine",303.75,le15,1
7444,O=Cc1cccc([N+](=O)[O-])c1,"Benzaldehyde, 3-nitro-",401.75,le15,1
7445,O=Cc1ccc([N+](=O)[O-])cc1,"Benzaldehyde, 4-nitro-",428.35,le15,1
7446,O=Cc1ccccc1[N+](=O)[O-],"Benzaldehyde, 2-nitro-",417.15,le15,1
7447,O=[N+]([O-])C(CO)(CO)CO,"1,3-Propanediol, 2-(hydroxymethyl)-2-nitro-",482.45,le15,1
7448,Cc1cccc(C)c1[N+](=O)[O-],"Benzene, 1,3-dimethyl-2-nitro-",360.95,le15,1
7449,Cc1cccc([N+](=O)[O-])c1C,"Benzene, 1,2-dimethyl-3-nitro-",380.95,le15,1
7450,Cc1ccc(C)c([N+](=O)[O-])c1,"Benzene, 1,4-dimethyl-2-nitro-",373.15,le15,1
7451,Cc1ccc([N+](=O)[O-])c(C)c1,"m-Xylene, 4-nitro- (8CI)",394.15,le15,1
7452,Cc1ccc([N+](=O)[O-])cc1C,"o-Xylene, 4-nitro- (8CI)",394.65,le15,1
7453,CCc1ccc([N+](=O)[O-])cc1,"Benzene, 1-ethyl-4-nitro-",380.85,le15,1
7454,CC(=O)Nc1ccc(O)cc1,"Acetamide, N-(4-hydroxyphenyl)-",461.55,le15,1
7455,CC(=O)Nc1cccc(O)c1,"Acetamide, N-(3-hydroxyphenyl)-",458.35,le15,1
7456,NC(=O)COc1ccccc1,"Acetamide, 2-phenoxy-",474.05,le15,1
7457,Nc1ccc(CC(=O)O)cc1,"Acetic acid, (p-aminophenyl)-",435.05,le15,1
7458,CCOC(=O)c1ccncc1,ethyl pyridine-4-carboxylate,362.15,le15,1
7459,CC(=O)N(O)c1ccccc1,"Acetamide, N-hydroxy-N-phenyl-",389.95,le15,1
7460,COc1ccccc1C(N)=O,"Benzamide, 2-methoxy- (9CI)",428.85,le15,1
7461,Cc1ccc(C(=O)O)c(N)c1,3-Amino-p-toluic acid,446.45,le15,1
7462,CCOC(=O)c1ccccn1,ethyl pyridine-2-carboxylate,380.35,le15,1
7463,COc1ccc(C(N)=O)cc1,4-methoxybenzamide,434.65,le15,1
7464,O=[N+]([O-])CCc1ccccc1,2-nitroethylbenzene,391.95,le15,1
7465,Cc1cc(C)cc([N+](=O)[O-])c1,"m-Xylene, 5-nitro- (8CI)",384.55,le15,1
7466,COC(=O)c1ccccc1N,"Benzoic acid, 2-amino-, methyl ester",386.05,le15,1
7467,CCOC(=O)c1cccnc1,ethyl pyridine-3-carboxylate,366.15,le15,1
7468,CCOc1ccc(N=O)cc1,"Benzene, 1-ethoxy-4-nitroso-",388.25,le15,1
7469,O=c1[nH]sc2ccccc12,"1,2-Benzisothiazol-3(2H)-one",350.65,le15,1
7470,O=c1[nH]c2ccccc2s1,"3H-1,3-benzothiazol-2-one",444.65,le15,1
7471,CN(CCO)c1ccccc1,"Ethanol, 2-(methylphenylamino)-",399.85,le15,1
7472,CCNc1cc(O)ccc1C,"Phenol, 3-(ethylamino)-4-methyl-",412.85,le15,1
7473,COc1ccccc1N(C)C,"2-methoxy-N,N-dimethylaniline",332.35,le15,1
7474,CCc1ccc(CCO)nc1,"Pyridine, 5-ethyl-2-hydroxyethyl-",383.85,le15,1
7475,NC12CC3CC(CC(C3)C1)C2,"Tricyclo(3.3.1.1(sup 3,7))decan-1-amine",369.15,le15,1
7476,FCC(Cl)(Cl)Cl,"1,1,1-trichloro-2-fluoroethane",279.35,le15,1
7477,FC(Cl)C(Cl)Cl,"1,1,2-trichloro-2-fluoroethane",283.35,le15,1
7478,N#CCc1ccc(Cl)cc1,"Acetonitrile, (p-chlorophenyl)-",406.15,le15,1
7479,N#Cc1ccccc1CCl,2-(chloromethyl)benzonitrile,379.35,le15,1
7480,N#Cc1ccc(CCl)cc1,4-(Chloromethyl)benzonitrile,393.35,le15,1
7481,N#CCc1ccccc1Cl,2-(2-chlorophenyl)acetonitrile,380.85,le15,1
7482,Cc1cccc(Cl)c1C#N,"Benzonitrile, 2-chloro-6-methyl-",383.25,le15,1
7483,CC(Br)C(N)=O,"Propanamide, 2-bromo- (9CI)",377.15,le15,1
7484,Nc1nc(=O)c2[nH]nnc2[nH]1,"7H-1,2,3-Triazolo(4,5-d)pyrimidin-7-one, 5-amino-1,4-dihydro- (9CI)",402.25,le15,1
7485,Nc1nc2cc(F)ccc2o1,"Benzoxazole, 2-amino-5-fluoro-",398.05,le15,1
7486,CCOP(C)(=O)OCC,1-[ethoxy(methyl)phosphoryl]oxyethane,348.75,le15,1
7487,CCOP(=O)(CC)OC,"Phosphonic acid, ethyl-, ethyl methyl ester",353.15,le15,1
7488,Cc1cccc(C(=O)O)c1O,"Benzoic acid, 2-hydroxy-3-methyl-",418.55,le15,1
7489,COc1ccc(C(=O)O)cc1,4-methoxybenzoic acid,388.61,le15,1
7490,COC(=O)c1ccccc1O,"Benzoic acid, 2-hydroxy-, methyl ester",359.95,le15,1
7491,COc1cc(C=O)ccc1O,"Benzaldehyde, 4-hydroxy-3-methoxy-",390.75,le15,1
7492,O=C(O)COc1ccccc1,"Acetic acid, phenoxy-",388.25,le15,1
7493,COc1cccc(C=O)c1O,"m-Anisaldehyde, 2-hydroxy- (8CI)",367.15,le15,1
7494,O=C(O)Cc1ccccc1O,2-(2-hydroxyphenyl)acetic acid,435.75,le15,1
7495,COc1ccc(C=O)cc1O,"p-Anisaldehyde, 3-hydroxy- (8CI)",393.05,le15,1
7496,COc1ccc(O)c(C=O)c1,2-hydroxy-5-methoxybenzaldehyde,381.25,le15,1
7497,COC(=O)c1cccc(O)c1,methyl 3-hydroxybenzoate,399.85,le15,1
7498,CC(=O)c1ccc(O)cc1O,"Ethanone, 1-(2,4-dihydroxyphenyl)-",434.25,le15,1
7499,OC[C@H](O)[C@@H](O)[C@H](O)CO,Xylitol,535.05,le15,1
7500,Cc1ccc(N)c([N+](=O)[O-])c1,"Benzenamine, 4-methyl-2-nitro-",410.15,le15,1
7501,Cc1cc([N+](=O)[O-])ccc1N,"Benzenamine, 2-methyl-4-nitro-",430.35,le15,1
7502,Cc1ccc(N)cc1[N+](=O)[O-],"Benzenamine, 4-methyl-3-nitro-",412.05,le15,1
7503,Cc1cccc([N+](=O)[O-])c1N,"Benzenamine, 2-methyl-6-nitro- (9CI)",409.25,le15,1
7504,Cc1ccc([N+](=O)[O-])c(N)c1,5-Methyl-o-nitroaniline,415.95,le15,1
7505,Cc1c(N)cccc1[N+](=O)[O-],"Benzenamine, 2-methyl-3-nitro- (9CI)",411.25,le15,1
7506,NNc1ccc(C(=O)O)cc1,"Benzoic acid, 4-hydrazinyl-",455.05,le15,1
7507,Cc1ccc([N+](=O)[O-])cc1N,"Benzenamine, 2-methyl-5-nitro-",426.15,le15,1
7508,CNc1ccc([N+](=O)[O-])cc1,"Aniline, N-methyl-p-nitro- (8CI)",402.65,le15,1
7509,S=c1[nH]cnc2nc[nH]c12,"6H-Purine-6-thione, 1,7-dihydro- (9CI)",528.55,le15,1
7510,CC(C)(OO)c1ccccc1,"Hydroperoxide, alpha,alpha-dimethylbenzyl-",329.25,le15,1
7511,OCCOCc1ccccc1,"Ethanol, 2-(phenylmethoxy)-",383.15,le15,1
7512,Cc1cc(O)c(C)c(C)c1O,"1,4-Benzenediol, 2,3,5-trimethyl-",464.15,le15,1
7513,CCc1ccc(O)c(OC)c1,4-ethyl-2-methoxyphenol,380.85,le15,1
7514,C1C2CC3OC3C2CC2OC12,"Indan, 1,2:5,6-diepoxyhexahydro-",391.45,le15,1
7515,COc1cc(C)cc(OC)c1,"1,3-dimethoxy-5-methylbenzene",374.85,le15,1
7516,COc1cccc(C)c1OC,"1,2-dimethoxy-3-methylbenzene",340.75,le15,1
7517,COc1cccc(OC)c1C,"2,6-Dimethoxytoluene",369.85,le15,1
7518,COc1ccccc1C(C)O,1-(2-methoxyphenyl)ethanol,383.95,le15,1
7519,COc1ccc(C)cc1OC,"1,2-dimethoxy-4-methylbenzene",358.15,le15,1
7520,CC(C)c1ccc(O)c(O)c1,"4-propan-2-ylbenzene-1,2-diol",402.35,le15,1
7521,CC(CO)Oc1ccccc1,"1-Propanol, 2-phenoxy-",377.55,le15,1
7522,CCCOc1ccccc1O,2-propoxyphenol,370.35,le15,1
7523,Cc1cc(=O)nc(C(C)C)[nH]1,"4(1H)-Pyrimidinone, 6-methyl-2-(1-methylethyl)-",366.35,le15,1
7524,COc1cc(N)c(C)cc1N,"Toluene-2,5-diamine, 4-methoxy-",433.45,le15,1
7525,CCOc1ccc(N)cc1N,"1,3-Benzenediamine, 4-ethoxy- (9CI)",439.55,le15,1
7526,CCOc1ccc(N)c(N)c1,"4-ethoxybenzene-1,2-diamine",436.95,le15,1
7527,NC(=S)Nc1ccccc1,"Urea, 1-phenyl-2-thio-",388.25,le15,1
7528,CCCCOS(C)(=O)=O,"Methanesulfonic acid, butyl ester",375.15,le15,1
7529,CO[Si](OC)(OC)OC,tetramethyl silicate,302.0499999999999,le15,1
7530,CC12CCC(CC1=O)C2(C)C,"Bicyclo(2.2.1)heptan-2-one, 1,7,7-trimethyl-",337.5499999999999,le15,1
7531,CC1=CC(=O)C(C(C)C)CC1,"2-Cyclohexen-1-one, 3-methyl-6-(1-methylethyl)-",364.05,le15,1
7532,C=C(C)C1CC=C(C)C(O)C1,"2-Cyclohexen-1-ol, 2-methyl-5-(1-methylethenyl)-",364.35,le15,1
7533,CC1(C)[C@H]2CC[C@]1(C)C(=O)C2,"Bicyclo(2.2.1)heptan-2-one, 1,7,7-trimethyl-, (1S,4S)-",337.5499999999999,le15,1