,smiles,compound,flashpoint,source,pure substance
8916,Nc1ccc(-c2ccc(N)cc2)cc1,"(1,1'-Biphenyl)-4,4'-diamine",476.65,le15,1
8917,Nc1ccc(Nc2ccccc2)cc1,"1,4-Benzenediamine, N-phenyl-",470.95,le15,1
8918,NN(c1ccccc1)c1ccccc1,"Hydrazine, 1,1-diphenyl-",453.65,le15,1
8919,Nc1ccccc1Nc1ccccc1,"2-N-phenylbenzene-1,2-diamine",454.75,le15,1
8920,c1cc(CCc2ccncc2)ccn1,"Pyridine, 4,4'-(1,2-ethanediyl)bis-",390.35,le15,1
8921,c1ccc(NNc2ccccc2)cc1,"1,2-Diphenylhydrazine (9CI)",360.85,le15,1
8922,c1ccc2c(c1)sc1ccccc12,Dibenzothiophene,443.15,le15,1
8923,CCCCc1ccc2ccccc2c1,2-butylnaphthalene,405.25,le15,1
8924,CC(C)(C)c1ccc2ccccc2c1,2-tert-butylnaphthalene,394.75,le15,1
8925,CC(C)(C)c1cccc2ccccc12,1-tert-butylnaphthalene,394.75,le15,1
8926,CCCCc1cccc2ccccc12,1-butylnaphthalene,404.55,le15,1
8927,C=CC(=O)OCC(CC)CCCC,"2-Propenoic acid, 2-ethylhexyl ester",352.54999999999984,le15,1
8928,CC(C)=CCCC(C)CCOC=O,"6-Octen-1-ol, 3,7-dimethyl-, formate",365.35,le15,1
8929,C=CCOC(=O)CCCCCCC,"Octanoic acid, 2-propenyl ester",368.15,le15,1
8930,C=CCCCCCCCCC(=O)O,10-Undecenoic acid,418.965,le15,1
8931,CCCCCCCCCC(C)C=O,"Undecanal, 2-methyl-",366.45,le15,1
8932,CCCCCCCCCCCC=O,Lauraldehyde (8CI),375.15,le15,1
8933,CCCCCCCCCCC(C)=O,2-Dodecanone,354.35,le15,1
8934,CC(C)CC(=O)CC(C)CC(C)C,"2,6,8-trimethylnonan-4-one",336.25,le15,1
8935,Clc1nc(Cl)nc(Cl)n1,"1,3,5-Triazine, 2,4,6-trichloro-",487.55,le15,1
8936,CCCCC(CCCC)CCCC,5-n-Butylnonane,338.0499999999999,le15,1
8937,FC(F)OC(Cl)C(F)(F)F,"Ethane, 2-chloro-2-(difluoromethoxy)-1,1,1-trifluoro-",321.65,le15,1
8938,Nc1nc2cc(Cl)c(O)cc2o1,"6-Benzoxazolol, 2-amino-5-chloro- (8CI)(9CI)",450.85,le15,1
8939,CC(Oc1ccccc1)C(=O)Cl,2-phenoxypropanoyl chloride,361.45,le15,1
8940,CCOC(=O)c1ccc(Cl)cc1,ethyl 4-chlorobenzoate,380.35,le15,1
8941,CCOC(=O)c1cccc(Cl)c1,ethyl 3-chlorobenzoate,388.35,le15,1
8942,Cc1cc(O)c(C(C)C)cc1Cl,4-chloro-5-methyl-2-propan-2-ylphenol,382.65,le15,1
8943,C[Si](C)(CCl)c1ccccc1,chloromethyl-dimethyl-phenylsilane,364.25,le15,1
8944,NC(=O)CI,"Acetamide, 2-iodo-",406.65,le15,1
8945,O=C(Br)c1ccccc1,benzoyl bromide,362.85,le15,1
8946,O=Cc1ccc(Br)cc1,"Benzaldehyde, 4-bromo-",382.05,le15,1
8947,O=Cc1ccccc1Br,"Benzaldehyde, 2-bromo-",369.35,le15,1
8948,BrCCc1ccccc1,"Benzene, (2-bromoethyl)-",362.55,le15,1
8949,Cc1ccc(CBr)cc1,1-(bromomethyl)-4-methylbenzene,370.95,le15,1
8950,Cc1cc(C)cc(Br)c1,"1-bromo-3,5-dimethylbenzene",360.35,le15,1
8951,Cc1cccc(C)c1Br,"2-bromo-1,3-dimethylbenzene",347.04999999999984,le15,1
8952,Cc1cccc(Br)c1C,"1-bromo-2,3-dimethylbenzene",357.15,le15,1
8953,Cc1ccc(Br)c(C)c1,"1-bromo-2,4-dimethylbenzene",354.75,le15,1
8954,CC(Br)c1ccccc1,alpha-Methylbenzyl bromide,353.35,le15,1
8955,Cc1cccc(CBr)c1,1-(bromomethyl)-3-methylbenzene,355.15,le15,1
8956,CCc1ccc(Br)cc1,"Benzene, 1-bromo-4-ethyl-",344.35,le15,1
8957,CCc1ccccc1Br,1-bromo-2-ethylbenzene,344.15,le15,1
8958,Cc1ccccc1CBr,1-(bromomethyl)-2-methylbenzene,355.15,le15,1
8959,Cc1ccc(C)c(Br)c1,"2-bromo-1,4-dimethylbenzene",352.15,le15,1
8960,Cc1ccc(Br)cc1C,"4-bromo-1,2-dimethylbenzene",358.95,le15,1
8961,Cc1ncc([N+](=O)[O-])n1CC(=O)O,"1H-Imidazole-1-acetic acid, 2-methyl-5-nitro-",514.75,le15,1
8962,O=c1c2ccccc2[nH]c2occc12,"Furo(2,3-b)quinolin-4(9H)-one",429.85,le15,1
8963,Oc1cccc(Nc2ccccc2)c1,"Phenol, m-anilino- (8CI)",420.55,le15,1
8964,Oc1ccc(Nc2ccccc2)cc1,"Phenol, 4-(phenylamino)-",419.35,le15,1
8965,Nc1ccc(Oc2ccccc2)cc1,"Benzenamine, 4-phenoxy-",428.95,le15,1
8966,Nc1cc(-c2ccccc2)ccc1O,"(1,1'-Biphenyl)-4-ol, 3-amino-",442.25,le15,1
8967,Nc1ccccc1Oc1ccccc1,2-phenoxyaniline,386.15,le15,1
8968,Nc1ccc(-c2ccccc2)cc1O,"(1,1'-Biphenyl)-3-ol, 4-amino-",438.75,le15,1
8969,NC(=O)Cc1cccc2ccccc12,2-(1-Naphthyl)acetamide,481.35,le15,1
8970,S=C=Nc1cccc2ccccc12,"Isothiocyanic acid, 1-naphthyl ester",440.35,le15,1
8971,C=C(C)C(=O)OCCN(CC)CC,"2-Propenoic acid, 2-methyl-, 2-(diethylamino)ethyl ester",349.85,le15,1
8972,CCCCN(CCCC)CCCC,"1-Butanamine, N,N-dibutyl-",336.45,le15,1
8973,CCCCCCNCCCCCC,"1-Hexanamine, N-hexyl-",368.15,le15,1
8974,CC(C)CN(CC(C)C)CC(C)C,"1-Propanamine, 2-methyl-N,N-bis(2-methylpropyl)-",330.35,le15,1
8975,CCCCN(CCCC)CCCC,Tributylamine,345.0,le15,1
8976,CCC(Br)C(=O)Cl,2-bromobutanoyl chloride,321.95,le15,1
8977,C=C[Si](C)(C)N[Si](C)(C)C=C,"Silanamine, 1-ethenyl-N-(ethenyldimethylsilyl)-1,1-dimethyl-",325.25,le15,1
8978,O=C(Cl)c1cccc([N+](=O)[O-])c1,"Benzoyl chloride, 3-nitro-",385.15,le15,1
8979,O=Cc1cc([N+](=O)[O-])ccc1Cl,"Benzaldehyde, 2-chloro-5-nitro-",402.55,le15,1
8980,O=C(Cl)c1ccc([N+](=O)[O-])cc1,"Benzoyl chloride, 4-nitro-",394.95,le15,1
8981,O=Cc1c(Cl)cccc1[N+](=O)[O-],2-Chloro-6-nitrobenzaldehyde,407.65,le15,1
8982,CNC(=O)Oc1ccccc1Cl,"Carbamic acid, methyl-, 2-chlorophenyl ester",380.45,le15,1
8983,CC(=O)N(O)c1ccc(Cl)cc1,"Acetamide, N-(4-chlorophenyl)-N-hydroxy- (9CI)",422.15,le15,1
8984,FC(Cl)C(Cl)(Cl)Cl,"1,1,1,2-tetrachloro-2-fluoroethane",299.5499999999999,le15,1
8985,FC(Cl)(Cl)C(Cl)Cl,"1,1,2,2-tetrachloro-1-fluoroethane",298.25,le15,1
8986,Fc1c(F)c(F)c(F)c(F)c1F,"1,2,3,4,5,6-hexafluorobenzene",283.15,le15,1
8987,Cc1ccc(N)c(Br)c1,2-bromo-4-methylaniline,375.05,le15,1
8988,Cc1cc(N)ccc1Br,4-bromo-3-methylaniline,374.35,le15,1
8989,Cc1ccc(N)cc1Br,"Benzenamine, 3-bromo-4-methyl- (9CI)",383.15,le15,1
8990,O=[N+]([O-])c1ccc(F)c([N+](=O)[O-])c1,"Benzene, 1-fluoro-2,4-dinitro-",405.95,le15,1
8991,C=CC(=O)OCC(F)(F)C(F)F,"2,2,3,3-tetrafluoropropyl prop-2-enoate",307.85,le15,1
8992,FC(F)(F)c1nc2ccccc2[nH]1,"1H-Benzimidazole, 2-(trifluoromethyl)- (9CI)",385.85,le15,1
8993,COP(=O)(OC)c1ccccc1,"Phosphonic acid, phenyl-, O,O-dimethyl ester",390.45,le15,1
8994,O=c1ccc2cc3ccoc3cc2o1,"7H-Furo(3,2-g)(1)benzopyran-7-one",446.25,le15,1
8995,O=c1ccc2ccc3occc3c2o1,"2H-Furo(2,3-h)(1)benzopyran-2-one",446.25,le15,1
8996,O=C(O)C1C2CCC(O2)C1C(=O)O,"7-Oxabicyclo(2.2.1)heptane-2,3-dicarboxylic acid",463.65,le15,1
8997,O=NN1CN2CN(C1)CN(N=O)C2,"1,3,5,7-Tetraazabicyclo(3.3.1)nonane, 3,7-dinitroso-",504.25,le15,1
8998,Oc1ccc(-c2ccc(O)cc2)cc1,"(1,1'-Biphenyl)-4,4'-diol",449.25,le15,1
8999,Oc1ccc(Oc2ccccc2)cc1,"Phenol, p-phenoxy- (8CI)",414.55,le15,1
9000,Oc1ccc(O)c(-c2ccccc2)c1,"(1,1'-Biphenyl)-2,5-diol",465.45,le15,1
9001,COC(=O)c1ccc2ccccc2c1,methyl naphthalene-2-carboxylate,418.95,le15,1
9002,Nc1cccc(-n2ccccc2=O)c1,"2(1H)-Pyridone, 1-(m-aminophenyl)-",483.85,le15,1
9003,CCOC(=O)C1(C(=O)OCC)CC1,"diethyl cyclopropane-1,1-dicarboxylate",359.85,le15,1
9004,C=C(CC(=O)OCC)C(=O)OCC,diethyl 2-methylidenebutanedioate,381.15,le15,1
9005,C=COC(=O)CCCCC(=O)OC,"Hexanedioic acid, ethenyl methyl ester (9CI)",378.15,le15,1
9006,CCOC(=O)/C=C/CC(=O)OCC,diethyl (E)-pent-2-enedioate,379.85,le15,1
9007,CCOS(=O)(=O)c1ccccc1,"Benzenesulfonic acid, ethyl ester",398.65,le15,1
9008,CCOP(=S)([S-])OCC,"Phosphorodithioic acid, O,O-diethyl ester",355.95,le15,1
9009,CNS(=O)(=O)c1ccc(N)cc1,"Benzenesulfonamide, 4-amino-N-methyl- (9CI)",444.15,le15,1
9010,CCC(C(=O)O)C1(O)CCCCC1,"Cyclohexaneacetic acid, alpha-ethyl-1-hydroxy-",443.25,le15,1
9011,CC(=O)CCCCCCCC(=O)O,"Decanoic acid, 9-oxo-",444.95,le15,1
9012,CC(C)CC(=O)OC(=O)CC(C)C,3-methylbutanoyl 3-methylbutanoate,364.45,le15,1
9013,CC(C)(C)C(=O)OC(=O)C(C)(C)C,"2,2-dimethylpropanoyl 2,2-dimethylpropanoate",330.15,le15,1
9014,CCOC(=O)C(CC)(CC)C(C)=O,"ethyl 2,2-diethyl-3-oxobutanoate",354.54999999999984,le15,1
9015,CCCCC(C(C)=O)C(=O)OCC,ethyl 2-acetylhexanoate,362.25,le15,1
9016,CCCCC(=O)OC(=O)CCCC,pentanoyl pentanoate,374.25,le15,1
9017,c1ccc(Sc2ccccc2)cc1,"Benzene, 1,1'-thiobis-",401.55,le15,1
9018,c1c2c(cc3c1CCCC3)CCCC2,"1,2,3,4,5,6,7,8-octahydroanthracene",409.55,le15,1
9019,c1cc2c(c3c1CCCC3)CCCC2,"1,2,3,4,5,6,7,8-octahydrophenanthrene",405.35,le15,1
9020,CCCCCCCCCC(=O)OC,"Decanoic acid, methyl ester",363.15,le15,1
9021,CCCCCCCCCCC(=O)O,Undecanoic acid,401.35,le15,1
9022,CCCCCCCCC(=O)OCC,"Nonanoic acid, ethyl ester",367.55,le15,1
9023,CCCCCCCCOC(=O)CC,octyl propanoate,365.15,le15,1
9024,CCCCCOC(=O)CCCCC,"Hexanoic acid, pentyl ester",361.05,le15,1
9025,CCCCCCCC(=O)OCCC,"Octanoic acid, propyl ester",361.05,le15,1
9026,CCCCCCOC(=O)CCCC,hexyl pentanoate,361.05,le15,1
9027,CCCCCC(=O)OCCC(C)C,"Hexanoic acid, 3-methylbutyl ester",358.15,le15,1
9028,CCCCCCOC(=O)C(C)(C)C,"Propanoic acid, 2,2-dimethyl-, hexyl ester",349.85,le15,1
9029,CCCCCCCCCCOC=O,decyl formate,373.05,le15,1
9030,CCCCCCC(=O)OCCCC,butyl heptanoate,361.05,le15,1
9031,CCCCCCCOC(=O)CCC,heptyl butanoate,363.75,le15,1
9032,CCCCCCC(=O)OCC(C)C,2-methylpropyl heptanoate,356.04999999999984,le15,1
9033,CCCCC(CC)COCC1CO1,"Propane, 1,2-epoxy-3-((2-ethylhexyl)oxy)-",369.85,le15,1
9034,CC(C)CC(C)CC(O)CC(C)C,"4-Nonanol, 2,6,8-trimethyl-",367.45,le15,1
9035,CCCCCCCCCCC(C)O,dodecan-2-ol,370.95,le15,1
9036,CCCCCCCCCCCCO,1dodecanol,400.0,le15,1
9037,CCCCN(CCCC)CCCN,"1,3-Propanediamine, N,N-dibutyl-",376.15,le15,1
9038,C=C[Si](C)(C)O[Si](C)(C)C=C,"Disiloxane, 1,3-diethenyl-1,1,3,3-tetramethyl-",297.15,le15,1
9039,O=C(O)COc1ccc(Cl)cc1,"Acetic acid, (4-chlorophenoxy)-",417.55,le15,1
9040,COc1ccc(CCl)cc1OC,"4-(Chloromethyl)-1,2-dimethoxybenzene",371.75,le15,1
9041,NC(=S)Nc1cccc(Cl)c1,"Thiourea, (3-chlorophenyl)- (9CI)",406.35,le15,1
9042,NC(=S)Nc1ccccc1Cl,"Urea, 1-(o-chlorophenyl)-2-thio-",404.25,le15,1
9043,O=C(Cl)OCCOC(=O)Cl,2-carbonochloridoyloxyethyl carbonochloridate,367.05,le15,1
9044,COc1ccc(Br)cc1,1-bromo-4-methoxybenzene,369.798,le15,1
9045,OCc1ccc(Br)cc1,4-Bromobenzyl alcohol,388.85,le15,1
9046,COc1cccc(Br)c1,1-bromo-3-methoxybenzene,366.45,le15,1
9047,COc1ccccc1Br,1-bromo-2-methoxybenzene,369.15,le15,1
9048,Cc1ccc(O)c(Br)c1,"p-Cresol, 2-bromo-",356.04999999999984,le15,1
9049,O=c1ssc(Cl)c1Cl,"3H-1,2-Dithiole-3-one, 4,5-dichloro-",370.95,le15,1
9050,ClCCOCCOCCCl,"Ethane, 1,2-bis(2-chloroethoxy)-",394.15,le15,1
9051,CCOC(OCC)C(Cl)Cl,"1,1-dichloro-2,2-diethoxyethane",333.15,le15,1
9052,O=C=Nc1cccc(C(F)(F)F)c1,"Isocyanic acid, (m-trifluoromethylphenyl) ester",331.15,le15,1
9053,N#Cc1ccc(OC(F)(F)F)cc1,4-(trifluoromethoxy)benzonitrile,355.15,le15,1
9054,O=C=Nc1ccccc1C(F)(F)F,"Isocyanic acid, (alpha,alpha,alpha-trifluoro-o-tolyl) ester",342.15,le15,1
9055,O=[N+]([O-])c1cnc(CO)n1CCO,2-(Hydroxymethyl)-5-nitro-1H-imidazole-1-ethanol,514.3499999999998,le15,1
9056,CC(=O)Nc1ncc([N+](=O)[O-])s1,"Acetamide, N-(5-nitro-2-thiazolyl)-",410.65,le15,1
9057,Cc1ccc2ccccc2c1[N+](=O)[O-],"Naphthalene, 2-methyl-1-nitro-",423.55,le15,1
9058,Cc1ccc(N2C(=O)C=CC2=O)cc1,"1H-Pyrrole-2,5-dione, 1-(4-methylphenyl)- (9CI)",427.35,le15,1
9059,O=CN(O)c1ccc2ccccc2c1,N-Hydroxy-N-formyl-2-aminonaphthalene,456.65,le15,1
9060,Cc1ccccc1N1C(=O)C=CC1=O,"1H-Pyrrole-2,5-dione, 1-(2-methylphenyl)- (9CI)",412.45,le15,1
9061,Nc1nc(N)nc(-c2ccccc2)n1,"6-Phenyl-1,3,5-triazine-2,4-diyldiamine",558.95,le15,1
9062,Nc1ccc(-c2ccc(F)cc2)cc1,"(1,1'-Biphenyl)-4-amine, 4'-fluoro- (9CI)",430.05,le15,1
9063,CS(=O)(=O)c1ccc(O)c(N)c1,"Phenol, 2-amino-4-(methylsulfonyl)-",490.75,le15,1
9064,C(=NC1CCCCC1)c1ccccc1,"Cyclohexylamine, N-benzylidene- (6CI,7CI,8CI)",397.61300000000006,le15,1
9065,OCCN(CCO)C1CCCCC1,"Ethanol, 2,2'-(cyclohexylimino)bis-",449.35,le15,1
9066,CCSC(=O)N1CCCCCC1,"1H-Azepine-1-carbothioic acid, hexahydro-, S-ethyl ester",395.75,le15,1
9067,CCCCC(CC)COCCCN,"1-Propanamine, 3-((2-ethylhexyl)oxy)-",375.95,le15,1
9068,CN(C)CCCNCCCN(C)C,"1,3-Propanediamine, N'-(3-(dimethylamino)propyl)-N,N-dimethyl-",371.45,le15,1
9069,C[Si](C)(Cl)CBr,bromomethyl-chloro-dimethylsilane,314.25,le15,1
9070,Cc1cc(O)c([N+](=O)[O-])cc1Cl,"Phenol, 4-chloro-5-methyl-2-nitro-",394.25,le15,1
9071,CC(C)Nc1nc(N)nc(Cl)n1,"1,3,5-Triazine-2,4-diamine, 6-chloro-N-(1-methylethyl)-",462.55,le15,1
9072,BrCCBr,"Ethane, 1,2-dibromo-",285.75,le15,1
9073,O=C=Nc1ccc(Cl)c(Cl)c1,"Isocyanic acid, 3,4-dichlorophenyl ester",383.15,le15,1
9074,N#Cc1cc(Cl)c(O)c(Cl)c1,"3,5-Dichloro-4-hydroxybenzonitrile",382.15,le15,1
9075,O=C(O)c1cc2ccccc2cc1O,"2-Naphthalenecarboxylic acid, 3-hydroxy-",463.55,le15,1
9076,O=C=NCc1cccc(CN=C=O)c1,"Isocyanic acid, m-phenylenedimethylene ester",392.25,le15,1
9077,O=C=NCc1ccc(CN=C=O)cc1,"Isocyanic acid, p-xylylene ester",393.05,le15,1
9078,CC1(C)C(=O)N(CO)C(=O)N1CO,"2,4-Imidazolidinedione, 1,3-bis(hydroxymethyl)-5,5-dimethyl-",410.65,le15,1
9079,CCCC=C1OC(=O)c2ccccc21,"1(3H)-Isobenzofuranone, 3-butylidene-",386.15,le15,1
9080,C=CCOC(=O)C=Cc1ccccc1,"2-Propenoic acid, 3-phenyl-, 2-propenyl ester",436.65,le15,1
9081,Cc1cc(=O)n(-c2ccccc2)n1C,"3H-Pyrazol-3-one, 1,2-dihydro-1,5-dimethyl-2-phenyl-",387.95,le15,1
9082,CC1=NN(c2ccc(C)cc2)C(=O)C1,"3H-Pyrazol-3-one, 2,4-dihydro-5-methyl-2-(4-methylphenyl)-",447.75,le15,1
9083,O=C(O)CCCCCCCC(=O)O,Nonanedioic acid,465.25,le15,1
9084,CCOC(=O)CCCC(=O)OCC,diethyl pentanedioate,369.25,le15,1
9085,CCOC(=O)C(C)(C)C(=O)OCC,"diethyl 2,2-dimethylpropanedioate",344.25,le15,1
9086,CCOC(=O)C(CC)C(=O)OCC,"Malonic acid, ethyl-, diethyl ester (8CI)",361.15,le15,1
9087,CCOC(=O)CC(C)C(=O)OCC,diethyl 2-methylbutanedioate,370.45,le15,1
9088,CCOC(=O)CCCC(=O)OCC,DiethylGlutarate,369.0,le15,1
9089,O=C(c1ccccc1)c1cccs1,phenyl(thiophen-2-yl)methanone,412.85,le15,1
9090,CCN(CCC#N)c1cccc(C)c1,"Propanenitrile, 3-(ethyl(3-methylphenyl)amino)-",418.25,le15,1
9091,N#CCC[Si](Cl)(Cl)Cl,"Propanenitrile, 3-(trichlorosilyl)-",358.35,le15,1
9092,Nc1cc([N+](=O)[O-])cc(Cl)c1O,"Phenol, 2-amino-6-chloro-4-nitro-",443.95,le15,1
9093,N#CC(C#N)=Cc1ccccc1Cl,"Propanedinitrile, ((2-chlorophenyl)methylene)-",421.15,le15,1
9094,CCOP(=S)(Cl)OCC,"Phosphorochloridothioic acid, O,O-diethyl ester",348.95,le15,1
9095,Clc1ccccc1-c1ccccc1,"1,1'-Biphenyl, 2-chloro- (9CI)",389.05,le15,1
9096,Clc1cccc(-c2ccccc2)c1,"1,1'-Biphenyl, 3-chloro-",402.65,le15,1
9097,Clc1ccc(-c2ccccc2)cc1,"1,1'-Biphenyl, 4-chloro- (9CI)",400.15,le15,1
9098,Oc1ccc(O)c(Br)c1,"1,4-Benzenediol, 2-bromo-",395.25,le15,1
9099,O=C(Cl)C(Cl)c1ccccc1,Chloro(phenyl)acetyl chloride,377.55,le15,1
9100,CC(=O)c1ccc(Cl)cc1Cl,"Acetophenone, 2',4'-dichloro- (8CI)",374.05,le15,1
9101,O=S1(=O)CC(Cl)C(Cl)C1,"Thiophene, 3,4-dichlorotetrahydro-, 1,1-dioxide (8CI)(9CI)",469.15,le15,1
9102,Sc1ccc(Br)cc1,4-bromobenzenethiol,366.85,le15,1
9103,O=[N+]([O-])c1c(O)ccc2ccccc12,"2-Naphthalenol, 1-nitro- (9CI)",417.45,le15,1
9104,O=C(O)c1cc(O)c2ccccc2n1,"Quinaldic acid, 4-hydroxy- (8CI)",443.65,le15,1
9105,CC(=O)N[C@@H](CCC(=O)O)C(=O)O,"Glutamic acid, N-acetyl- (6CI,7CI)",526.8499999999998,le15,1
9106,O=C(O)CCc1c[nH]c2ccccc12,3-(Indol-3-yl)propionic acid,284.85,le15,1
9107,CCOC(=O)C(C#N)c1ccccc1,"Benzeneacetic acid, alpha-cyano-, ethyl ester",410.65,le15,1
9108,CCN1CN(CO)C(=O)N(CO)C1,"1,3,5-Triazin-2(1H)-one, tetrahydro-1,3-bis(hydroxymethyl)-5-ethyl-",444.55,le15,1
9109,O=C(c1ccccc1)N1CCCCC1,phenyl(piperidin-1-yl)methanone,418.15,le15,1
9110,CCCCN(CCCC)C(=O)CF,"Acetamide, N,N-dibutyl-2-fluoro-",391.45,le15,1
9111,CC(C)=CCSC[C@H](N)C(=O)O,"L-Alanine, 3-((3-methyl-2-butenyl)thio)-",425.75,le15,1
9112,CCOC(CN(CC)CC)OCC,"2,2-diethoxy-N,N-diethylethanamine",338.15,le15,1
9113,NCCNCCNCCNCCN,"1,2-Ethanediamine, N-(2-aminoethyl)-N'-(2-((2-aminoethyl)amino)ethyl)-",458.15,le15,1
9114,NC(=O)c1c(Cl)cccc1Cl,"Benzamide, 2,6-dichloro-",388.15,le15,1
9115,O=C(O)c1cccc(C(F)(F)F)c1,3-(trifluoromethyl)benzoic acid,376.05,le15,1
9116,O=C1C=CC(=O)c2c(O)ccc(O)c21,"1,4-Naphthalenedione, 5,8-dihydroxy- (9CI)",542.3499999999998,le15,1
9117,O=C(O)c1cc2ccccc2oc1=O,"2H-1-Benzopyran-3-carboxylic acid, 2-oxo-",435.85,le15,1
9118,O=[N+]([O-])c1cc[n+]([O-])c2ccccc12,"Quinoline, 4-nitro-, 1-oxide",461.35,le15,1
9119,O=[N+]([O-])c1ccc(O)c2ncccc12,"8-Quinolinol, 5-nitro-",480.35,le15,1
9120,CC(=O)C=Cc1ccc2c(c1)OCO2,"3-Buten-2-one, 4-(3,4-(methylenedioxy)phenyl)- (6CI,7CI,8CI)",420.75,le15,1
9121,CCOC(=O)c1cc2ccccc2o1,Ethyl2-benzofurancarboxylate,392.65,le15,1
9122,CC(=O)OCCOCCOC(C)=O,2-(2-acetyloxyethoxy)ethyl acetate,383.15,le15,1
9123,NN=c1[nH][nH]c(=NN)c2ccccc12,"1,4-Phthalazinedione, 2,3-dihydro-, dihydrazone (9CI)",619.05,le15,1
9124,CCC(=O)C=Cc1ccc(OC)cc1,"1-Penten-3-one, 1-(4-methoxyphenyl)- (9CI)",424.65,le15,1
9125,C=C(C)C(=O)OCCc1ccccc1,"2-Propenoic acid, 2-methyl-, 2-phenylethyl ester",430.65,le15,1
9126,CC(C)=CCOC(=O)c1ccccc1,"2-Buten-1-ol, 3-methyl-, benzoate",398.25,le15,1
9127,CCCOC(=O)C=Cc1ccccc1,"2-Propenoic acid, 3-phenyl-, propyl ester",429.25,le15,1
9128,COC(C)COC(C)COC(C)=O,Dipropylene glycol monomethylether acetate,364.65,le15,1
9129,CC1(C)CN(c2ccccc2)NC1=O,"3-Pyrazolidinone, 4,4-dimethyl-1-phenyl-",468.15,le15,1
9130,CC(C=O)Cc1ccc(C(C)C)cc1,"Benzenepropanal, alpha-methyl-4-(1-methylethyl)-",389.85,le15,1
9131,Cc1ccc(O)c(C2CCCCC2)c1,"Phenol, 2-cyclohexyl-4-methyl-",389.85,le15,1
9132,CCCCCCC(=O)c1ccccc1,"1-Heptanone, 1-phenyl-",384.35,le15,1
9133,CCCCCCOCCOCCO,"Ethanol, 2-(2-(hexyloxy)ethoxy)-",413.15,le15,1
9134,CCCOC(OCCC)OCCC,1-(dipropoxymethoxy)propane,345.15,le15,1
9135,CC(C)OC(OC(C)C)OC(C)C,2-[di(propan-2-yloxy)methoxy]propane,315.15,le15,1
9136,CC(C)(C)c1ccc(C(C)(C)C)cc1,"1,4-ditert-butylbenzene",370.05,le15,1
9137,CCCCCCCCSCCO,"Ethanol, 2-(octylthio)-",350.15,le15,1
9138,ClCCI,1-chloro-2-iodoethane,310.25,le15,1
9139,O=C(Cl)c1ccc2ccccc2c1,naphthalene-2-carbonyl chloride,414.35,le15,1
9140,CCCCCCCCCC(=O)Cl,decanoyl chloride,379.25,le15,1
9141,O=C(O)c1c(Cl)cccc1Cl,"Benzoic acid, 2,6-dichloro-",407.65,le15,1
9142,O=C(O)c1cccc(Cl)c1Cl,"Benzoic acid, 2,3-dichloro-",412.55,le15,1
9143,O=C(O)c1cc(Cl)ccc1Cl,"Benzoic acid, 2,5-dichloro-",408.95,le15,1
9144,O=C(O)c1ccc(Cl)cc1Cl,"Benzoic acid, 2,4-dichloro-",414.15,le15,1
9145,O=C(O)c1ccc(Cl)c(Cl)c1,"Benzoic acid, 3,4-dichloro-",419.15,le15,1
9146,O=Cc1cc(Cl)cc(Cl)c1O,"Salicylaldehyde, 3,5-dichloro- (8CI)",370.05,le15,1
9147,O=C(O)c1cc(Cl)cc(Cl)c1,"Benzoic acid, 3,5-dichloro-",413.85,le15,1
9148,CCOc1ccc(Cl)cc1Cl,"2,4-dichloro-1-ethoxybenzene",354.04999999999984,le15,1
9149,O=[N+]([O-])c1cccc(C(F)(F)F)c1,"Toluene, alpha,alpha,alpha-trifluoro-m-nitro- (8CI)",360.15,le15,1
9150,O=[N+]([O-])c1ccccc1C(F)(F)F,"2-Nitro-alpha,alpha,alpha-trifluorotoluene",368.75,le15,1
9151,BrCCC1CCCCC1,2-bromoethylcyclohexane,354.75,le15,1
9152,O=C(O)CN(CC(=O)O)CC(=O)O,"Glycine, N,N-bis(carboxymethyl)-",528.25,le15,1
9153,O=C(O)Cc1c[nH]c2ccc(O)cc12,"1H-Indole-3-acetic acid, 5-hydroxy-",527.55,le15,1
9154,CC(=O)CC(=O)Nc1ccccc1C,"Butanamide, N-(2-methylphenyl)-3-oxo-",416.15,le15,1
9155,CN1CCc2cc3c(cc2C1)OCO3,"6-methyl-7,8-dihydro-5H-[1,3]dioxolo[4,5-g]isoquinoline",396.15,le15,1
9156,O=C(C=Cc1ccccc1)NCCO,"2-Propenamide, N-(2-hydroxyethyl)-3-phenyl-",492.65,le15,1
9157,O=NN1CCCC[C@H]1c1cccnc1,"Pyridine, 3-(1-nitroso-2-piperidinyl)-, (S)- (9CI)",456.95,le15,1
9158,Cc1ccccc1NC(=N)NC(=N)N,"Imidodicarbonimidic diamide, N-(2-methylphenyl)-",475.75,le15,1
9159,CCCCN(C(C)=O)c1ccccc1,N-butyl-N-phenylacetamide,414.15,le15,1
9160,CCN(CC)C(=O)c1cccc(C)c1,"Benzamide, N,N-diethyl-3-methyl-",428.15,le15,1
9161,CCN(CC)C(=O)Cc1ccccc1,"Benzeneacetamide, N,N-diethyl- (9CI)",407.45,le15,1
9162,CCN(CC)C(=O)c1ccccc1C,"Benzamide, N,N-diethyl-2-methyl-",412.95,le15,1
9163,CCN(CC)C(=O)c1ccc(C)cc1,"Benzamide, N,N-diethyl-4-methyl-",413.95,le15,1
9164,CC(O)CN(CC(C)O)CC(C)O,"2-Propanol, 1,1',1''-nitrilotris-",440.15,le15,1
9165,CCCCSCCC(N)C(=O)O,2-amino-4-butylsulfanylbutanoic acid,429.95,le15,1
9166,CCOC(OCC)[SiH2]CCCN,"1-Propanamine, 3-(diethoxymethylsilyl)-",348.75,le15,1
9167,CCOC(=O)C(Cl)(Cl)Cl,"ethyl 2,2,2-trichloroacetate",338.15,le15,1
9168,Clc1ccc(Br)cc1,"Benzene, 1-bromo-4-chloro-",351.54999999999984,le15,1
9169,Clc1cccc(Br)c1,"Benzene, 1-bromo-3-chloro-",353.75,le15,1
9170,Clc1ccccc1Br,1-bromo-2-chlorobenzene,352.54999999999984,le15,1
9171,CC(C)C[Si](Cl)(Cl)Cl,trichloro(2-methylpropyl)silane,321.25,le15,1
9172,C=C(Cl)C(Cl)=C(Cl)Cl,"1,3-Butadiene, 1,1,2,3-tetrachloro-",348.95,le15,1
9173,Cl/C=C(Cl)/C(Cl)=C/Cl,"(1Z,3Z)-1,2,3,4-tetrachlorobuta-1,3-diene",355.85,le15,1
9174,O=[N+]([O-])c1cc(Cl)ccc1Cl,"Benzene, 1,4-dichloro-2-nitro-",382.55,le15,1
9175,O=[N+]([O-])c1ccc(Cl)c(Cl)c1,"Benzene, 1,2-dichloro-4-nitro-",396.15,le15,1
9176,O=[N+]([O-])c1ccc(Cl)cc1Cl,"Benzene, 2,4-dichloro-1-nitro-",390.05,le15,1
9177,O=[N+]([O-])c1cc(Cl)cc(Cl)c1,"Benzene, 1,3-dichloro-5-nitro-",376.55,le15,1
9178,O=[N+]([O-])c1cccc(Cl)c1Cl,"Benzene, 1,2-dichloro-3-nitro-",397.05,le15,1