,smiles,compound,flashpoint,source,pure substance
13514,CC(C)(C)CC(C)(C)C,"2,2,4,4-Tetramethylpentane",276.0,pan07,1
13515,CCCC(CC)CCC,4-Ethylheptane,288.0,pan07,1
13516,CCCCCC(C)(C)C,"2,2-Dimethylheptane",297.0,pan07,1
13517,CCCC(C)CC(C)C,"2,4-Dimethylheptane",288.0,pan07,1
13518,CCC(C)C(C)C(C)C,"2,3,4-Trimethylhexane",288.0,pan07,1
13519,CCC(C)C(C)(C)CC,"3,3,4-Trimethylhexane",288.0,pan07,1
13520,CC(C)CC(C)C(C)C,"2,3,5-Trimethylhexane",288.0,pan07,1
13521,CCCC(C)C(C)(C)C,"2,2,3-Trimethylhexane",288.0,pan07,1
13522,CCC(C)CC(C)CC,"3,5-Dimethylheptane",288.0,pan07,1
13523,CCC(CC)(CC)CC,Tetraethylmethane,294.0,pan07,1
13524,CCCCCCCCCC,Decane,319.0,pan07,1
13525,CCCCC(CC)CCC,4-Ethyloctane,314.0,pan07,1
13526,CCC(C)C(C)CC(C)C,"2,4,5-Trimethylheptane",304.0,pan07,1
13527,CCCCCC(C)C(C)C,"2,3-Dimethyloctane",314.0,pan07,1
13528,CCCCCC(C)(C)CC,"3,3-Dimethyloctane",314.0,pan07,1
13529,CCCC(C)CC(C)CC,"3,5-Dimethyloctane",314.0,pan07,1
13530,CCC(C)CCCC(C)C,"2,6-Dimethyloctane",314.0,pan07,1
13531,CCCC(CC)C(C)(C)C,"3-Ethyl-2,2-dimethylhexane",311.0,pan07,1
13532,CCC(C)(C)C(C)(C)CC,"3,3,4,4-Tetramethylhexane",304.0,pan07,1
13533,CC(C)(C)CCC(C)(C)C,"2,2,5,5-Tetramethylhexane",304.0,pan07,1
13534,CCC(C)C(C)(C)C(C)C,"2,3,3,4-Tetramethylhexane",304.0,pan07,1
13535,CC(C)C(C)C(C)C(C)C,"2,3,4,5-Tetramethylhexane",304.0,pan07,1
13536,CCC(C)(C)CC(C)(C)C,"2,2,4,4-Tetramethylhexane",304.0,pan07,1
13537,CCC(C)CC(C)(C)CC,"3,3,5-Trimethylheptane",304.0,pan07,1
13538,CCC(C)CC(C)C(C)C,"2,3,5-Trimethylheptane",304.0,pan07,1
13539,CCCCC(C)(CC)CC,3-Ethyl-3-methylheptane,314.0,pan07,1
13540,CCCC(CC)C(C)CC,4-Ethyl-3-methylheptane,314.0,pan07,1
13541,CCCCCCCC(C)C,2-Methylnonane,314.0,pan07,1
13542,CCCCCCCCCCC,Undecane,333.0,pan07,1
13543,CCCCCCCCCCCC,Dodecane,344.0,pan07,1
13544,CCCCCCCCCCCCCC,Tetradecane,372.0,pan07,1
13545,CCCCCCCCCCCCCCCC,Hexadecane,408.0,pan07,1
13546,CC(CC(C)(C)C)CC(C)(C)CC(C)(C)C,"2,2,4,4,6,8,8-Heptamethylnonane",368.0,pan07,1
13547,CCC(C)C,2-Methylbutane,216.0,pan07,1
13548,CCCC(C)C,2-Methylpentane,250.0,pan07,1
13549,CCC(C)(C)C(C)C,"2,3,3-Trimethylpentane",273.0,pan07,1
13550,CCCCCC(C)C,2-Methylheptane,277.0,pan07,1
13551,CCCCC(C)(C)C,"2,2-Dimethylhexane",269.0,pan07,1
13552,CCC(CC)C(C)(C)C,"3-Ethyl-2,2-dimethylpentane",286.0,pan07,1
13553,CCC(C)(C)CC(C)C,"2,4,4-Trimethylhexane",288.0,pan07,1
13554,CCCC(C)(C)CCC,"4,4-Dimethylheptane",288.0,pan07,1
13555,CCCC(C)(C)C(C)C,"2,3,3-Trimethylhexane",288.0,pan07,1
13556,CC(C)CC(C)CC(C)C,"2,4,6-Trimethylheptane",304.0,pan07,1
13557,CCC(C)(C(C)C)C(C)C,"3-Ethyl-2,3,4-trimethylpentane",304.0,pan07,1
13558,CCC(C)(C)C(C)C(C)C,"2,3,4,4-Tetramethylhexane",304.0,pan07,1
13559,CCC(C)C(C)C(C)CC,"3,4,5-Trimethylheptane",304.0,pan07,1
13560,CCC(C)CC(CC)CC,3-Ethyl-5-methylheptane,304.0,pan07,1
13561,CCCCC(C)CCCC,5-Methylnonane,312.0,pan07,1
13562,CC(C)C,2-Methylpropane,186.0,pan07,1
13563,CCC(C)CC,3-Methylpentane,241.0,pan07,1
13564,CCC(C)C(C)C,"2,3-Dimethylpentane",258.0,pan07,1
13565,CCCC(C)CC,3-Methylhexane,258.0,pan07,1
13566,CC(C)C(C)(C)C,"2,2,3-Trimethylbutane",247.0,pan07,1
13567,CCCCCCCC,Octane,286.0,pan07,1
13568,CC(C)(C)C(C)(C)C,"2,2,3,3-Tetramethylbutane",273.0,pan07,1
13569,CC(C)C(C)C(C)C,"2,3,4-Trimethylpentane",273.0,pan07,1
13570,CCC(C)C(C)CC,"3,4-Dimethylhexane",277.0,pan07,1
13571,CCC(C)C(CC)CC,3-Ethyl-4-methylhexane,288.0,pan07,1
13572,CCC(C)CC(C)(C)C,"2,2,4-Trimethylhexane",288.0,pan07,1
13573,CC(C)CCCCC(C)C,"2,7-Dimethyloctane",314.0,pan07,1
13574,CCC(C)C(C)C(C)(C)C,"2,2,3,4-Tetramethylhexane",304.0,pan07,1
13575,CCCCCCCCCCCCC,Tridecane,352.0,pan07,1
13576,CCCCCCCCCCCCCCC,Pentadecane,388.0,pan07,1
13577,CCCCCl,1-Chlorobutane,262.1,caroll15,1
13578,CC(C)CCCl,1-Chloro-3-methylbutane,289.2,caroll15,1
13579,CCC(C)CCl,1-Chloro-2-methylbutane,283.0,caroll15,1
13580,CCCCCCl,1-Chloropentane,284.3,caroll15,1
13581,CC(C)(C)CCCl,"1-Chloro-3,3-dimethylbutane",292.2,caroll15,1
13582,CCC(C)(C)CCl,"1-Chloro-2,2-dimethylbutane",292.2,caroll15,1
13583,CCC(CC)CCl,3-(Chloromethyl)pentane,298.2,caroll15,1
13584,CCC(CC)CCl,1-Chloro-2-ethylbutane,298.2,caroll15,1
13585,CCCC(C)CCl,1-Chloro-2-methylpentane,298.2,caroll15,1
13586,CCC(C)CCCl,1-Chloro-3-methylpentane,298.2,caroll15,1
13587,CCCCCCCl,1-Chlorohexane,299.9,caroll15,1
13588,CCCC(C)CCCl,1-Chloro-3-methylhexane,312.4,caroll15,1
13589,CCCCCCCCl,1-Chloroheptane,314.9,caroll15,1
13590,CCC(C)CCCCCl,1-Chloro-5-methylheptane,325.7,caroll15,1
13591,CCCCCCCCCl,1-Chlorooctane,334.2,caroll15,1
13592,CCCCCCCCCCCl,1-Chlorodecane,356.2,caroll15,1
13593,CCCCCCCCCCCCl,1-Chloroundecane,367.6,caroll15,1
13594,CCCCCCCCCCCCCl,1-Chlorododecane,377.7,caroll15,1
13595,CCCCCCCCCCCCCCCl,1-Chlorotetradecane,403.2,caroll15,1
13596,CCCCCCCCCCCCCCCCCl,1-Chlorohexadecane,411.3,caroll15,1
13597,CCCCCCCCCCCCCCCCCCl,1-Chloroheptadecane,418.4,caroll15,1
13598,CCCCCCCCCCCCCCCCCCCl,1-Chlorooctadecane,457.2,caroll15,1
13599,CCC(Cl)CC,3-Chloropentane,283.0,caroll15,1
13600,CCC(Cl)C(C)C,3-Chloro-2-methylpentane,294.0,caroll15,1
13601,CC(C)CC(C)Cl,2-Chloro-4-methylpentane,294.0,caroll15,1
13602,CCCCC(C)Cl,2-Chlorohexane,298.2,caroll15,1
13603,CCCC(Cl)CC,3-Chlorohexane,298.2,caroll15,1
13604,CC(C)CCC(C)Cl,2-Chloro-5-methylhexane,308.4,caroll15,1
13605,CCCC(Cl)CCC,4-Chloroheptane,312.4,caroll15,1
13606,CCCCC(Cl)CC,3-Chloroheptane,312.4,caroll15,1
13607,CCCCCC(C)Cl,2-Chloroheptane,312.4,caroll15,1
13608,CCCCCC(Cl)CC,3-Chlorooctane,325.7,caroll15,1
13609,CCCCCCCC(C)Cl,2-Chlorononane,338.3,caroll15,1
13610,CCCCC(Cl)CCCC,5-Chlorononane,338.3,caroll15,1
13611,CCC[C@H](Cl)CCCC(C)C,(S)-6-Chloro-2-methylnonane,346.9,caroll15,1
13612,CCCCCCCCC(C)Cl,2-Chlorodecane,350.2,caroll15,1
13613,CCCCCCCCCCC(C)Cl,2-Chlorododecane,372.7,caroll15,1
13614,CCCCCCCC(Cl)CCCC,5-Chlorododecane,372.6,caroll15,1
13615,CCCCCCCCC(Cl)CCCC,5-Chlorotridecane,383.2,caroll15,1
13616,CC(C)C(C)(C)Cl,"2-Chloro-2,3-dimethylbutane",288.1,caroll15,1
13617,CCC(C)(Cl)CC,3-Chloro-3-methylpentane,282.6,caroll15,1
13618,CCCC(C)(C)Cl,2-Chloro-2-methylpentane,294.0,caroll15,1
13619,CC(C)CC(C)(C)Cl,"2-Chloro-2,4-dimethylpentane",302.9,caroll15,1
13620,CCCC(C)(Cl)CC,3-Chloro-3-methylhexane,306.7,caroll15,1
13621,CCC(C)C(C)(C)Cl,"2-Chloro-2,3-dimethylpentane",302.9,caroll15,1
13622,CC(C)(C)C(C)(C)Cl,"2-Chloro-2,3,3-trimethylbutane",297.5,caroll15,1
13623,CCC(Cl)(CC)CC,3-Chloro-3-ethylpentane,306.7,caroll15,1
13624,CC(C)(C)CC(C)(C)Cl,"2-Chloro-2,4,4-trimethylpentane",311.5,caroll15,1
13625,CCCC(C)(Cl)C(C)C,"3-Chloro-2,3-dimethylhexane",316.7,caroll15,1
13626,CCCCC(C)(Cl)CC,3-Chloro-3-methylheptane,320.3,caroll15,1
13627,CCCCCC(C)(C)Cl,2-Chloro-2-methylheptane,320.3,caroll15,1
13628,CCCC(C)(Cl)C(C)(C)C,"3-Chloro-2,2,3-trimethylhexane",324.8,caroll15,1
13629,CCCCC(Cl)(CC)CC,3-Chloro-3-ethylheptane,333.1,caroll15,1
13630,CCCCCC(C)(Cl)CC,3-Chloro-3-methyloctane,333.1,caroll15,1
13631,CCC(C)(Cl)CCCC(C)C,"6-Chloro-2,6-dimethyloctane",342.0,caroll15,1
13632,CCCCCCCC(C)(C)Cl,2-Chloro-2-methylnonane,345.3,caroll15,1
13633,CCCCCCC(C)(Cl)CC,3-Chloro-3-methylnonane,345.3,caroll15,1
13634,CC(C)C(C)CCl,"1-Chloro-2,3-dimethylbutane",294.0,caroll15,1
13635,CC(C)CCCCl,1-Chloro-4-methylpentane,298.2,caroll15,1
13636,CCCCC(CC)CCl,3-(Chloromethyl)heptane,325.7,caroll15,1
13637,CCCCCCCCCCl,1-Chlorononane,347.2,caroll15,1
13638,CC(C)CCCC(C)CCCl,"1-Chloro-3,7-dimethyloctane",346.9,caroll15,1
13639,CCCCCCCCCCCCCCl,1-Chlorotridecane,387.0,caroll15,1
13640,CCCCCCCCCCCCCCCCl,1-Chloropentadecane,403.8,caroll15,1
13641,CCCCCCCCCCCCCCCCCCCCCl,1-Chloroeicosane,437.2,caroll15,1
13642,CCC(C)Cl,2-Chlorobutane,258.2,caroll15,1
13643,CC(C)C(C)Cl,2-Chloro-3-methylbutane,278.6,caroll15,1
13644,CCCC(C)Cl,2-Chloropentane,274.2,caroll15,1
13645,CC(Cl)C(C)(C)C,"3-Chloro-2,2-dimethylbutane",288.1,caroll15,1
13646,CC(Cl)CC(C)(C)C,"4-Chloro-2,2-dimethylpentane",302.9,caroll15,1
13647,CC(C)CCCC(C)Cl,2-Chloro-6-methylheptane,322.0,caroll15,1
13648,CCCCCCC(C)Cl,2-Chlorooctane,325.7,caroll15,1
13649,CCCCCCC(Cl)CCCC,5-Chloroundecane,361.7,caroll15,1
13650,CCC(C)(C)Cl,2-Chloro-2-methylbutane,276.5,caroll15,1
13651,CCC(C)(Cl)C(C)C,"3-Chloro-2,3-dimethylpentane",302.9,caroll15,1
13652,CCCCC(C)(C)Cl,2-Chloro-2-methylhexane,306.7,caroll15,1
13653,CC(C)CCC(C)(C)Cl,"2-Chloro-2,5-dimethylhexane",316.7,caroll15,1
13654,CCCC(C)(Cl)CCC,4-Chloro-4-methylheptane,320.3,caroll15,1
13655,CCC(Cl)(CC)C(C)(C)C,"3-Chloro-3-ethyl-2,2-dimethylpentane",324.8,caroll15,1
13656,CCCCCCC(C)(C)Cl,2-Chloro-2-methyloctane,333.1,caroll15,1
13657,CCCCC(C)(Cl)CCC,4-Chloro-4-methyloctane,333.1,caroll15,1
13658,C[Si](Cl)(Cl)Cl,Methyltrichlorosilane,276.15,didier12,1
13659,C=C[Si](Cl)(Cl)Cl,Vinyltrichlorosilane,294.15,didier12,1
13660,C[Si](Cl)(Cl)C(Cl)Cl,Dichloromethylmethyldichlorosilane,301.15,didier12,1
13661,CC[Si](Cl)(Cl)Cl,Ethyltrichlorosilane,263.15,didier12,1
13662,C[SiH](C)Cl,Dimethylchlorosilane,245.15,didier12,1
13663,CC[SiH3],Ethylsilane,213.15,didier12,1
13664,CC(C(F)(F)F)[Si](Cl)(Cl)Cl,"1,1,1-Trifluoropropyltrichlorosilane",288.15,didier12,1
13665,C=CC[Si](Cl)(Cl)Cl,Allyltrichlorosilane,304.15,didier12,1
13666,CC=C[SiH](Cl)Cl,Methylvinyldichlorosilane,272.15,didier12,1
13667,ClCCC[Si](Cl)(Cl)Cl,3-Chloropropyltrichlorosilane,357.15,didier12,1
13668,CCC[Si](Cl)(Cl)Cl,n-Propyltrichlorosilane,310.15,didier12,1
13669,C[Si](C)(Cl)CCl,Chloromethyldimethylchlorosilane,295.15,didier12,1
13670,C[Si](C)(C)Br,Trimethylbromosilane,270.15,didier12,1
13671,C[Si](C)(C)Cl,Trimethylchlorosilane,255.15,didier12,1
13672,C[Si](C)(C)F,Trimethylfluorosilane,238.15,didier12,1
13673,CO[SiH](OC)OC,Trimethoxysilane,264.15,didier12,1
13674,C[Si](Cl)(Cl)CCC#N,Cyanoethylmethyldichlorosilane,333.15,didier12,1
13675,C=CCC[SiH](Cl)Cl,Allylmethyldichlorosilane,300.15,didier12,1
13676,C[Si](Cl)(Cl)CCCCl,3-Chloropropylmethyldichlorosilane,359.15,didier12,1
13677,CC(C)(C)[Si](Cl)(Cl)Cl,t-Butyltrichlorosilane,294.15,didier12,1
13678,CC(C)C[Si](Cl)(Cl)Cl,Isobutyltrichlorosilane,310.15,didier12,1
13679,CCCC[Si](Cl)(Cl)Cl,n-Butyltrichlorosilane,327.15,didier12,1
13680,C[Si](C)(C)N=C=S,Trimethylsilylisothiocyanate,308.15,didier12,1
13681,CCC[Si](C)(Cl)Cl,n-Propylmethyldichlorosilane,300.15,didier12,1
13682,C[Si](C)(C)CBr,Bromomethyltrimethylsilane,289.15,didier12,1
13683,CC[Si](C)(C)Cl,Ethyldimethylchlorosilane,269.15,didier12,1
13684,CO[Si](C)(C)C,Methoxytrimethylsilane,243.15,didier12,1
13685,CO[Si](C)(C)OC,Dimethyldimethoxysilane,265.15,didier12,1
13686,CO[Si](C)(OC)OC,Methyltrimethoxysilane,284.15,didier12,1
13687,CO[Si](OC)(OC)OC,Tetramethoxysilane,294.15,didier12,1
13688,C[Si](C)(C)C,Tetramethylsilane,245.15,didier12,1
13689,CC[SiH2]CC,Diethylsilane,253.15,didier12,1
13690,CN(C)[SiH](C)C,"(N,N-Dimethylamino)dimethylsilane",260.15,didier12,1
13691,O=C=N[Si](N=C=O)(N=C=O)N=C=O,Tetraisocyanatosilane,323.15,didier12,1
13692,Cl[Si](Cl)(Cl)C1CCCC1,Cyclopentyltrichlorosilane,350.15,didier12,1
13693,C[Si](C)(C)OC(=O)C(F)(F)F,Trimethylsilyltrifluoroacetate,273.15,didier12,1
13694,Cl[SiH](Cl)C1CCCC1,Cyclopentyldichlorosilane,316.15,didier12,1
13695,CC(CCl)C[Si](C)(Cl)Cl,3-Chloro-2-methylpropylmethyldichlorosilane,363.15,didier12,1
13696,CC=C[SiH](OC)OC,Methylvinyldimethoxysilane,277.15,didier12,1
13697,C=C[Si](OC)(OC)OC,Vinyltrimethoxysilane,296.15,didier12,1
13698,CC(C)=C(C)[SiH3],Trimethylvinylsilane,239.15,didier12,1
13699,CC[Si](C)(Cl)CC,Diethylmethylchlorosilane,288.15,didier12,1
13700,CCO[Si](C)(C)CCl,Chloromethyldimethylethoxysilane,299.15,didier12,1
13701,CCO[Si](C)(C)C,Ethoxytrimethylsilane,246.15,didier12,1
13702,CC[Si](OC)(OC)OC,Ethyltrimethoxysilane,300.15,didier12,1
13703,CN(C)[Si](C)(C)C,"(N,N-Dimethylamino)trimethylsilane",254.15,didier12,1
13704,C[SiH](C)O[Si](C)(C)C,Pentamethyldisiloxane,254.15,didier12,1
13705,Cl[SiH](Cl)c1ccccc1,Phenyldichlorosilane,333.15,didier12,1
13706,[SiH3]c1ccccc1,Phenylsilane,281.15,didier12,1
13707,CCCCC=C[Si](Cl)(Cl)Cl,1-Hexenyltrichlorosilane,333.15,didier12,1
13708,Cl[Si](Cl)(Cl)C1CCCCC1,Cyclohexyltrichlorosilane,358.15,didier12,1
13709,C[Si](C)(C)O[Si](C)(CCl)CCl,Bis(chloromethyl)tetramethyldisiloxane,346.15,didier12,1
13710,C#CCO[Si](C)(C)C,Propargyloxytrimethylsilane,300.15,didier12,1
13711,C=C[Si](C)(C)C=C,Divinyldimethylsilane,281.15,didier12,1
13712,CCCCCC[Si](Cl)(Cl)Cl,n-Hexyltrichlorosilane,358.15,didier12,1
13713,CCCCCC[SiH](Cl)Cl,Hexyldichlorosilane,337.15,didier12,1
13714,C[Si]1(C)CCCCO1,"1,1-Dimethyl-1-sila-2-oxacyclohexane",287.15,didier12,1
13715,CC(=O)OC[Si](C)(C)C,Acetoxymethyltrimethylsilane,293.15,didier12,1
13716,C=CC[Si](C)(C)C,Allyltrimethylsilane,280.15,didier12,1
13717,CC[Si](Cl)(CC)CC,Triethylchlorosilane,303.15,didier12,1
13718,CC(C)(C)[Si](C)(C)Cl,t-Butyldimethylchlorosilane,295.15,didier12,1
13719,CO[Si](C)(CCCCl)OC,3-Chloropropylmethyldimethoxysilane,318.15,didier12,1
13720,CCCO[Si](C)(C)C,Trimethyl-n-propoxysilane,283.15,didier12,1
13721,CC(C)(C)[Si](C)(C)O,t-Butyldimethylsilanol,318.15,didier12,1
13722,CCO[Si](C)(C)OCC,Dimethyldiethoxysilane,284.15,didier12,1
13723,CC[SiH](CC)CC,Triethylsilane,270.15,didier12,1
13724,CCCCCC[SiH3],Hexylsilane,285.15,didier12,1
13725,C[SiH](C)C(C)(C)C,t-Butyldimethylsilane,251.15,didier12,1
13726,CN(C)[Si](C)(C)N(C)C,Bis(dimethylamino)dimethylsilane,266.15,didier12,1
13727,C[Si]1(C)O[Si](C)(C)O[Si](C)(C)O1,Hexamethylcyclotrisiloxane,305.15,didier12,1
13728,C[Si](C)(C)S[Si](C)(C)C,Hexamethyldisilthiane,299.15,didier12,1
13729,C[Si](C)(C)N[Si](C)(C)C,Hexamethyldisilazane,281.15,didier12,1
13730,CN(C)[SiH](N(C)C)N(C)C,Tris(dimethylamino)silane,298.15,didier12,1
13731,C[Si](C)(C)O[SiH2]O[Si](C)(C)C,Hexamethyltrisiloxane,293.15,didier12,1
13732,Cl[SiH](Cl)Cc1ccccc1,Phenylmethyldichlorosilane,340.15,didier12,1
13733,Cl[SiH2]Cc1ccccc1,Phenylmethylchlorosilane,355.15,didier12,1
13734,CC(=O)O[Si](C)(OC(C)=O)OC(C)=O,Methyltriacetoxysilane,358.15,didier12,1
13735,C=CC([SiH3])(C=C)C=C,Trivinylmethylsilane,288.15,didier12,1
13736,Cl[SiH](Cl)CC1CCCCC1,Cyclohexylmethyldichlorosilane,355.15,didier12,1
13737,C=CC=CO[Si](C)(C)C,"1-(Trimethylsiloxy)-1,3-butadiene",298.15,didier12,1
13738,C=C(CCl)C[Si](C)(C)C,2-Chloromethyl-3-trimethylsilyl-1-propene,316.15,didier12,1
13739,CCCCCCC[Si](Cl)(Cl)Cl,n-Heptyltrichlorosilane,337.15,didier12,1
13740,CCCCCC[Si](C)(Cl)Cl,n-Hexylmethyldichlorosilane,358.15,didier12,1
13741,C=CC[SiH](OCC)OCC,Vinylmethyldiethoxysilane,289.15,didier12,1
13742,C[Si](C)(C)N1CCOCC1,N-(Trimethylsilyl)morpholine,300.15,didier12,1
13743,CC(C)(C)O[Si](C)(C)C,t-Butoxytrimethylsilane,287.15,didier12,1
13744,C=C[Si](C)(C)O[Si](C)(C)C,Vinylpentamethyldisiloxane,285.15,didier12,1
13745,COCC(C)O[Si](C)(C)C,(1-Methoxy-2-propoxy)trimethylsilane,293.15,didier12,1
13746,CCO[Si](C)(OCC)OCC,Methyltriethoxysilane,297.15,didier12,1
13747,CCN(CC)[Si](C)(C)C,(Diethylamino)trimethylsilane,283.15,didier12,1
13748,C[Si](C)(C)C[Si](C)(C)C,Bis(trimethylsilyl)methane,285.15,didier12,1
13749,CN([Si](C)(C)C)[Si](C)(C)C,Heptamethyldisilazane,300.15,didier12,1
13750,Cl[SiH](Cl)CCc1ccccc1,Phenylethyldichlorosilane,365.15,didier12,1
13751,C=C[Si](C=C)(C=C)C=C,Tetravinylsilane,291.15,didier12,1
13752,C[SiH](C)c1ccccc1,Phenyldimethylsilane,311.15,didier12,1
13753,C[Si](C)(C)C1C=CC=C1,Cyclopentadienyltrimethylsilane,302.15,didier12,1
13754,C[Si](C)(C)OC1=CCCC1,(Cyclopentenyloxy)trimethylsilane,311.15,didier12,1
13755,C=CC=CC[Si](C)(C)C,"(2,4-Pentadienyl)trimethylsilane",291.15,didier12,1
13756,CCCCCCCC[Si](Cl)(Cl)Cl,n-Octyltrichlorosilane,369.15,didier12,1
13757,CCCCCCC[Si](C)(Cl)Cl,n-Heptylmethyldichlorosilane,339.15,didier12,1
13758,C=C[Si](C)(C=C)O[Si](C)(C)C,Tetramethyldivinyldisiloxane,292.15,didier12,1
13759,CCC(CC)(CC)C(=O)O[SiH3],Triethylacetoxysilane,314.15,didier12,1
13760,C=C[Si](OCC)(OCC)OCC,Vinyltriethoxysilane,307.15,didier12,1
13761,C=C[Si](C)(C)N[Si](C)(C)C=C,"1,3-Divinyltetramethyldisilazane",307.15,didier12,1
13762,CCO[Si](CC)(CC)OCC,Diethyldiethoxysilane,316.15,didier12,1
13763,CCO[Si](OCC)(OCC)OCC,Tetraethoxysilane,323.15,didier12,1
13764,CC[Si](CC)(CC)CC,Tetraethylsilane,305.15,didier12,1
13765,CO[Si](CCCNCCN)(OC)OC,Aminoethylaminopropyltrimethoxysilane,369.15,didier12,1
13766,CCO[Si]([O])OC(C)(C)C(C)C,Tetramethyldiethoxysiloxane,311.15,didier12,1
13767,C[Si](C)(C)O[Si](C)(C)O[Si](C)(C)C,Octamethyltrisiloxane,303.15,didier12,1
13768,C[Si]1(C)O[Si](C)(C)O[Si](C)(C)O[Si](C)(C)O1,Octamethylcyclotetrasiloxane,330.15,didier12,1
13769,C[Si]1(C)N[Si](C)(C)N[Si](C)(C)N[Si](C)(C)N1,Octamethylcyclotetrasilazane,339.15,didier12,1
13770,C[SiH](C)O[Si](O[SiH](C)C)(O[SiH](C)C)O[SiH](C)C,Tetrakisdimethylsiloxysilane,340.15,didier12,1
13771,C[Si](C)(C)c1ccc(Cl)cc1,p-Chlorophenyltrimethylsilane,322.15,didier12,1
13772,CO[Si](OC)(OC)c1ccccc1,Phenyltrimethoxysilane,358.15,didier12,1
13773,C[Si](C)(C)c1ccccc1,Trimethylphenylsilane,313.15,didier12,1
13774,CO[SiH](CC1CCCCC1)OC,Cyclohexylmethyldimethoxysilane,343.15,didier12,1
13775,CCCCCC[Si](OC)(OC)OC,Hexyltrimethoxysilane,335.15,didier12,1
13776,CC(C)[SiH](C(C)C)C(C)C,Triisopropylsilane,310.15,didier12,1
13777,CCC[SiH](CCC)CCC,Tri-n-propylsilane,316.15,didier12,1
13778,CCC[Si](O[SiH](C)C)(O[SiH](C)C)O[SiH](C)C,Propyltris(dimethylsiloxy)silane,323.15,didier12,1
13779,C[Si](C)(C)Cc1ccccc1,Benzyltrimethylsilane,335.15,didier12,1
13780,C=C(C)C(=O)OCCC[Si](OC)(OC)OC,3-Methacryloxypropyltrimethoxysilane,365.15,didier12,1
13781,CCCCCC#C[Si](C)(C)C,1-Heptynyltrimethylsilane,315.15,didier12,1
13782,CCCCCCCC[Si](C)(C)Cl,n-Octyldimethylchlorosilane,370.15,didier12,1
13783,CCN(CC)[Si](C)(C)N(CC)CC,Bis(diethylamino)dimethylsilane,308.15,didier12,1
13784,C[Si](C)(C)O[Si](C)(C)O[Si](C)(C)O[Si](C)(C)C,Decamethyltetrasiloxane,335.15,didier12,1
13785,C[Si]1(C)O[Si](C)(C)O[Si](C)(C)O[Si](C)(C)O[Si](C)(C)O1,Decamethylcyclopentasiloxane,350.15,didier12,1
13786,CO[Si](CCC1CCC2OC2C1)(OC)OC,"2-(3,4-epoxycyclohexyl)ethyltrimethoxysilane",419.15,didier12,1
13787,CCCCCCCCCC[Si](C)(Cl)Cl,n-Decylmethyldichlorosilane,393.15,didier12,1
13788,C=C[Si](CC)(CC)CC,Vinyltriethylsilane,318.15,didier12,1
13789,Cl[Si](Cl)(c1ccccc1)c1ccccc1,Diphenyldichlorosilane,415.15,didier12,1
13790,CCO[Si](OCC)(OCC)c1ccccc1,Phenyltriethoxysilane,393.15,didier12,1
13791,c1ccc([SiH2]c2ccccc2)cc1,Diphenylsilane,371.15,didier12,1
13792,C=C[Si]1(C)[Si](C)(C=C)[Si](C)(C=C)[Si]1(C)C=C,Tetramethyltetravinylcyclotetrasilane,385.15,didier12,1
13793,CCCCCCCCCCCC[Si](Cl)(Cl)Cl,n-Dodecyltrichlorosilane,435.15,didier12,1
13794,CCCO[Si](OCCC)(OCCC)OCCC,Tetra-n-propoxysilane,368.15,didier12,1
13795,CC[Si](CC)(CC)O[Si](CC)(CC)CC,Hexaethyldisiloxane,349.15,didier12,1
13796,C[Si](C)(C)O[Si](C)(C)O[Si](C)(C)O[Si](C)(C)O[Si](C)(C)C,Dodecamethylpentasiloxane,352.15,didier12,1
13797,C[Si]1(C)O[Si](C)(C)O[Si](C)(C)O[Si](C)(C)O[Si](C)(C)O[Si](C)(C)O1,Dodecamethylcyclohexasiloxane,366.15,didier12,1
13798,C[Si](Cl)(c1ccccc1)c1ccccc1,Methyldiphenylchlorosilane,411.15,didier12,1
13799,CCCCCCCCCCCC[Si](C)(Cl)Cl,n-Dodecylmethyldichlorosilane,416.15,didier12,1
13800,CO[Si](OC)(c1ccccc1)c1ccccc1,Diphenyldimethoxysilane,394.15,didier12,1
13801,CCCCCCCC[Si](OCC)(OCC)OCC,Octyltriethoxysilane,373.15,didier12,1
13802,C[Si](C)(C)O[Si](C)(C)O[Si](C)(C)O[Si](C)(C)O[Si](C)(C)O[Si](C)(C)C,Tetradecamethylhexasiloxane,375.15,didier12,1
13803,C[Si](C)(C)O[Si](C)(C)O[Si](C)(C)O[Si](C)(C)O[Si](C)(C)O[Si](C)(C)O[Si](C)(C)C,Hexadecamethylheptasiloxane,406.15,didier12,1
13804,C[Si](C)(C)O[Si](C)(C)O[Si](C)(C)O[Si](C)(C)O[Si](C)(C)O[Si](C)(C)O[Si](C)(C)O[Si](C)(C)C,Octadecamethyloctasiloxane,417.15,didier12,1
13805,C=C[Si](OCCOC)(OCCOC)OCCOC,Vinyltris(methoxyethoxy)silane,353.15,didier12,1
13806,C=CO[Si](C)(C)C,Trimethyl(vinyloxy)silane,263.15,didier12,1
13807,N#CCCC[Si](Cl)(Cl)Cl,Trichloro(3-cyanopropyl) Silane,365.15,didier12,1
13808,Cl[Si](Cl)(Cl)CCc1ccccc1,Trichloro(2-phenylethyl)silane,364.15,didier12,1
13809,C[Si](C)(Cl)CCC(F)(F)F,"Chlorodimethyl(3,3,3-trifluoropropyl) silane",293.15,didier12,1
13810,C=CC[SiH](O[Si](C)(C)C)O[Si](C)(C)C,Vinylmethylbis (trimethylsiloxy) silane,324.15,didier12,1
13811,ClC[Si](Cl)(Cl)Cl,Trichloro(Chloromethyl) silane,342.15,didier12,1
13812,C[SiH](C)c1c(F)c(F)c(F)c(F)c1F,Dimethyl(pentafluorophenyl) silane,313.15,didier12,1