,smiles,compound,flashpoint,source,pure substance
9179,O=C(O)c1nc(Cl)ccc1Cl,"2-Pyridinecarboxylic acid, 3,6-dichloro-",422.729,le15,1
9180,O=C(O)CC(O)(CC(=O)O)C(=O)O,"1,2,3-Propanetricarboxylic acid, 2-hydroxy-",428.35,le15,1
9181,Cc1cc(=O)oc2cc(O)cc(O)c12,"2H-1-Benzopyran-2-one, 5,7-dihydroxy-4-methyl-",470.95,le15,1
9182,COc1cc2ccc(=O)oc2cc1O,"2H-1-Benzopyran-2-one, 7-hydroxy-6-methoxy- (9CI)",445.55,le15,1
9183,CCOC(=O)CC(=O)c1ccccc1,ethyl 3-oxo-3-phenylpropanoate,386.25,le15,1
9184,CCOC(=O)C1OC1c1ccccc1,"Oxiranecarboxylic acid, 3-phenyl-, ethyl ester",386.15,le15,1
9185,C=CCOC(=O)COc1ccccc1,"Acetic acid, phenoxy-, 2-propenyl ester",408.15,le15,1
9186,C=CCc1cc(OC)c2c(c1)OCO2,"1,3-Benzodioxole, 4-methoxy-6-(2-propenyl)- (9CI)",362.95,le15,1
9187,Cc1cccc2cc3ccccc3cc12,"Anthracene, 1-methyl- (8CI)(9CI)",430.65,le15,1
9188,Cc1c2ccccc2cc2ccccc12,"Anthracene, 9-methyl-",430.65,le15,1
9189,Cc1cccc2c1ccc1ccccc12,"Phenanthrene, 1-methyl-",430.65,le15,1
9190,Cc1cc2ccccc2c2ccccc12,"Phenanthrene, 9-methyl-",430.65,le15,1
9191,Cc1ccc2c(ccc3ccccc32)c1,"Phenanthrene, 2-methyl-",430.65,le15,1
9192,CC(C)CCOC(=O)c1ccccc1,"Isopentyl alcohol, benzoate (6CI,8CI)",382.55,le15,1
9193,CC(C)CC(=O)OCc1ccccc1,"Butanoic acid, 3-methyl-, phenylmethyl ester",372.05,le15,1
9194,CC(C)C(=O)OCCc1ccccc1,"Propanoic acid, 2-methyl-, 2-phenylethyl ester",378.95,le15,1
9195,CCCCOC(=O)Cc1ccccc1,"Acetic acid, phenyl-, butyl ester",377.85,le15,1
9196,CC(=O)OC(C)(C)Cc1ccccc1,"Phenethyl alcohol, alpha,alpha-dimethyl-, acetate",374.95,le15,1
9197,CC(=O)Oc1cc(C)ccc1C(C)C,(5-methyl-2-propan-2-ylphenyl) acetate,367.35,le15,1
9198,CC(C)Cc1ccc(CC(=O)O)cc1,"Benzeneacetic acid, 4-(2-methylpropyl)-",482.45,le15,1
9199,CCCCCOc1ccc(C=O)cc1,"Benzaldehyde, 4-(pentyloxy)-",402.15,le15,1
9200,CC(=O)Oc1cc(C(C)C)ccc1C,(2-methyl-5-propan-2-ylphenyl) acetate,367.75,le15,1
9201,CCCC(=O)OCCc1ccccc1,"Butanoic acid, 2-phenylethyl ester",383.05,le15,1
9202,CCC(=O)OCCCc1ccccc1,"1-Propanol, 3-phenyl-, propionate",390.05,le15,1
9203,CCCCCOC(=O)c1ccccc1,"Benzoic acid, pentyl ester",386.35,le15,1
9204,CC(COCCCO)OCCCO,"Propanol, ((1-methyl-1,2-ethanediyl)bis(oxy))bis-",404.35,le15,1
9205,CCOC(OCC)(OCC)OCC,triethoxymethoxyethane,325.95,le15,1
9206,C=CCNC(=S)Nc1ccccc1,"Thiourea, N-phenyl-N'-2-propenyl-",397.55,le15,1
9207,CC(=O)/C=C/C1C(C)=CCCC1(C)C,"3-Buten-2-one, 4-(2,6,6-trimethyl-2-cyclohexen-1-yl)-, (3E)-",388.15,le15,1
9208,CC(=O)C=CC=C(C)CCC=C(C)C,"3,5,9-Undecatrien-2-one, 6,10-dimethyl-",402.15,le15,1
9209,CCCCCCCc1ccccc1O,"Phenol, 2-heptyl- (9CI)",426.15,le15,1
9210,CCCCC[Si](OC)(OC)OC,"Silane, pentyltrimethoxy-",325.35,le15,1
9211,O=C(O)CCCCCCCCCl,"Nonanoic acid, 9-chloro-",409.05,le15,1
9212,CCCCC(CC)COC(=O)Cl,"Carbonochloridic acid, 2-ethylhexyl ester",354.85,le15,1
9213,COc1cc(Cl)c(Cl)cc1O,"Phenol, 4,5-dichloro-2-methoxy-",394.95,le15,1
9214,N#Cc1c(F)c(F)c(F)c(F)c1F,"2,3,4,5,6-pentafluorobenzonitrile",302.15,le15,1
9215,O=C1OC(=O)c2cc([N+](=O)[O-])ccc21,"1,3-Isobenzofurandione, 5-nitro-",500.65,le15,1
9216,N#Cc1cc([N+](=O)[O-])cc([N+](=O)[O-])c1,"Benzonitrile, 3,5-dinitro-",410.05,le15,1
9217,O=C(O)C=Cc1cccc([N+](=O)[O-])c1,"2-Propenoic acid, 3-(3-nitrophenyl)-",439.65,le15,1
9218,O=C(O)C=Cc1ccccc1[N+](=O)[O-],"Cinnamic acid, o-nitro- (6CI,7CI,8CI)",444.95,le15,1
9219,O=C(O)C=Cc1ccc([N+](=O)[O-])cc1,"2-Propenoic acid, 3-(4-nitrophenyl)-",427.05,le15,1
9220,CNC(=O)Oc1cccc2c1OCC2,"Carbamic acid, methyl-, 2,3-dihydro-7-benzofuranyl ester",412.55,le15,1
9221,N#CC(c1ccccc1)c1ccccc1,"Benzeneacetonitrile, alpha-phenyl-",424.75,le15,1
9222,Nc1c2ccccc2cc2ccccc12,9-Anthracenamine,493.05,le15,1
9223,Nc1cc2ccccc2c2ccccc12,9-Aminophenanthrene,497.55,le15,1
9224,c1ccc(-c2cc3ccccc3[nH]2)cc1,"1H-Indole, 2-phenyl-",449.75,le15,1
9225,C=Cn1c2ccccc2c2ccccc21,"9H-Carbazole, 9-ethenyl-",425.65,le15,1
9226,Nc1ccc2ccc3ccccc3c2c1,3-Aminophenanthrene,502.15,le15,1
9227,Nc1ccc2c(ccc3ccccc32)c1,2-Phenanthrenamine (9CI),502.15,le15,1
9228,Nc1cccc2c1ccc1ccccc12,1-Phenanthrenamine (9CI),497.55,le15,1
9229,CNC(=O)Oc1ccccc1C(C)C,"Phenol, 2-(1-methylethyl)-, methylcarbamate",387.15,le15,1
9230,CNC(=O)Oc1ccc(C)c(C)c1C,"Carbamic acid, methyl-, 2,3,4-trimethylphenyl ester",403.45,le15,1
9231,CCCCOC(=O)c1ccc(N)cc1,"Benzoic acid, 4-amino-, butyl ester",457.75,le15,1
9232,CCCCOC(=O)c1ccccc1N,"Anthranilic acid, butyl ester (6CI,7CI,8CI)",426.35,le15,1
9233,CC(C)COC(=O)c1ccccc1N,"Benzoic acid, 2-amino-, 2-methylpropyl ester",421.05,le15,1
9234,CCOc1cccc(N(CC)CC)c1,"3-ethoxy-N,N-diethylaniline",352.25,le15,1
9235,CCOC(O)C(Cl)(Cl)Cl,"Ethanol, 2,2,2-trichloro-1-ethoxy-",322.0499999999999,le15,1
9236,O=C(Cl)C(Cl)=C(Cl)Cl,"2,3,3-trichloroprop-2-enoyl chloride",305.95,le15,1
9237,FC(F)C(F)(F)Oc1ccccc1,"Benzene, (1,1,2,2-tetrafluoroethoxy)-",318.95,le15,1
9238,COC(=O)c1ccc(C(=O)OC)cc1,"1,4-Benzenedicarboxylic acid, dimethyl ester",421.15,le15,1
9239,CC(=O)OCc1ccc2c(c1)OCO2,"Acetic acid, (3,4-methylenedioxy)benzyl ester",386.15,le15,1
9240,COc1ccc(C=CC(=O)O)cc1O,"2-Propenoic acid, 3-(3-hydroxy-4-methoxyphenyl)-",440.75,le15,1
9241,COc1cc(C=CC(=O)O)ccc1O,"2-Propenoic acid, 3-(4-hydroxy-3-methoxyphenyl)-",423.65,le15,1
9242,COC(=O)c1cccc(C(=O)OC)c1,"dimethyl benzene-1,3-dicarboxylate",411.15,le15,1
9243,COC(=O)c1ccccc1C(=O)OC,"1,2-Benzenedicarboxylic acid, dimethyl ester",423.15,le15,1
9244,CCOC(=O)c1ccc2c(c1)OCO2,"ethyl 1,3-benzodioxole-5-carboxylate",397.25,le15,1
9245,CC(=O)Nc1cccc(N)c1C(=O)O,"Benzoic acid, 2-acetamido-6-amino-",509.25,le15,1
9246,Cn1c(=O)c2c(ncn2C)n(C)c1=O,"1H-Purine-2,6-dione, 3,7-dihydro-1,3,7-trimethyl-",479.017,le15,1
9247,O=C1c2ccccc2Cc2ccccc21,"9,10-Dihydro-9-oxoanthracene",423.45,le15,1
9248,CCCCO[PH](=O)OCCCC,"Phosphonic acid, dibutyl ester",394.15,le15,1
9249,CC(C)COC(=O)c1ccccc1O,"Benzoic acid, 2-hydroxy-, 2-methylpropyl ester",383.15,le15,1
9250,CCCCOC(=O)c1ccc(O)cc1,"Benzoic acid, 4-hydroxy-, butyl ester",402.35,le15,1
9251,Nc1cccc2cc3ccccc3nc12,acridin-4-amine,510.35,le15,1
9252,Nc1ccc2nc3ccccc3cc2c1,2-Acridinamine (9CI),514.3499999999998,le15,1
9253,CC(C)(C)OOC(=O)c1ccccc1,"Benzenecarboperoxoic acid, 1,1-dimethylethyl ester",382.85,le15,1
9254,C(=Nc1ccccc1)=Nc1ccccc1,"N,N'-diphenylmethanediimine",419.25,le15,1
9255,CCCCOC(=O)c1ccccc1O,"Benzoic acid, 2-hydroxy-, butyl ester",380.15,le15,1
9256,COC1=CC(=O)C(=O)C(C(C)(C)C)=C1,"3,5-Cyclohexadiene-1,2-dione, 3-(1,1-dimethylethyl)-5-methoxy-",401.65,le15,1
9257,CC(C)COC(=O)c1ccc(O)cc1,"Benzoic acid, 4-hydroxy-, 2-methylpropyl ester (9CI)",398.55,le15,1
9258,Nc1ccc2cc3ccccc3nc2c1,3-Acridinamine (9CI),514.3499999999998,le15,1
9259,CCOc1ccc(C=O)cc1OCC,"3,4-diethoxybenzaldehyde",402.15,le15,1
9260,OCC1COC(Cc2ccccc2)O1,"1,3-Dioxolane-4-methanol, 2-(phenylmethyl)-",429.65,le15,1
9261,CCOC(=O)c1ccc(OCC)cc1,ethyl 4-ethoxybenzoate,387.15,le15,1
9262,OCCOCCOCCOCCO,"Ethanol, 2,2'-(oxybis(2,1-ethanediyloxy))bis-",449.85,le15,1
9263,CCN(CC)c1ccc([N+](=O)[O-])cc1,"Benzenamine, N,N-diethyl-4-nitro-",418.05,le15,1
9264,CCOc1ccc2nc(N)sc2c1,"Benzothiazole, 2-amino-6-ethoxy- (8CI)",442.25,le15,1
9265,O=C(c1cccs1)c1cccs1,dithiophen-2-ylmethanone,422.25,le15,1
9266,C/C(=C\c1ccccc1)c1ccccc1,[(E)-1-phenylprop-1-en-2-yl]benzene,397.65,le15,1
9267,CCCCCCc1ccc(O)cc1O,"1,3-Benzenediol, 4-hexyl-",428.35,le15,1
9268,CCOC(C)OCCc1ccccc1,"Benzene, (2-(1-ethoxyethoxy)ethyl)-",350.85,le15,1
9269,CC(C)c1ccc(C(C)(C)OO)cc1,1-(2-hydroperoxypropan-2-yl)-4-propan-2-ylbenzene,410.15,le15,1
9270,C1CCC(CCCC2CCCC2)CC1,1-Cyclohexyl-3-cyclopentylpropane,379.05,le15,1
9271,C1CCC(CCC2CCCCC2)CC1,2-cyclohexylethylcyclohexane,379.85,le15,1
9272,FC(F)(F)c1ccc(CCl)cc1,p-Trifluoromethylbenzyl chloride,347.04999999999984,le15,1
9273,CCOC(=O)C(Cl)C(=O)OCC,"Propanedioic acid, chloro-, diethyl ester",376.45,le15,1
9274,O=P(Cl)(Cl)c1ccccc1,dichlorophosphorylbenzene,382.95,le15,1
9275,CCOC(=O)C(Br)CC,"Butyric acid, 2-bromo-, ethyl ester (8CI)",342.65,le15,1
9276,CCOC(=O)CCCBr,"Butanoic acid, 4-bromo-, ethyl ester (9CI)",363.75,le15,1
9277,CC(=O)OCCCCBr,"1-Butanol, 4-bromo-, acetate",382.15,le15,1
9278,COC(=O)CCCCBr,"Valeric acid, 5-bromo-, methyl ester (8CI)",372.55,le15,1
9279,CCOC(=O)C(C)(C)Br,"Propanoic acid, 2-bromo-2-methyl-, ethyl ester",333.15,le15,1
9280,O=C(O)CCCCCBr,"Hexanoic acid, 6-bromo-",340.15,le15,1
9281,CCOC(=O)c1ccc([N+](=O)[O-])cc1,"Benzoic acid, 4-nitro-, ethyl ester",421.35,le15,1
9282,CCOC(=O)c1ccccc1[N+](=O)[O-],ethyl 2-nitrobenzoate,399.25,le15,1
9283,O=[N+]([O-])c1ccc(OCC2CO2)cc1,"Propane, 1,2-epoxy-3-(p-nitrophenoxy)-",450.35,le15,1
9284,CCOC(=O)c1cccc([N+](=O)[O-])c1,ethyl 3-nitrobenzoate,410.15,le15,1
9285,C1=Nc2ccccc2Oc2ccccc21,"Dibenz(b,f)(1,4)oxazepine",398.15,le15,1
9286,O=C1C=CC23C=CC=CC2Nc2ccc4ccccc4c2C3=C1,"7H-Dibenz(a,j)acrid-14-one",428.199,le15,1
9287,c1ccc(-c2nc3ccccc3o2)cc1,"Benzoxazole, 2-phenyl-",391.85,le15,1
9288,O=Nc1ccc2c(c1)Cc1ccccc1-2,"9H-Fluorene, 2-nitroso-",428.25,le15,1
9289,Nc1cccc2nc3ccccc3nc12,1-Phenazinamine (9CI),518.55,le15,1
9290,Nc1ccc2nc3ccccc3nc2c1,2-Phenazinamine (9CI),522.8499999999998,le15,1
9291,Cc1ccc(N=Cc2ccccc2)cc1,N-(4-methylphenyl)-1-phenylmethanimine,418.151,le15,1
9292,Nc1ccc(/C=C/c2ccccc2)cc1,"Benzenamine, 4-(2-phenylethenyl)-, (E)- (9CI)",460.05,le15,1
9293,Cc1ccccc1N=Cc1ccccc1,N-(2-methylphenyl)-1-phenylmethanimine,613.3499999999998,le15,1
9294,Cc1cccc(N=Cc2ccccc2)c1,N-(3-methylphenyl)-1-phenylmethanimine,421.55,le15,1
9295,Cc1cccc(N(CCO)CCO)c1,"Ethanol, 2,2'-((3-methylphenyl)imino)bis-",474.95,le15,1
9296,CN(C1CCCCC1)C1CCCCC1,"Cyclohexanamine, N-cyclohexyl-N-methyl-",383.15,le15,1
9297,ClC(Cl)(Cl)c1ccccc1,"Toluene, alpha,alpha,alpha-trichloro-",370.15,le15,1
9298,ClCc1ccc(Cl)c(Cl)c1,"1,2-dichloro-4-(chloromethyl)benzene",433.35,le15,1
9299,ClCc1ccc(Cl)cc1Cl,"2,4-dichloro-1-(chloromethyl)benzene",463.15,le15,1
9300,Nc1cc(C(F)(F)F)ccc1Cl,"m-Toluidine, 6-chloro-alpha,alpha,alpha-trifluoro-",352.75,le15,1
9301,O=C(CCl)C(Cl)(Cl)Cl,"1,1,1,3-tetrachloropropan-2-one",336.95,le15,1
9302,ClCC(Cl)(CCl)CCl,"2-(Chloromethyl)-1,2,3-trichloropropane",355.04999999999984,le15,1
9303,IC1CCCC1,iodocyclopentane,339.85,le15,1
9304,O=C(OCC(F)(F)F)C(F)(F)F,"2,2,2-trifluoroethyl 2,2,2-trifluoroacetate",273.15,le15,1
9305,O=Cc1c(F)c(F)c(F)c(F)c1F,"Benzaldehyde, pentafluoro- (8CI)(9CI)",350.95,le15,1
9306,COCC(F)(F)C(F)C(F)(F)F,"1,1,1,2,3,3-hexafluoro-4-methoxybutane",275.15,le15,1
9307,O=Cc1ccc([N+](=O)[O-])cc1[N+](=O)[O-],"Benzaldehyde, 2,4-dinitro-",475.65,le15,1
9308,O=Cc1c([N+](=O)[O-])cccc1[N+](=O)[O-],"Benzaldehyde, 2,6-dinitro-",465.25,le15,1
9309,Nc1nnc(-c2ccc([N+](=O)[O-])o2)o1,"1,3,4-Oxadiazole, 2-amino-5-(5-nitro-2-furyl)-",478.05,le15,1
9310,Cc1ccc([N+](=O)[O-])c(C)c1[N+](=O)[O-],"m-Xylene, 2,4-dinitro-",414.35,le15,1
9311,Cc1cc([N+](=O)[O-])cc([N+](=O)[O-])c1C,"Benzene, 1,2-dimethyl-3,5-dinitro-",438.75,le15,1
9312,Cn1c(=O)c2[nH]c(=O)[nH]c2n(C)c1=O,"1H-Purine-2,6,8(3H)-trione, 7,9-dihydro-1,3-dimethyl-",541.55,le15,1
9313,CCOC(=O)c1ccc(O)c(OC)c1,ethyl 4-hydroxy-3-methoxybenzoate,395.55,le15,1
9314,COC(=O)c1ccc(OC)c(OC)c1,"methyl 3,4-dimethoxybenzoate",395.35,le15,1
9315,COc1cc(OC)c(OC)cc1C=O,"Benzaldehyde, 2,4,5-trimethoxy-",422.15,le15,1
9316,[O-][n+]1c2ccccc2nc2ccccc21,"Phenazine, 5-oxide",471.45,le15,1
9317,CCCC(=O)c1cc(O)c(O)cc1O,"1-Butanone, 1-(2,4,5-trihydroxyphenyl)-",488.55,le15,1
9318,COc1cc(C(C)=O)cc(OC)c1O,"Ethanone, 1-(4-hydroxy-3,5-dimethoxyphenyl)- (9CI)",404.85,le15,1
9319,CC(=O)c1ccc(-c2ccccc2)cc1,1-(4-phenylphenyl)ethanone,413.05,le15,1
9320,Cc1ccccc1C(=O)c1ccccc1,(2-methylphenyl)-phenylmethanone,392.15,le15,1
9321,O=C(Cc1ccccc1)c1ccccc1,"1,2-diphenylethanone",410.15,le15,1
9322,c1ccc([C@@H]2O[C@@H]2c2ccccc2)cc1,"Oxirane, 2,3-diphenyl-, cis- (9CI)",382.15,le15,1
9323,Nc1ccc2c(c1)Cc1cc(N)ccc1-2,"9H-Fluorene-2,7-diamine (9CI)",556.75,le15,1
9324,C(=Nc1ccccc1)Nc1ccccc1,"Formamidine, N,N'-diphenyl- (6CI,7CI,8CI)",421.25,le15,1
9325,Cc1ccc(N=Nc2ccccc2)cc1,(4-methylphenyl)-phenyldiazene,431.45,le15,1
9326,CC(C)(c1ccccc1)c1ccccc1,2-phenylpropan-2-ylbenzene,395.05,le15,1
9327,CCC(c1ccccc1)c1ccccc1,1-phenylpropylbenzene,396.55,le15,1
9328,Cc1ccc(Cc2ccc(C)cc2)cc1,"Methane, di-p-tolyl-",408.35,le15,1
9329,CC(Cc1ccccc1)c1ccccc1,1-phenylpropan-2-ylbenzene,385.05,le15,1
9330,CC(C)c1ccc(-c2ccccc2)cc1,"Biphenyl, 4-isopropyl-",406.45,le15,1
9331,c1ccc(CCCc2ccccc2)cc1,3-phenylpropylbenzene,402.35,le15,1
9332,CC(=O)OC(C)(C)C1CC=C(C)CC1,"3-Cyclohexene-1-methanol, alpha,alpha,4-trimethyl-, acetate",356.15,le15,1
9333,CC(=O)OC/C=C(\C)CCC=C(C)C,"2,6-Octadien-1-ol, 3,7-dimethyl-, acetate, (2E)-",372.05,le15,1
9334,CC(=O)O[C@@H]1C[C@H]2CC[C@]1(C)C2(C)C,"Bicyclo(2.2.1)heptan-2-ol, 1,7,7-trimethyl-, acetate, (1R,2R,4R)-rel-",360.95,le15,1
9335,CC(=O)OC/C=C(/C)CCC=C(C)C,"2,6-Octadien-1-ol, 3,7-dimethyl-, acetate, (2Z)-",372.05,le15,1
9336,C=CCOC(=O)CCC1CCCCC1,"Cyclohexanepropanoic acid, 2-propenyl ester",381.85,le15,1
9337,CC(=O)OCC=C(C)CCC=C(C)C,"3,7-dimethylocta-2,6-dienyl acetate",372.05,le15,1
9338,C=CC(C)(CCC=C(C)C)OC(C)=O,"3,7-dimethylocta-1,6-dien-3-yl acetate",473.45,le15,1
9339,CC(=O)OC1CC2CCC1(C)C2(C)C,"(4,7,7-trimethyl-3-bicyclo[2.2.1]heptanyl) acetate",362.05,le15,1
9340,CCCSP(C)SCCC,"Phosphonodithious acid, methyl-, dipropyl ester",382.15,le15,1
9341,CC(=O)CCCC(C)CCC=C(C)C,"9-Undecen-2-one, 6,10-dimethyl-",377.35,le15,1
9342,CO[Si](CCCS)(OC)OC,"1-Propanethiol, 3-(trimethoxysilyl)-",322.0499999999999,le15,1
9343,C1CCN(CCN2CCCCC2)CC1,1-(2-piperidin-1-ylethyl)piperidine,380.85,le15,1
9344,CCCCCCCCC1CCCCC1,octylcyclohexane,378.55,le15,1
9345,CCCCCCCCCC1CCCC1,nonylcyclopentane,377.35,le15,1
9346,C=CCCCCCCCCCCCC,1-Tetradecene,388.75,le15,1
9347,Nc1c(Cl)cc(Cl)cc1Cl,"Benzenamine, 2,4,6-trichloro-",383.25,le15,1
9348,Nc1cc(Cl)c(Cl)cc1Cl,"Aniline, 2,4,5-trichloro- (8CI)",398.05,le15,1
9349,Nc1cc(Cl)c(Cl)c(Cl)c1,"3,4,5-Trichloroaniline",417.35,le15,1
9350,CC1(C)C(=O)N(Cl)C(=O)N1Cl,"2,4-Imidazolidinedione, 1,3-dichloro-5,5-dimethyl-",356.85,le15,1
9351,CC(O)COC(=O)CBr,2-Hydroxypropyl bromoacetate,388.65,le15,1
9352,Clc1ccc(Cl)c2ccccc12,"Naphthalene, 1,4-dichloro-",410.75,le15,1
9353,Clc1ccc2ccccc2c1Cl,"1,2-dichloronaphthalene",414.75,le15,1
9354,Clc1ccc2cc(Cl)ccc2c1,"2,6-dichloronaphthalene",404.85,le15,1
9355,Clc1ccc2cccc(Cl)c2c1,"1,7-dichloronaphthalene",405.25,le15,1
9356,Clc1cc(Cl)c2ccccc2c1,"1,3-dichloronaphthalene",412.65,le15,1
9357,ClCCCCCCCCCCl,"1,9-dichlorononane",371.15,le15,1
9358,Cc1cc(N)c([N+](=O)[O-])cc1[N+](=O)[O-],"Benzenamine, 4,6-dinitro-3-methyl- (9CI)",475.65,le15,1
9359,N[C@@H](Cc1ccc(O)c(O)c1)C(=O)O,"Alanine, 3-(3,4-dihydroxyphenyl)-, L-",498.15,le15,1
9360,COC(OC)c1ccccc1[N+](=O)[O-],"Benzene, 1-(dimethoxymethyl)-2-nitro-",372.05,le15,1
9361,Nc1ccc(NCCO)c([N+](=O)[O-])c1,"Ethanol, 2-((4-amino-2-nitrophenyl)amino)-",505.05,le15,1
9362,Cc1ccc(S(=O)(=O)N=C=O)cc1,"Benzenesulfonyl isocyanate, 4-methyl-",401.65,le15,1
9363,ONc1ccc2c(c1)Cc1ccccc1-2,"9H-Fluoren-2-amine, N-hydroxy- (9CI)",458.95,le15,1
9364,Oc1ccc(N=Cc2ccccc2)cc1,"Phenol, 4-((phenylmethylene)amino)- (9CI)",512.15,le15,1
9365,Nc1ccc(C(=O)c2ccccc2)cc1,"Methanone, (4-aminophenyl)phenyl-",416.15,le15,1
9366,c1ccc(N=NNc2ccccc2)cc1,"1-Triazene, 1,3-diphenyl-",411.35,le15,1
9367,CCNc1nc(O)nc(NC(C)C)n1,"s-Triazin-2-ol, 4-(ethylamino)-6-(isopropylamino)- (7CI,8CI)",392.85,le15,1
9368,c1ccc(CNCc2ccccc2)cc1,N-benzyl-1-phenylmethanamine,416.45,le15,1
9369,Cc1ccc(Nc2ccc(C)cc2)cc1,4-methyl-N-(4-methylphenyl)aniline,440.75,le15,1
9370,c1ccc(CCCc2ccncc2)cc1,4-(3-phenylpropyl)pyridine,386.15,le15,1
9371,Cc1ccccc1NCc1ccccc1,N-benzyl-2-methylaniline,429.45,le15,1
9372,Cc1ccc(NCc2ccccc2)cc1,N-benzyl-4-methylaniline,425.95,le15,1
9373,NC(Cc1ccccc1)c1ccccc1,"1,2-diphenylethanamine",409.95,le15,1
9374,O=C1CCCCCCCCCCCN1,Azacyclotridecan-2-one,461.35,le15,1
9375,CCCCCCCCN1CCCC1=O,"2-Pyrrolidinone, 1-octyl-",402.15,le15,1
9376,Oc1c(Cl)cc(Cl)cc1Cl,"Phenol, 2,4,6-trichloro-",369.05,le15,1
9377,Oc1c(Cl)ccc(Cl)c1Cl,"Phenol, 2,3,6-trichloro-",366.45,le15,1
9378,Oc1cc(Cl)cc(Cl)c1Cl,"Phenol, 2,3,5-trichloro-",378.25,le15,1
9379,Oc1cc(Cl)c(Cl)cc1Cl,"Phenol, 2,4,5-trichloro-",381.05,le15,1
9380,CCn1c(=O)oc2ccc(Cl)cc21,"2-Benzoxazolinone, 5-chloro-3-ethyl-",412.45,le15,1
9381,O=C(CCCl)NCc1ccccc1,"Propanamide, 3-chloro-N-(phenylmethyl)- (9CI)",460.95,le15,1
9382,O=C=Nc1ccc(Br)cc1,"Isocyanic acid, p-bromophenyl ester (6CI,7CI,8CI)",382.15,le15,1
9383,Clc1cc(Cl)c2ccccc2n1,"2,4-Dichlorochinoline",427.35,le15,1
9384,CC(C)CCI,"Butane, 1-iodo-3-methyl-",319.15,le15,1
9385,CCCC(C)I,2-iodopentane,317.75,le15,1
9386,CCCCCI,1iodopentane,316.0,le15,1
9387,COc1c(F)c(F)c(F)c(F)c1F,"1,2,3,4,5-pentafluoro-6-methoxybenzene",305.35,le15,1
9388,OCc1c(F)c(F)c(F)c(F)c1F,"Benzenemethanol, 2,3,4,5,6-pentafluoro- (9CI)",360.15,le15,1
9389,Cc1c(O)cc([N+](=O)[O-])cc1[N+](=O)[O-],"Phenol, 2-methyl-3,5-dinitro- (9CI)",431.35,le15,1
9390,Cc1cc([N+](=O)[O-])c(O)c([N+](=O)[O-])c1,"Phenol, 4-methyl-2,6-dinitro-",390.85,le15,1
9391,O=[N+]([O-])c1ccc(CO)c([N+](=O)[O-])c1,"Benzyl alcohol, 2,4-dinitro-",444.35,le15,1
9392,COc1ccc([N+](=O)[O-])cc1[N+](=O)[O-],"Anisole, 2,4-dinitro- (8CI)",453.65,le15,1
9393,Cc1cc([N+](=O)[O-])cc([N+](=O)[O-])c1O,"Phenol, 2-methyl-4,6-dinitro-",422.35,le15,1
9394,NNc1ccc([N+](=O)[O-])cc1[N+](=O)[O-],"Hydrazine, (2,4-dinitrophenyl)-",455.95,le15,1
9395,NC(=O)NN=Cc1ccc([N+](=O)[O-])o1,"Hydrazinecarboxamide, 2-((5-nitro-2-furanyl)methylene)-",275.15,le15,1
9396,O=C1OC(=O)c2cccc3cccc1c23,"Naphthalene-1,8-dicarboxylic anhydride",479.95,le15,1
9397,O=Cc1ccc(Oc2ccccc2)cc1,"Benzaldehyde, 4-phenoxy- (9CI)",385.15,le15,1
9398,O=C(c1ccccc1)c1ccc(O)cc1,"Benzophenone, 4-hydroxy- (6CI,7CI,8CI)",429.85,le15,1
9399,OC1c2ccccc2Oc2ccccc21,9H-Xanthen-9-ol,429.75,le15,1
9400,O=C(O)c1ccccc1-c1ccccc1,2-phenylbenzoic acid,616.65,le15,1
9401,O=NN(c1ccccc1)c1ccccc1,"Benzenamine, N-nitroso-N-phenyl-",436.55,le15,1
9402,COc1ccccc1OCC(O)CO,"1,2-Propanediol, 3-(2-methoxyphenoxy)-",442.75,le15,1
9403,[O-][N+](=Nc1ccccc1)c1ccccc1,"Diazene, diphenyl-, 1-oxide",430.15,le15,1
9404,C=COC(=O)CCCCC(=O)OC=C,"Hexanedioic acid, diethenyl ester (9CI)",395.35,le15,1
9405,CCC1(CC)C(=O)NC(=O)N(C)C1=O,"2,4,6(1H,3H,5H)-Pyrimidinetrione, 5,5-diethyl-1-methyl-",409.55,le15,1
9406,ClC(Cl)(Cl)Br,"Methane, bromotrichloro-",291.75,le15,1
9407,c1ccc(COCc2ccccc2)cc1,"Benzene, 1,1'-(oxybis(methylene))bis-",408.15,le15,1
9408,Cc1ccccc1Oc1ccccc1C,1-methyl-2-(2-methylphenoxy)benzene,387.45,le15,1
9409,CCOc1cccc(-c2ccccc2)c1,"1,1-Biphenyl, 3-ethoxy-",393.85,le15,1
9410,Nc1c2c(nc3ccccc13)CCCC2,"9-Acridinamine, 1,2,3,4-tetrahydro- (9CI)",503.65,le15,1
9411,CCCCCCC#COC(=O)OCC,"Carbonic acid, ethyl octynyl ester",372.55,le15,1
9412,c1ccc2c(c1)Cc1ccccc1S2,9H-thioxanthene,419.45,le15,1
9413,Cc1ccc2c(C)ccc(C(C)C)c2c1,"1,6-dimethyl-4-propan-2-ylnaphthalene",413.45,le15,1
9414,Cc1ccc(C(C)C)cc2c(C)ccc1-2,"Azulene, 1,4-dimethyl-7-(1-methylethyl)-",386.15,le15,1
9415,CC(=O)OC1CCCCC1C(C)(C)C,"Cyclohexanol, 2-(1,1-dimethylethyl)-, acetate",363.95,le15,1
9416,CC(=O)O[C@H]1C[C@@H](C)CC[C@@H]1C(C)C,"[(1S,2R,5S)-5-methyl-2-propan-2-ylcyclohexyl] acetate",360.15,le15,1
9417,C=CCCCCCCCCC(=O)OC,methyl undec-10-enoate,372.45,le15,1
9418,C=C(C)CCCC(C)CCOC(C)=O,"7-Octen-1-ol, 3,7-dimethyl-, acetate",359.95,le15,1
9419,CC(=O)OCCC(C)CCC=C(C)C,"6-Octen-1-ol, 3,7-dimethyl-, acetate",361.35,le15,1
9420,CC(=O)OC1CC(C)CCC1C(C)C,"Cyclohexanol, 5-methyl-2-(1-methylethyl)-, acetate (8CI)",365.35,le15,1
9421,CC(C)=CCCC(C)CCOCC=O,"Acetaldehyde, ((3,7-dimethyl-6-octenyl)oxy)-",365.85,le15,1
9422,CN(C)C(=O)NC1CCCCCCC1,"Urea, 3-cyclooctyl-1,1-dimethyl-",444.35,le15,1
9423,N=C(N)NCCN1CCCCCCC1,"Guanidine, (2-(hexahydro-1(2H)-azocinyl)ethyl)-",435.95,le15,1
9424,CCCCCCC(=O)CCCCCC,Tridecan-7-one,352.85,le15,1
9425,CCCCCCCCCCCC(C)=O,2-Tridecanone,356.45,le15,1
9426,C1CCC(SC2CCCCC2)CC1,cyclohexylsulfanylcyclohexane,396.25,le15,1
9427,Oc1c(Cl)cnc(Cl)c1Cl,"4-Pyridinol, 2,3,5-trichloro-",372.95,le15,1
9428,O=c1[nH]c(Cl)c(Cl)cc1Cl,"3,5,6-Trichloro-2(1H)-pyridinone",381.05,le15,1
9429,CN(C)C(=O)Nc1ccc(Cl)cc1,"Urea, N'-(4-chlorophenyl)-N,N-dimethyl-",443.95,le15,1
9430,CCO[Si](Cl)(OCC)OCC,chloro(triethoxy)silane,313.25,le15,1
9431,N#CC(Br)Br,"Acetonitrile, dibromo-",305.0499999999999,le15,1