,smiles,compound,flashpoint,source,pure substance
11198,O=C(O)c1cc2c(c3c1c([N+](=O)[O-])cc1ccccc13)OCO2,"Phenanthro(3,4-d)-1,3-dioxole-5-carboxylic acid, 6-nitro-",585.05,le15,1
11199,Cc1ccc(S(=O)(=O)Nc2nnc(CC(C)C)s2)cc1,"p-Toluenesulfonamide, N-(5-isobutyl-1,3,4-thiadiazol-2-yl)-",507.95,le15,1
11200,OC(CCN1CCCCC1)(c1ccccc1)C1CC2C=CC1C2,"1-Piperidinepropanol, alpha-bicyclo(2.2.1)hept-5-en-2-yl-alpha-phenyl-",497.65,le15,1
11201,CC(C)COC(=O)COc1cc(Cl)c(Cl)cc1Cl,"Acetic acid, (2,4,5-trichlorophenoxy)-, 2-methylpropyl ester",412.25,le15,1
11202,O=c1c2ccccc2[nH]c2cc3c(=O)c4ccccc4[nH]c3cc12,"Quino(2,3-b)acridine-7,14-dione, 5,12-dihydro-",494.45,le15,1
11203,CCCCOC(=O)c1ccccc1C(=O)OCc1ccccc1,"1,2-Benzenedicarboxylic acid, butyl phenylmethyl ester",471.45,le15,1
11204,C#C[C@@]1(O)CC[C@H]2[C@@H]3CCC4=CC(=O)CC[C@]4(C)[C@H]3CC[C@@]21C,"Pregn-4-en-20-yn-3-one, 17-hydroxy-, (17alpha)- (9CI)",463.35,le15,1
11205,CCN(CC)C(C)CN1c2ccccc2Sc2ccccc21,"10H-Phenothiazine-10-ethanamine, N,N-diethyl-alpha-methyl-",487.05,le15,1
11206,CCCCCCCCCCCCCCCCCC(=O)OCC,"Octadecanoic acid, ethyl ester",434.15,le15,1
11207,CCCCCCCCCCCCCCCCCCCC(=O)O,icosanoic acid,442.85,le15,1
11208,ClC(Cl)(Cl)c1ccc(C(Cl)(Cl)Cl)cc1,"p-Xylene, alpha,alpha,alpha,alpha',alpha',alpha'-hexachloro-",426.15,le15,1
11209,CC(=O)Nc1ccc(OC(=O)c2ccccc2OC(C)=O)cc1,"Benzoic acid, 2-(acetyloxy)-, 4-(acetylamino)phenyl ester (9CI)",552.15,le15,1
11210,Cc1ccc2c(c1Nc1ccccc1)C(=O)c1ccccc1C2=O,2-Methyl-1-(phenylamino)anthraquinone,464.95,le15,1
11211,CN(C)c1ccc(Cn2cnc3c2c(=O)n(C)c(=O)n3C)cc1,"Theophylline, 7-(p-(dimethylamino)benzyl)-",551.05,le15,1
11212,Cc1c(I)c(=O)n(-c2ccccc2)n1C,"3H-Pyrazol-3-one, 1,2-dihydro-4-iodo-1,5-dimethyl-2-phenyl-",424.05,le15,1
11213,O=C(O)c1ccccc1.O=C(O)c1ccccc1.OCCOCCO,"Ethanol, 2,2'-oxybis-, dibenzoate",446.15,le15,1
11214,CC(=O)OCc1c2ccccc2c(C)c2c1ccc1ccccc12,"Benz(a)anthracene-7-methanol, 12-methyl-, acetate",474.85,le15,1
11215,CC(=O)[C@H]1CC[C@H]2[C@@H]3CCC4=CC(=O)CC[C@]4(C)[C@H]3CC[C@]12C,"Pregn-4-ene-3,20-dione",439.85,le15,1
11216,CCCCOC(=O)CCCCCCCCC(=O)OCCCC,"Decanedioic acid, dibutyl ester",430.65,le15,1
11217,CCCCCCOC(=O)CCCCC(=O)OCCCCCC,dihexyl hexanedioate,430.65,le15,1
11218,CCCCSP(=O)(SCCCC)SCCCC,"Phosphorotrithioic acid, S,S,S-tributyl ester",473.55,le15,1
11219,Brc1ccc(Br)c(Br)c1,"Benzene, 1,2,4-tribromo-",393.15,le15,1
11220,Brc1cc(Br)cc(Br)c1,"Benzene, 1,3,5-tribromo-",388.65,le15,1
11221,CCOP(=S)(OCC)Oc1ccc(Cl)cc1Cl,"Phosphorothioic acid, O-(2,4-dichlorophenyl) O,O-diethyl ester",373.15,le15,1
11222,O=C1c2cc([N+](=O)[O-])ccc2-c2c1cc([N+](=O)[O-])cc2[N+](=O)[O-],"9H-Fluoren-9-one, 2,4,7-trinitro-",565.45,le15,1
11223,Cc1cc(Cl)cc(Sc2cc(Cl)cc(C)c2O)c1O,"Phenol, 2,2'-thiobis(4-chloro-6-methyl- (9CI)",485.85,le15,1
11224,O=C(Nc1ccc(Cl)cc1)Nc1ccc(Cl)c(Cl)c1,"Urea, N-(4-chlorophenyl)-N'-(3,4-dichlorophenyl)-",435.15,le15,1
11225,O=C1CN=C(c2ccccc2Cl)c2cc([N+](=O)[O-])ccc2N1,"2H-1,4-Benzodiazepin-2-one, 5-(2-chlorophenyl)-1,3-dihydro-7-nitro-",544.15,le15,1
11226,O=C1CN=C(c2ccccn2)c2cc(Br)ccc2N1,"2H-1,4-Benzodiazepin-2-one, 7-bromo-1,3-dihydro-5-(2-pyridinyl)-",523.75,le15,1
11227,CN(c1ccc(Cl)cc1)S(=O)(=O)c1ccc(Cl)cc1,"Benzenesulfonanilide, 4,4'-dichloro-N-methyl-",495.85,le15,1
11228,COc1cc(-c2oc3cc(O)cc(O)c3c(=O)c2O)ccc1O,"4H-1-Benzopyran-4-one, 3,5,7-trihydroxy-2-(4-hydroxy-3-methoxyphenyl)-",500.95,le15,1
11229,Cc1c(N=[N+]([O-])c2cccc([N+](=O)[O-])c2C)cccc1[N+](=O)[O-],"Diazene, bis(2-methyl-3-nitrophenyl)-, 1-oxide",535.05,le15,1
11230,Oc1c(Br)ccc2c(O)c(Br)ccc12,"1,5-Naphthalenediol, 2,6-dibromo-",467.35,le15,1
11231,ClC(Cl)=C(c1ccc(Cl)cc1)c1ccccc1Cl,"Benzene, 1-chloro-2-(2,2-dichloro-1-(4-chlorophenyl)ethenyl)- (9CI)",454.95,le15,1
11232,O=C1OC(c2ccc(O)cc2)(c2ccc(O)cc2)c2ccccc21,"1(3H)-Isobenzofuranone, 3,3-bis(4-hydroxyphenyl)-",479.65,le15,1
11233,O=C(Oc1ccccc1)c1ccccc1C(=O)Oc1ccccc1,"1,2-Benzenedicarboxylic acid, diphenyl ester",528.45,le15,1
11234,c1ccc2oc(-c3ccc(-c4nc5ccccc5o4)s3)nc2c1,"Benzoxazole, 2,2'-(2,5-thiophenediyl)bis-",509.05,le15,1
11235,O=[N+]([O-])c1ccc(Oc2c(Cl)cc(Cl)cc2Cl)cc1,"Ether, p-nitrophenyl 2,4,6-trichlorophenyl",450.95,le15,1
11236,CN(C)CCCN1c2ccccc2Sc2ccc(Cl)cc21,"10H-Phenothiazine-10-propanamine, 2-chloro-N,N-dimethyl-",499.15,le15,1
11237,CN(C)CCC(c1ccc(Br)cc1)c1ccccn1,"2-Pyridinepropanamine, gamma-(4-bromophenyl)-N,N-dimethyl-",470.65,le15,1
11238,CCCCCCCCCCCCCCCCCBr,1-bromoheptadecane,418.55,le15,1
11239,O=C1OC(OC2OC(=O)C(Cl)=C2Cl)C(Cl)=C1Cl,"2(5H)-Furanone, 5,5'-oxybis(3,4-dichloro-",498.55,le15,1
11240,Clc1ccc(C(c2ccccc2Cl)C(Cl)Cl)cc1,"Ethane, 1,1-dichloro-2-(o-chlorophenyl)-2-(p-chlorophenyl)- (8CI)",467.35,le15,1
11241,CC(C)[C@H](NC(=O)COc1ccc(Cl)cc1Cl)C(=O)O,"L-Valine, N-((2,4-dichlorophenoxy)acetyl)- (9CI)",553.75,le15,1
11242,COP(=O)(OC1CCCCC1)Sc1ccc(Cl)cc1,"Phosphorothioic acid, O-cyclohexyl O-methyl S-(4-chlorophenyl) ester",471.75,le15,1
11243,Brc1cc(Br)c(Br)s1,"2,3,5-tribromothiophene",387.65,le15,1
11244,CCCCOCCOC(=O)COc1ccc(Cl)cc1Cl,"Acetic acid, (2,4-dichlorophenoxy)-, 2-butoxyethyl ester (8CI,9CI)",426.05,le15,1
11245,COP(=S)(OC)Oc1cc(Cl)c(Cl)cc1Cl,"Phosphorothioic acid, O,O-dimethyl O-(2,4,5-trichlorophenyl) ester",435.45,le15,1
11246,Clc1cc2c(cc1Cl)Oc1cc(Cl)c(Cl)cc1O2,"Dibenzo(b,e)(1,4)dioxin, 2,3,7,8-tetrachloro-",437.35,le15,1
11247,O=C(O)CN(CC(=O)O)CC(O)CN(CC(=O)O)CC(=O)O,"Glycine, N,N'-(2-hydroxy-1,3-propanediyl)bis(N-(carboxymethyl)-",628.75,le15,1
11248,CCC(C)c1cc([N+](=O)[O-])cc([N+](=O)[O-])c1OC(=O)C=C(C)C,"2-Butenoic acid, 3-methyl-, 2-(1-methylpropyl)-4,6-dinitrophenyl ester",444.85,le15,1
11249,CCCCC(CC)COP(=O)([O-])OCC(CC)CCCC,"Phosphoric acid, bis(2-ethylhexyl) ester",464.85,le15,1
11250,CCCCCCCCCCCCCCCCCC1CCCCC1,heptadecylcyclohexane,461.25,le15,1
11251,CCCCCCCC/C=C\CCCCCCCCCCCCC,"9-Tricosene, (9Z)-",482.05,le15,1
11252,O=C1OC(C(Cl)(Cl)Cl)OC1C(Cl)(Cl)Cl,"2,5-bis(trichloromethyl)-1,3-dioxolan-4-one",395.05,le15,1
11253,CCOP(=S)(Oc1ccc([N+](=O)[O-])cc1)c1ccccc1,"Phosphonothioic acid, phenyl-, O-ethyl O-(4-nitrophenyl) ester",489.75,le15,1
11254,Cc1ccc2c(c1)C(N1CCN(C)CC1)=Nc1ccccc1S2,"Dibenzo(b,f)(1,4)thiazepine, 2-methyl-11-(4-methyl-1-piperazinyl)-",513.3499999999998,le15,1
11255,FC(F)(F)c1nc2c(Cl)c(Cl)c(Cl)c(Cl)c2[nH]1,"1H-Benzimidazole, 4,5,6,7-tetrachloro-2-(trifluoromethyl)-",468.55,le15,1
11256,Clc1ccc(Sc2cc(Cl)c(Cl)cc2Cl)cc1,"Benzene, 1,2,4-trichloro-5-((4-chlorophenyl)thio)-",459.05,le15,1
11257,CCC(C(c1ccc(Cl)cc1)c1ccc(Cl)cc1)[N+](=O)[O-],"Butane, 1,1-bis(p-chlorophenyl)-2-nitro-",495.85,le15,1
11258,CN(C)CCCNc1c2ccccc2nc2cccc([N+](=O)[O-])c12,"1,3-Propanediamine, N,N-dimethyl-N'-(1-nitro-9-acridinyl)- (9CI)",542.65,le15,1
11259,C=C[C@H]1CN2CC[C@H]1C[C@@H]2[C@@H](O)c1ccnc2ccc(OC)cc12,"Cinchonan-9-ol, 6'-methoxy-, (9S)-",526.8499999999998,le15,1
11260,CCCCCCCCCCCCCCCCCCCCCCC,tricosane,495.95,le15,1
11261,CC(=O)OCC(Br)(Br)Br,"2,2,2-tribromoethyl acetate",402.85,le15,1
11262,OCC(CBr)(CBr)CBr,"1-Propanol, 3-bromo-2,2-bis(bromomethyl)- (8CI)(9CI)",426.95,le15,1
11263,CCOP(=S)(OCC)Oc1ccc([N+](=O)[O-])c(Cl)c1,"Phosphorothioic acid, O-(3-chloro-4-nitrophenyl) O,O-diethyl ester",464.65,le15,1
11264,CCC1NSc2cc(S(N)(=O)=O)c(Cl)cc2N1,"2H-1,2,4-Benzothiadiazine-7-sulfonamide, 6-chloro-3-ethyl-3,4-dihydro-",567.75,le15,1
11265,O=C1c2ccccc2C(=O)c2c(NCCO)ccc(NCCO)c21,"Anthraquinone, 1,4-bis((2-hydroxyethyl)amino)- (6CI,7CI,8CI)",623.55,le15,1
11266,COc1ccc(-c2nc(-c3ccccc3)c(-c3ccccc3)[nH]2)cc1,"2-(4-Methoxyphenyl)-4,5-diphenyl-1H-imidazole",461.95,le15,1
11267,O=C(CCCN1CCN(c2ccccc2)CC1)c1ccc(F)cc1,"1-Butanone, 1-(4-fluorophenyl)-4-(4-phenyl-1-piperazinyl)- (9CI)",517.95,le15,1
11268,CCCCCCCCOc1ccc(C(=O)c2ccccc2)c(O)c1,"Methanone, (2-hydroxy-4-(octyloxy)phenyl)phenyl-",428.25,le15,1
11269,c1ccc2c(c1)Sc1ccccc1N2CCCN1CCOCC1,"10H-Phenothiazine, 10-(3-(4-morpholinyl)propyl)-",521.25,le15,1
11270,CN1CCN(C2=Nc3cc(Cl)ccc3Nc3ccccc32)CC1,"5H-Dibenzo(b,e)(1,4)diazepine, 8-chloro-11-(4-methyl-1-piperazinyl)-",522.785,le15,1
11271,O=C(Nc1ccc([N+](=O)[O-])cc1Cl)c1cc(Cl)ccc1O,"Benzamide, 5-chloro-N-(2-chloro-4-nitrophenyl)-2-hydroxy-",483.65,le15,1
11272,C=CCN1CC[C@]23c4c5ccc(O)c4O[C@H]2C(=O)CC[C@@]3(O)[C@H]1C5,"Morphinan-6-one, 17-allyl-4,5alpha-epoxy-3,14-dihydroxy- (8CI)",549.25,le15,1
11273,O=C(CCCN1CCN(c2ccccn2)CC1)c1ccc(F)cc1,"1-Butanone, 1-(4-fluorophenyl)-4-(4-(2-pyridinyl)-1-piperazinyl)-",529.05,le15,1
11274,CC(Cl)CO.CC(Cl)CO.CC(Cl)CO.O=P(O)(O)O,"1-Propanol, 2-chloro-, phosphate (3:1)",522.8499999999998,le15,1
11275,O=[N+]([O-])c1ccc(N=Nc2c(O)ccc3ccccc23)c(Cl)c1,"2-Naphthalenol, 1-(2-(2-chloro-4-nitrophenyl)diazenyl)-",564.95,le15,1
11276,CN1CCN(C2=Nc3ccccc3Oc3ccc(Cl)cc32)CC1,"Dibenz(b,f)(1,4)oxazepine, 2-chloro-11-(4-methyl-1-piperazinyl)-",504.25,le15,1
11277,Brc1ccc(Oc2ccc(Br)cc2)cc1,1-bromo-4-(4-bromophenoxy)benzene,413.45,le15,1
11278,O=c1occc2c1c(=O)oc1c2ccc2oc3occc3c21,"1H,12H-Furo(3',2':4,5)furo(2,3-h)pyrano(3,4-c)(1)benzopyran-1,12-dione",547.3499999999998,le15,1
11279,COc1ccc2c(c1)N(CC(C)CN(C)C)c1ccccc1S2,"10H-Phenothiazine-10-propanamine, 2-methoxy-N,N,beta-trimethyl-, (-)-",509.95,le15,1
11280,CCN(CC)CCSC(=O)N(c1ccccc1)c1ccccc1,"Carbamothioic acid, diphenyl-, S-(2-(diethylamino)ethyl) ester",494.15,le15,1
11281,CCC=CCC=CCC=CCC=CCC=CCC=CCCC(=O)O,"4,7,10,13,16,19-Docosahexaenoic acid",616.55,le15,1
11282,Cc1c(Br)cc(Br)cc1Br,"1,3,5-tribromo-2-methylbenzene",400.75,le15,1
11283,NS(=O)(=O)c1cc2c(cc1Cl)CN(C1CCCCC1)C2=O,"1H-Isoindole-5-sulfonamide, 6-chloro-2-cyclohexyl-2,3-dihydro-3-oxo-",576.05,le15,1
11284,Cc1ccc(Nc2ccc(O)c3c2C(=O)c2ccccc2C3=O)cc1,"9,10-Anthracenedione, 1-hydroxy-4-((4-methylphenyl)amino)-",541.8499999999998,le15,1
11285,c1ccc(C(c2ccccc2)(c2ccccc2)N2CCOCC2)cc1,"Morpholine, 4-(triphenylmethyl)-",399.65,le15,1
11286,CC(Cc1ccccc1)NCCC(c1ccccc1)c1ccccc1,"Benzenepropanamine, N-(1-methyl-2-phenylethyl)-gamma-phenyl-",492.55,le15,1
11287,Nc1c(Br)cc(Br)cc1Br,"2,4,6-tribromoaniline",406.05,le15,1
11288,Ic1cccc(I)c1,"1,3-diiodobenzene",418.35,le15,1
11289,Clc1ccc(C(OCCN2CCCCC2)c2ccccc2)cc1,"Piperidine, 1-(2-((4-chlorophenyl)phenylmethoxy)ethyl)- (9CI)",483.35,le15,1
11290,Ic1ccc(I)cc1,"1,4-diiodobenzene",410.85,le15,1
11291,O=C1c2c(O)ccc([N+](=O)[O-])c2C(=O)c2c([N+](=O)[O-])ccc(O)c21,"9,10-Anthracenedione, 1,8-dihydroxy-4,5-dinitro-",554.05,le15,1
11292,CC1CCCCN1CCCOC(=O)c1ccc(Cl)c(Cl)c1,"Benzoic acid, 3,4-dichloro-, 3-(2-methylpiperidino)propyl ester",486.15,le15,1
11293,O=c1occc2c1c(=O)oc1c2ccc2oc3occc3c21,"1H,12H-Furo(3',2':4,5)furo(2,3-h)pyrano(3,4-c)(1)benzopyran-1,12-dione",542.75,le15,1
11294,C=CCOC(=O)c1ccc(C(=O)OCC=C)c(C(=O)OCC=C)c1,"1,2,4-Benzenetricarboxylic acid, triallyl ester (7CI,8CI)",464.45,le15,1
11295,[CH2]COCCOCCOCCOC(=O)C(=C)C,2-[2-[2-[2-(2-methylprop-2-enoyloxy)ethoxy]ethoxy]ethoxy]ethyl,449.55,le15,1
11296,O=C(OC1CCCCC1)c1ccccc1C(=O)OC1CCCCC1,"1,2-Benzenedicarboxylic acid, dicyclohexyl ester",479.75,le15,1
11297,CC(=O)[C@@]1(O)CC[C@H]2[C@@H]3CCC4=CC(=O)CC[C@]4(C)[C@H]3CC[C@@]21C,"Pregn-4-ene-3,20-dione, 17-hydroxy-",533.05,le15,1
11298,CN(C)c1ccc(C(c2ccccc2)c2ccc(N(C)C)cc2)cc1,"Aniline, 4,4'-benzylidenebis(N,N-dimethyl- (8CI)",487.75,le15,1
11299,CCCCCCCCCCCCCCCCCCc1ccccc1,octadecylbenzene,459.25,le15,1
11300,NS(=O)(=O)c1cc(C(=O)O)c(NCc2ccco2)cc1Cl,"Benzoic acid, 5-(aminosulfonyl)-4-chloro-2-((2-furanylmethyl)amino)-",579.05,le15,1
11301,Oc1c(Br)cc(Br)cc1Br,"Phenol, 2,4,6-tribromo-",382.85,le15,1
11302,COP(=O)(OC)OC(=CCl)c1ccc(Cl)cc1Cl,"Phosphoric acid, 2-chloro-1-(2,4-dichlorophenyl)ethenyl dimethyl ester",535.95,le15,1
11303,COP(=O)(OC)OC(=CCl)c1cc(Cl)ccc1Cl,"Phosphoric acid, 2-chloro-1-(2,5-dichlorophenyl)ethenyl dimethyl ester",534.45,le15,1
11304,BrC(Br)(Br)Br,tetrabromomethane,338.5630000000001,le15,1
11305,COC(=O)c1c(Cl)c(Cl)c(C(=O)OC)c(Cl)c1Cl,"1,4-Benzenedicarboxylic acid, 2,3,5,6-tetrachloro-, dimethyl ester",447.85,le15,1
11306,O=c1c2ccccc2c2ccc3c(=O)c4ccccc4c4ccc1c2c34,"Dibenzo(b,def)chrysene-7,14-dione",493.05,le15,1
11307,c1ccc(C(=C(c2ccccc2)c2ccccc2)c2ccccc2)cc1,"1,2,2-triphenylethenylbenzene",479.35,le15,1
11308,c1ccc2sc(SSc3nc4ccccc4s3)nc2c1,Di(benzothiazol-2-yl) disulphide,548.95,le15,1
11309,CCC(C)CC(CC)Nc1ccc(NC(CC)CC(C)CC)cc1,"1,4-Benzenediamine, N,N'-bis(1-ethyl-3-methylpentyl)-",523.25,le15,1
11310,CCN(CC)c1ccc(N=Nc2ccc([N+](=O)[O-])cc2Cl)cc1,"4-((2-Chloro-4-nitrophenyl)azo)-N,N-diethylbenzenamine",526.75,le15,1
11311,CN(C)S(=O)(=O)NSC(F)(Cl)Cl,"Methanesulfenamide, 1,1-dichloro-N-((dimethylamino)sulfonyl)-1-fluoro-",430.65,le15,1
11312,CCCCC(CC)COC(=O)COc1ccc(Cl)cc1Cl,"Acetic acid, (2,4-dichlorophenoxy)-, 2-ethylhexyl ester",410.15,le15,1
11313,CCCCCCCCOC(=O)COc1ccc(Cl)cc1Cl,"octyl 2-(2,4-dichlorophenoxy)acetate",412.75,le15,1
11314,CCOP(=S)(CC)Oc1cc(Cl)c(Cl)cc1Cl,"Phosphonothioic acid, ethyl-, O-ethyl O-(2,4,5-trichlorophenyl) ester",451.95,le15,1
11315,Fc1c(F)c(F)c(-c2c(F)c(F)c(F)c(F)c2F)c(F)c1F,"1,2,3,4,5-pentafluoro-6-(2,3,4,5,6-pentafluorophenyl)benzene",341.65,le15,1
11316,Clc1nc(C(Cl)(Cl)Cl)c(Cl)c(Cl)c1Cl,"Pyridine, 2,3,4,5-tetrachloro-6-(trichloromethyl)-",451.55,le15,1
11317,O=[N+]([O-])c1ccc(-c2ccc([N+](=O)[O-])cc2[N+](=O)[O-])c([N+](=O)[O-])c1,"Biphenyl, 2,2',4,4'-tetranitro- (8CI)",516.55,le15,1
11318,O=[N+]([O-])c1c(Cl)c(Cl)c(Cl)c2[nH]c(C(F)(F)F)nc12,"Benzimidazole, 7-nitro-4,5,6-trichloro-2-(trifluoromethyl)-",493.45,le15,1
11319,O=[N+]([O-])c1c(Cl)c(Cl)c2[nH]c(C(F)(F)F)nc2c1Cl,"Benzimidazole, 4,5,7-trichloro-6-nitro-2-(trifluoromethyl)-",492.05,le15,1
11320,CCOP(=O)(OCC)Oc1nc(Cl)c(Cl)cc1Cl,"Phosphoric acid, diethyl 3,5,6-trichloro-2-pyridinyl ester (9CI)",443.35,le15,1
11321,CCCCOCCCOC(=O)COc1ccc(Cl)cc1Cl,"Acetic acid, 2,4-dichlorophenoxy-, 3-butoxypropyl ester",425.95,le15,1
11322,CCCCN(CC)c1c([N+](=O)[O-])cc(C(F)(F)F)cc1[N+](=O)[O-],"p-Toluidine, N-butyl-N-ethyl-alpha,alpha,alpha-trifluoro-2,6-dinitro-",450.15,le15,1
11323,CCCN(CCC)c1c([N+](=O)[O-])cc(C(F)(F)F)cc1[N+](=O)[O-],"p-Toluidine, alpha,alpha,alpha-trifluoro-2,6-dinitro-N,N-dipropyl-",450.15,le15,1
11324,CCN(CC)CCOCCOC(=O)C(CC)(CC)c1ccccc1,"Butyric acid, 2-ethyl-2-phenyl-, 2-(2-(diethylamino)ethoxy)ethyl ester",481.65,le15,1
11325,Oc1ccc(C(c2ccc(O)cc2)(C(F)(F)F)C(F)(F)F)cc1,"Phenol, 4,4'-(2,2,2-trifluoro-1-(trifluoromethyl)ethylidene)bis-",435.05,le15,1
11326,CCCOP(=S)(OCCC)Oc1ccc(S(C)=O)cc1,"Phosphorothioic acid, O-(p-(methylsulfinyl)phenyl) O,O-dipropyl ester",486.85,le15,1
11327,CCC(=O)N(c1ccccc1)C1CCN(CCc2ccccc2)CC1,"Propanamide, N-phenyl-N-(1-(2-phenylethyl)-4-piperidinyl)- (9CI)",458.95,le15,1
11328,CCCCCCCCCCCCCCCCCCC1CCCCC1,octadecylcyclohexane,468.35,le15,1
11329,FC(F)(F)C(F)(F)C(F)(F)C(F)(C(F)(F)F)C(F)(F)F,"1,1,1,2,2,3,3,4,5,5,5-undecafluoro-4-(trifluoromethyl)pentane",275.25,le15,1
11330,FC(F)(F)C(F)(F)C(F)(F)C(F)(F)C(F)(F)C(F)(F)F,"Hexane, tetradecafluoro-",274.35,le15,1
11331,O=C(O)c1ccccc1.O=C(O)c1ccccc1.O=C1OC(=O)C(O)=C1O,"Maleic anhydride, dihydroxy-, dibenzoate",481.35,le15,1
11332,O=[N+]([O-])c1ccc(N=Nc2c(O)ccc3ccccc23)c([N+](=O)[O-])c1,"2-Naphthalenol, 1-(2-(2,4-dinitrophenyl)diazenyl)-",588.55,le15,1
11333,CCCCCCCCCCCCOC(=O)c1cc(O)c(O)c(O)c1,"Benzoic acid, 3,4,5-trihydroxy-, dodecyl ester",453.45,le15,1
11334,C=CCOC(=O)CCCCCCCC1OC1CCCCCCCC,"Oxiraneoctanoic acid, 3-octyl-, 2-propenyl ester (9CI)",433.65,le15,1
11335,CCCCCCCCCCCCCCCCCCCCCCCC,tetracosane,507.65,le15,1
11336,COc1ccc(Cc2nccc3cc(OC)c(OC)cc23)cc1OC,"Isoquinoline, 1-((3,4-dimethoxyphenyl)methyl)-6,7-dimethoxy-",445.35,le15,1
11337,CS(=O)(=O)OCCN(CCOS(C)(=O)=O)S(C)(=O)=O,"Methanesulfonamide, N,N-bis(2-(methylsulfonyloxy)ethyl)-",580.65,le15,1
11338,C[C@]12CC[C@H]3[C@@H](CC=C4C=C(N5CCCC5)CC[C@@]43C)[C@@H]1CCC2=O,"Androsta-3,5-dien-17-one, 3-(1-pyrrolidinyl)-",458.55,le15,1
11339,O=c1ccc2cc(O[C@@H]3O[C@H](CO)[C@@H](O)[C@H](O)[C@H]3O)c(O)cc2o1,"2H-1-Benzopyran-2-one, 6-(beta-D-glucopyranosyloxy)-7-hydroxy-",535.95,le15,1
11340,Cc1ccc2[nH]c3cc4c(=O)c5cc(C)ccc5[nH]c4cc3c(=O)c2c1,"Quino(2,3-b)acridine-7,14-dione, 5,12-dihydro-2,9-dimethyl-",494.55,le15,1
11341,CC(C)(c1ccc(OCC2CO2)cc1)c1ccc(OCC2CO2)cc1,"Oxirane, 2,2'-((1-methylethylidene)bis(4,1-phenyleneoxymethylene))bis-",563.15,le15,1
11342,OCCOCCN1CCN(C(c2ccccc2)c2ccccc2)CC1,"Ethanol, 2-(2-(4-(diphenylmethyl)-1-piperazinyl)ethoxy)-",512.65,le15,1
11343,Cc1cc(Cc2cc(C)cc(C(C)(C)C)c2O)c(O)c(C(C)(C)C)c1,"p-Cresol, 2,2'-methylenebis(6-tert-butyl- (8CI)",454.35,le15,1
11344,CCCCCCCCCCCCCCCCCC(=O)OCCCC,"Octadecanoic acid, butyl ester",466.65,le15,1
11345,CCCCCCCCCCCCCCCCCC(=O)OCC(C)C,2-methylpropyl octadecanoate,460.85,le15,1
11346,COc1cccc2c1cc([N+](=O)[O-])c1c(C(=O)O)cc3c(c12)OCO3,"8-Methoxy-3,4-methylenedioxy-10-nitrophenanthrene-1-carboxylic acid",599.15,le15,1
11347,CC(Cc1ccccc1)NCCn1cnc2c1c(=O)n(C)c(=O)n2C,"Theophylline, 7-(2-((alpha-methylphenethyl)amino)ethyl)-",567.95,le15,1
11348,CC(=O)Oc1ccccc1C(=O)OC(=O)c1ccccc1OC(C)=O,"Benzoic acid, 2-(acetyloxy)-, anhydride (9CI)",499.55,le15,1
11349,OC[C@H]1O[C@H](O[C@]2(CO)O[C@H](CO)[C@@H](O)[C@@H]2O)[C@H](O)[C@@H](O)[C@@H]1O,"alpha-D-Glucopyranoside, beta-D-fructofuranosyl",648.55,le15,1
11350,O=C[C@H](O)[C@@H](O)[C@H](O[C@@H]1O[C@H](CO)[C@H](O)[C@H](O)[C@H]1O)[C@H](O)CO,"D-Glucose, 4-O-beta-D-galactopyranosyl-",630.95,le15,1
11351,CN1CCN(C2=Nc3ccccc3Sc3ccc(Cl)cc32)CC1,"Dibenzo(b,f)(1,4)thiazepine, 2-chloro-11-(4-methyl-1-piperazinyl)-",519.55,le15,1
11352,FC(F)(F)c1nc2c(Br)ccc(Br)c2[nH]1,"Benzimidazole, 4,7-dibromo-2-(trifluoromethyl)-",452.95,le15,1
11353,FC(F)(F)c1nc2cc(Br)cc(Br)c2[nH]1,"Benzimidazole, 4,6-dibromo-2-(trifluoromethyl)-",452.75,le15,1
11354,Brc1ccc(Sc2ccc(Br)cc2)cc1,1-bromo-4-(4-bromophenyl)sulfanylbenzene,475.65,le15,1
11355,O=[N+]([O-])c1ccc(OP(=O)(OCCCl)OCCCl)cc1,"Phosphoric acid, bis(2-chloroethyl) 4-nitrophenyl ester (9CI)",482.95,le15,1
11356,CCN(CC)CCNC(=O)c1cc(Br)c(N)cc1OC,"Benzamide, 4-amino-5-bromo-N-(2-(diethylamino)ethyl)-2-methoxy- (9CI)",490.45,le15,1
11357,OC[C@H](O)[C@@H](O)[C@H](O[C@@H]1O[C@H](CO)[C@H](O)[C@H](O)[C@H]1O)[C@H](O)CO,"D-Glucitol, 4-O-beta-D-galactopyranosyl-",703.8499999999997,le15,1
11358,CCC(=O)O[C@H]1CC[C@H]2[C@@H]3CCC4=CC(=O)CC[C@]4(C)[C@H]3CC[C@]12C,"Androst-4-en-3-one, 17-(1-oxopropoxy)-, (17beta)-",469.45,le15,1
11359,CC(=O)[C@@]1(O)CC[C@H]2[C@@H]3C[C@H](C)C4=CC(=O)CC[C@]4(C)[C@H]3CC[C@@]21C,"Pregn-4-ene-3,20-dione, 17-hydroxy-6-methyl-, (6alpha)- (9CI)",536.15,le15,1
11360,CCCCCCCCCCCCCCCCCCCc1ccccc1,"Benzene, nonadecyl-",464.85,le15,1
11361,C=C[Si]1(C)O[Si](C)(C=C)O[Si](C)(C=C)O[Si](C)(C=C)O1,"Cyclotetrasiloxane, 2,4,6,8-tetraethenyl-2,4,6,8-tetramethyl-",367.45,le15,1
11362,COc1c(Br)cc(Br)cc1Br,"1,3,5-tribromo-2-methoxybenzene",394.65,le15,1
11363,CCCN(CCC)c1c([N+](=O)[O-])cc(S(C)(=O)=O)cc1[N+](=O)[O-],"Aniline, 4-(methylsulfonyl)-2,6-dinitro-N,N-dipropyl- (7CI,8CI)",533.65,le15,1
11364,BrC(Br)C(Br)Br,"Ethane, 1,1,2,2-tetrabromo-",370.15,le15,1
11365,FC(F)(F)C(F)(F)C(F)(F)C(F)(F)I,"Butane, 1,1,1,2,2,3,3,4,4-nonafluoro-4-iodo-",291.85,le15,1
11366,O=C(O)C(F)(F)C(F)(F)C(F)(F)C(F)(F)C(F)(F)C(F)F,"Heptanoic acid, 2,2,3,3,4,4,5,5,6,6,7,7-dodecafluoro-",340.75,le15,1
11367,C=CC(F)(F)C(F)(F)C(F)(F)C(F)(F)C(F)(F)C(F)(F)F,"3,3,4,4,5,5,6,6,7,7,8,8,8-tridecafluorooct-1-ene",293.15,le15,1
11368,c1ccc2sc(SN(C3CCCCC3)C3CCCCC3)nc2c1,"2-Benzothiazolesulfenamide, N,N-dicyclohexyl-",521.15,le15,1
11369,CCOP(=O)(OCC)Oc1ccc2c(C)c(Cl)c(=O)oc2c1,3-Chloro-4-methyl-2-oxo-2H-1-benzopyran-7-yl diethyl phosphate,620.15,le15,1
11370,Oc1c(Br)cc(Br)c(O)c1Br,"1,3-Benzenediol, 2,4,6-tribromo- (9CI)",381.15,le15,1
11371,CCCC(=O)Oc1c(Br)cc(C#N)cc1Br,"Butanoic acid, 2,6-dibromo-4-cyanophenyl ester",452.45,le15,1
11372,O=P(O)(O)OC[C@H]1O[C@@H](n2cnc3c(O)ncnc32)[C@H](O)[C@@H]1O,Inosine 5'-monophosphate,741.8499999999997,le15,1
11373,CCN(CC)CCOc1ccccc1-n1c(C)ccc1-c1ccccc1,"Pyrrole, 1-(o-(2-(diethylamino)ethoxy)phenyl)-2-methyl-5-phenyl-",528.05,le15,1
11374,CCOS(=O)(=O)c1cc(C(C)(C)C)cc2cc(C(C)(C)C)ccc12,"1-Naphthalenesulfonic acid, 3,6-bis(1,1-dimethylethyl)-, ethyl ester",507.45,le15,1
11375,CCOP(=O)(OCC)ON1C(=O)c2cccc3cccc(c23)C1=O,"1H-Benz(de)isoquinoline-1,3(2H)-dione, 2-((diethoxyphosphinyl)oxy)-",521.65,le15,1
11376,FC(F)(F)C1(F)C(F)(F)C(F)(F)C(F)(F)C(F)(F)C1(F)F,"1,1,2,2,3,3,4,4,5,5,6-undecafluoro-6-(trifluoromethyl)cyclohexane",277.35,le15,1