,smiles,compound,flashpoint,source,pure substance
7534,C=C1[C@H]2C[C@@]2(C(C)C)C[C@H]1O,"(1S,3R,5S)-2-methylidene-5-propan-2-ylbicyclo[3.1.0]hexan-3-ol",356.85,le15,1
7535,CC1(C)C2CC=C(CO)C1C2,"6,6-Dimethyl-2-(hydroxymethyl)bicyclo[3.1.1]hept-2-ene",362.55,le15,1
7536,CC(C)[C@]12CC(=O)[C@H](C)[C@H]1C2,"Bicyclo(3.1.0)hexan-3-one, 4-methyl-1-(1-methylethyl)-, (1S,4R,5R)-",337.5499999999999,le15,1
7537,CC12CCC(C1)C(C)(C)C2=O,"Bicyclo(2.2.1)heptan-2-one, 1,3,3-trimethyl-",325.95,le15,1
7538,CC(C)=CC1CC(C)=CCO1,"2H-Pyran, 3,6-dihydro-4-methyl-2-(2-methylpropenyl)- (7CI)",343.95,le15,1
7539,CC1=CCC2CC1OC2(C)C,"4,7,7-trimethyl-6-oxabicyclo[3.2.1]oct-3-ene",336.35,le15,1
7540,CC(C)=CCC1CCCC1=O,"Cyclopentanone, 2-(3-methyl-2-buten-1-yl)-",353.65,le15,1
7541,CC1(C)C(=O)[C@@]2(C)CC[C@@H]1C2,"Bicyclo(2.2.1)heptan-2-one, 1,3,3-trimethyl-, (1S,4R)-",325.95,le15,1
7542,O=C1CCCC1C1CCCC1,2-cyclopentylcyclopentan-1-one,363.45,le15,1
7543,C=C(C)C1CCC(C)C(=O)C1,"Cyclohexanone, 2-methyl-5-(1-methylethenyl)-",354.25,le15,1
7544,CC12CCC(C(=O)C1)C2(C)C,"4,7,7-trimethylbicyclo[2.2.1]heptan-2-one",342.45,le15,1
7545,CC(C)C1CC=C(C=O)CC1,4-propan-2-ylcyclohexene-1-carbaldehyde,356.75,le15,1
7546,CC(C)=CCC/C(C)=C/C=O,"2,6-Octadienal, 3,7-dimethyl-, (2E)-",374.85,le15,1
7547,C=C(C)C1CC=C(CO)CC1,"1-Cyclohexene-1-methanol, 4-(1-methylethenyl)-",372.75,le15,1
7548,CC1(C)C2CCC3(CO3)C1C2,"Spiro(bicyclo(3.1.1)heptane-2,2'-oxirane), 6,6-dimethyl-",339.15,le15,1
7549,C[C@@H]1C(=O)C[C@H]2C[C@@H]1C2(C)C,"(1R,4S,5S)-4,6,6-trimethylbicyclo[3.1.1]heptan-3-one",345.95,le15,1
7550,CC12CCC(CC1=O)C2(C)C,Camphor,339.0,le15,1
7551,CCSc1ccc(C)cc1,1-ethylsulfanyl-4-methylbenzene,359.15,le15,1
7552,CC(C)Sc1ccccc1,propan-2-ylsulfanylbenzene,356.35,le15,1
7553,C1CCC2(CC1)CCCCC2,Spiro(5.5)undecane,344.95,le15,1
7554,CCCCC#CCCCCC,undec-5-yne,338.75,le15,1
7555,CCCC#CCCCCCC,undec-4-yne,338.75,le15,1
7556,C#CCCCCCCCCC,1undecyne,338.0,le15,1
7557,N#Cc1cc(Cl)ccc1N,"Benzonitrile, 2-amino-5-chloro-",402.85,le15,1
7558,C=C(C)c1ccc(Cl)cc1,"Benzene, 1-chloro-4-(1-methylethenyl)-",347.039,le15,1
7559,Cl/C=C/Cc1ccccc1,[(E)-3-chloroprop-2-enyl]benzene,562.05,le15,1
7560,CCOC(CCl)OCC,"2-chloro-1,1-diethoxyethane",302.5499999999999,le15,1
7561,O=C(Cl)/C=C/C(=O)Cl,"2-Butenedioyl dichloride, (2E)-",346.15,le15,1
7562,COC(=O)CBr,methyl 2-bromoacetate,335.95,le15,1
7563,O=C(O)CCBr,"Propanoic acid, 3-bromo-",371.85,le15,1
7564,CC(Br)C(=O)O,2-bromopropanoic acid,349.45,le15,1
7565,CCOCCBr,1-bromo-2-ethoxyethane,294.15,le15,1
7566,Clc1ccc(Cl)s1,"2,5-dichlorothiophene",332.5499999999999,le15,1
7567,Cl[C@@H]1CCCC[C@H]1Cl,"trans-1,2-Dichlorocyclohexane",339.25,le15,1
7568,ClC1(Cl)CCCCC1,"1,1-dichlorocyclohexane",339.15,le15,1
7569,Cl[C@H]1CCCC[C@H]1Cl,"(1R,2S)-1,2-dichlorocyclohexane",339.25,le15,1
7570,Nc1ccc(O)c(C(=O)O)c1,"Benzoic acid, 5-amino-2-hydroxy-",471.25,le15,1
7571,COc1ccc([N+](=O)[O-])cc1,"Benzene, 1-methoxy-4-nitro-",407.75,le15,1
7572,Cc1ccc(O)c([N+](=O)[O-])c1,"Phenol, 4-methyl-2-nitro-",381.15,le15,1
7573,Nc1c(O)cccc1C(=O)O,"Anthranilic acid, 3-hydroxy- (8CI)",442.75,le15,1
7574,O=[N+]([O-])c1ccccc1CO,"Benzenemethanol, 2-nitro- (9CI)",404.25,le15,1
7575,O=[N+]([O-])c1cccc(CO)c1,"Benzenemethanol, 3-nitro-",419.35,le15,1
7576,O=[N+]([O-])c1ccc(CO)cc1,"Benzenemethanol, 4-nitro-",421.25,le15,1
7577,Cc1ccc([N+](=O)[O-])c(O)c1,"Phenol, 5-methyl-2-nitro-",382.15,le15,1
7578,Cc1ccc(O)cc1[N+](=O)[O-],3-Nitro-p-cresol,398.35,le15,1
7579,Cc1cc(O)ccc1[N+](=O)[O-],"Phenol, 3-methyl-4-nitro-",383.15,le15,1
7580,Cc1cccc(O)c1[N+](=O)[O-],"Phenol, 3-methyl-2-nitro- (9CI)",380.15,le15,1
7581,Cc1ccc([N+](=O)[O-])cc1O,"Phenol, 2-methyl-5-nitro-",407.35,le15,1
7582,Cc1c(O)cccc1[N+](=O)[O-],3-Nitro-o-cresol,394.95,le15,1
7583,COc1ccccc1[N+](=O)[O-],"Benzene, 1-methoxy-2-nitro-",415.15,le15,1
7584,Nc1ccc([N+](=O)[O-])cc1N,"1,2-Benzenediamine, 4-nitro-",481.65,le15,1
7585,NNc1ccc([N+](=O)[O-])cc1,"Hydrazine, (4-nitrophenyl)-",434.95,le15,1
7586,Nc1ccc(N)c([N+](=O)[O-])c1,"1,4-Benzenediamine, 2-nitro-",460.05,le15,1
7587,Nc1cccc([N+](=O)[O-])c1N,"1,2-Benzenediamine, 3-nitro- (9CI)",450.55,le15,1
7588,Nc1ccc([N+](=O)[O-])c(N)c1,"1,3-Benzenediamine, 4-nitro-",487.15,le15,1
7589,O=C(CF)Nc1ccccc1,"Acetamide, 2-fluoro-N-phenyl- (9CI)",418.25,le15,1
7590,N#Cc1cccc2ccccc12,naphthalene-1-carbonitrile,413.85,le15,1
7591,Fc1cccc(N=C=S)c1,1-fluoro-3-isothiocyanatobenzene,358.15,le15,1
7592,Fc1ccc(N=C=S)cc1,1-fluoro-4-isothiocyanatobenzene,362.55,le15,1
7593,COc1ccc(OC)c(N)c1,"2,5-dimethoxyaniline",403.25199999999995,le15,1
7594,NCC(O)c1cccc(O)c1,"Benzyl alcohol, alpha-(aminomethyl)-m-hydroxy-",445.15,le15,1
7595,COc1ccc(N)c(OC)c1.Cl,"2,4-Dimethoxyaniline hydrochloride",397.95,le15,1
7596,NCC(O)c1ccc(O)cc1,"Benzenemethanol, alpha-(aminomethyl)-4-hydroxy-",445.15,le15,1
7597,CN1C2CCCC1CC(=O)C2,9-methyl-9-azabicyclo[3.3.1]nonan-3-one,369.05,le15,1
7598,CCCCCCCCCC#N,decanenitrile,365.15,le15,1
7599,O=C=Nc1cccc(Cl)c1,"Isocyanic acid, m-chlorophenyl ester",355.15,le15,1
7600,O=C=Nc1ccccc1Cl,1-chloro-2-isocyanatobenzene,361.15,le15,1
7601,Clc1nc2ccccc2o1,"2-chloro-1,3-benzoxazole",358.15,le15,1
7602,C=CI,iodoethene,279.35,le15,1
7603,CC(=O)CC(=O)C(F)(F)F,"1,1,1-trifluoropentane-2,4-dione",299.25,le15,1
7604,O=C(O)c1ccc(O)cc1O,"Benzoic acid, 2,4-dihydroxy-",491.95,le15,1
7605,O=C(O)c1ccc(O)c(O)c1,"Benzoic acid, 3,4-dihydroxy- (9CI)",489.45,le15,1
7606,O=C1C=C2C(=CCOC2O)O1,"4,6-Dihydro-4-hydroxy-2H-furo(3,2-c)pyran-2-one",499.95,le15,1
7607,O=C(O)c1cc(O)ccc1O,"Benzoic acid, 2,5-dihydroxy-",487.15,le15,1
7608,O=Cc1ccc(O)c(O)c1O,"Benzaldehyde, 2,3,4-trihydroxy-",423.75,le15,1
7609,O=Cc1c(O)cc(O)cc1O,"Benzaldehyde, 2,4,6-trihydroxy-",434.15,le15,1
7610,Nc1cc([N+](=O)[O-])ccc1O,"Phenol, 2-amino-4-nitro-",449.55,le15,1
7611,Nc1ccc(O)c([N+](=O)[O-])c1,"Phenol, 4-amino-2-nitro-",429.25,le15,1
7612,Nc1c(O)cccc1[N+](=O)[O-],2-Amino-3-nitrophenol,417.95,le15,1
7613,Nc1cccc([N+](=O)[O-])c1O,2-Nitro-6-aminophenol,396.45,le15,1
7614,CN(C)P(=O)(F)N(C)C,"Phosphorodiamidic fluoride, tetramethyl-",321.85,le15,1
7615,CN(N=O)c1ccc(F)cc1,"Aniline, p-fluoro-N-methyl-N-nitroso-",391.25,le15,1
7616,COc1cccc(OC)c1O,"Phenol, 2,6-dimethoxy-",373.05,le15,1
7617,COc1cc(CO)ccc1O,"Benzenemethanol, 4-hydroxy-3-methoxy-",416.35,le15,1
7618,COc1cc(O)cc(OC)c1,"Phenol, 3,5-dimethoxy- (8CI)(9CI)",351.15,le15,1
7619,CCC(=O)OCc1ccco1,furan-2-ylmethyl propanoate,354.85,le15,1
7620,CC=CC(=O)OC(=O)C=CC,"2-Butenoic acid, anhydride",383.75,le15,1
7621,N#CC(C#N)=Cc1ccccc1,"Propanedinitrile, (phenylmethylene)- (9CI)",411.15,le15,1
7622,N#Cc1ccnc2ccccc12,"Cinchoninonitrile(6CI,7CI,8CI)",368.35,le15,1
7623,C=CC(=O)NCNC(=O)C=C,"2-Propenamide, N,N'-methylenebis-",488.15,le15,1
7624,CCOP([O-])(=S)CC,"Phosphonothioic acid, ethyl-, O-ethyl ester",354.04999999999984,le15,1
7625,CNc1nc(C)nc(OC)n1,"1,3,5-Triazin-2-amine, 4-methoxy-N,6-dimethyl-",411.35,le15,1
7626,CCOS(=O)(=O)OCC,DiethylSulfate,377.0,le15,1
7627,c1cc2c3c(cccc3c1)CC2,"Acenaphthylene, 1,2-dihydro-",408.15,le15,1
7628,c1ccc(-c2ccccc2)cc1,Biphenyl,386.0,le15,1
7629,CCCCCC#CC(=O)OC,"2-Octynoic acid, methyl ester",362.05,le15,1
7630,C=CC(=O)OC1CCCCC1,"2-Propenoic acid, cyclohexyl ester",344.45,le15,1
7631,O=C1CCC2CCCCC2O1,"2H-1-Benzopyran-2-one, octahydro-",382.15,le15,1
7632,O=C(O)C1CCC2CCCC21,"1,2,3,3a,4,5,6,6a-octahydropentalene-1-carboxylic acid",396.85,le15,1
7633,CCCCOCc1ccco1,2-(butoxymethyl)furan,347.75,le15,1
7634,CCCCCCC#CC(=O)O,2-Nonynoic acid,405.95,le15,1
7635,CCCCCC#CC(=O)OC,Methyl2octynoate,361.0,le15,1
7636,CSc1ccc(O)cc1C,"Phenol, 3-methyl-4-(methylthio)-",401.85,le15,1
7637,CC(C)(C)C1CCC(=O)CC1,"Cyclohexanone, 4-(1,1-dimethylethyl)-",369.25,le15,1
7638,CC(C)=CCCC(C)CC=O,"6-Octenal, 3,7-dimethyl-",348.75,le15,1
7639,CC(C)=CCC/C(C)=C\CO,"2,6-Octadien-1-ol, 3,7-dimethyl-, (2Z)-",372.65,le15,1
7640,CC1(C)[C@@H]2CC[C@@]1(C)[C@H](O)C2,"Bicyclo(2.2.1)heptan-2-ol, 1,7,7-trimethyl-, (1R,2R,4R)-rel-",347.15,le15,1
7641,CC1(C)[C@H]2CC[C@]1(C)[C@H](O)C2,"Bicyclo(2.2.1)heptan-2-ol, 1,7,7-trimethyl-, (1S,2R,4S)-",338.15,le15,1
7642,CC1(C)[C@@H]2CC[C@@]1(C)[C@@H](O)C2,"Bicyclo(2.2.1)heptan-2-ol, 1,7,7-trimethyl-, (1R,2S,4R)-rel-",338.75,le15,1
7643,CC1C(O)CC2(C(C)C)CC12,2-methyl-5-propan-2-ylbicyclo[3.1.0]hexan-3-ol,356.85,le15,1
7644,CC1=CCC(O)(C(C)C)CC1,"3-Cyclohexen-1-ol, 4-methyl-1-(1-methylethyl)-",355.15,le15,1
7645,CC(C)C1=CC(O)C(C)CC1,6-methyl-3-propan-2-ylcyclohex-2-en-1-ol,362.95,le15,1
7646,C=C(C)C1CCC(C)C(O)C1,"Cyclohexanol, 2-methyl-5-(1-methylethenyl)-",364.85,le15,1
7647,CC1CC(C=O)CC(C)(C)C1,"Cyclohexanecarboxaldehyde, 3,3,5-trimethyl-",336.95,le15,1
7648,OCCSSCCO,"Ethanol, 2,2'-dithiobis-",422.45,le15,1
7649,CCCCCCCC#CCO,2-Decyn-1-ol,331.5499999999999,le15,1
7650,OC1CCCC1C1CCCC1,2-cyclopentylcyclopentan-1-ol,375.05,le15,1
7651,CC(C)[C@@H]1CC[C@@H](C)CC1=O,"(2S,5R)-5-methyl-2-propan-2-ylcyclohexan-1-one",345.95,le15,1
7652,CC(C)[C@H]1CC[C@H](C)CC1=O,"Cyclohexanone, 5-methyl-2-(1-methylethyl)-, (2R,5S)-rel-",342.15,le15,1
7653,CC(C)=CCC/C(C)=C/CO,"2,6-Octadien-1-ol, 3,7-dimethyl-, (2E)-",349.81699999999995,le15,1
7654,C=C(C)C1CCC(C)(O)CC1,p-Menth-8-en-1-ol(8CI),360.65,le15,1
7655,CC(C)C12CCC(C)(CC1)O2,"7-Oxabicyclo(2.2.1)heptane, 1-methyl-4-(1-methylethyl)-",320.95,le15,1
7656,CC12CCC(CC1)C(C)(C)O2,"2-Oxabicyclo(2.2.2)octane, 1,3,3-trimethyl-",322.15,le15,1
7657,C=CC(=C)CCCC(C)(C)O,"7-Octen-2-ol, 2-methyl-6-methylene-",357.95,le15,1
7658,CC(C)=CCC[C@@H](C)CC=O,"(3R)-3,7-dimethyloct-6-enal",348.75,le15,1
7659,CC1=CCCC(C)(C)C1CO,"(2,6,6-trimethylcyclohex-2-en-1-yl)methanol",354.85,le15,1
7660,CC1=CCC(C(C)(C)O)CC1,2-(4-methylcyclohex-3-en-1-yl)propan-2-ol,362.55,le15,1
7661,CC(C)=CCCC(C)CC=O,Citronellal,348.0,le15,1
7662,C/C=C\CCCCCCCC,(Z)-undec-2-ene,334.35,le15,1
7663,CCCCCC1CCCCC1,pentylcyclohexane,339.25,le15,1
7664,FC(F)(F)C(F)(F)Cl,"Ethane, 1-chloro-1,1,2,2,2-pentafluoro-",343.15,le15,1
7665,O=C(Cl)Cc1ccccc1,Benzeneacetyl chloride,363.15,le15,1
7666,O=C(CCl)c1ccccc1,"Ethanone, 2-chloro-1-phenyl-",377.95,le15,1
7667,Cc1ccc(C(=O)Cl)cc1,"Benzoyl chloride, 4-methyl-",355.15,le15,1
7668,Cc1ccccc1C(=O)Cl,"Benzoyl chloride, 2-methyl-",349.15,le15,1
7669,Cc1cccc(C(=O)Cl)c1,"Benzoyl chloride, 3-methyl-",349.15,le15,1
7670,CC(=O)c1ccccc1Cl,"Ethanone, 1-(2-chlorophenyl)-",361.15,le15,1
7671,ClCCCc1ccccc1,3-chloropropylbenzene,360.35,le15,1
7672,Cc1ccc(CCl)c(C)c1,"1-(chloromethyl)-2,4-dimethylbenzene",369.15,le15,1
7673,CC(C)c1ccc(Cl)cc1,1-chloro-4-propan-2-ylbenzene,587.15,le15,1
7674,Cc1cc(C)c(Cl)c(C)c1,"2-chloro-1,3,5-trimethylbenzene",349.95,le15,1
7675,CC(C)c1ccccc1Cl,1-chloro-2-propan-2-ylbenzene,344.15,le15,1
7676,O=C(Cl)CCC(=O)Cl,butanedioyl dichloride,349.85,le15,1
7677,FCCCCBr,1-bromo-4-fluorobutane,306.45,le15,1
7678,ClCC1(CCl)COC1,"Oxetane, 3,3-bis(chloromethyl)-",388.95,le15,1
7679,CCCCC(Cl)CCl,"1,2-dichlorohexane",329.75,le15,1
7680,ClCCCCCCCl,"1,6-dichlorohexane",347.04999999999984,le15,1
7681,O=C(O)c1cc(O)[nH]c(=O)c1,"4-Pyridinecarboxylic acid, 1,2-dihydro-6-hydroxy-2-oxo-",454.05,le15,1
7682,O=[N+]([O-])c1c(O)cccc1O,"1,3-Benzenediol, 2-nitro-",384.55,le15,1
7683,O=[N+]([O-])c1ccc(O)c(O)c1,4-Nitropyrocatechol,441.95,le15,1
7684,Cc1ccc(F)cc1[N+](=O)[O-],4-fluoro-1-methyl-2-nitrobenzene,372.05,le15,1
7685,N[C@@H](Cc1c[nH]cn1)C(=O)O,L-Histidine,555.15,le15,1
7686,c1ccc(-c2ccncc2)cc1,"Pyridine, 4-phenyl-",384.25,le15,1
7687,c1ccc(-c2ccccn2)cc1,"Pyridine, 2-phenyl-",386.45,le15,1
7688,c1ccc(-c2cccnc2)cc1,"Pyridine, 3-phenyl-",392.447,le15,1
7689,COC(=O)C1=CCCN(C)C1,"3-Pyridinecarboxylic acid, 1,2,5,6-tetrahydro-1-methyl-, methyl ester",354.25,le15,1
7690,OCC1=CCN2CC[C@@H](O)[C@@H]12,"1H-Pyrrolizine-7-methanol, 2,3,5,7a-tetrahydro-1-hydroxy-, (1R-trans)-",434.55,le15,1
7691,C=CCC(CC)(CC)C(N)=O,"4-Pentenamide, 2,2-diethyl-",389.35,le15,1
7692,CC1(C)CC(=O)CC(C)(C)N1,"4-Piperidinone, 2,2,6,6-tetramethyl-",346.35,le15,1
7693,CCCCNC1CCCCC1,"Cyclohexanamine, N-butyl-",345.25,le15,1
7694,CCCCCN1CCCCC1,1-pentylpiperidine,351.45,le15,1
7695,CN1C(C)(C)CCCC1(C)C,"1,2,2,6,6-pentamethylpiperidine",323.15,le15,1
7696,NC(=O)c1ccccc1Cl,"Benzamide, o-chloro- (8CI)",393.25,le15,1
7697,NC(=O)c1ccc(Cl)cc1,"Benzamide, p-chloro- (6CI,7CI,8CI)",402.45,le15,1
7698,O=CNc1ccc(Cl)cc1,"Formamide, N-(4-chlorophenyl)- (9CI)",417.35,le15,1
7699,NCCc1ccc(Cl)cc1,4-Chlorobenzeneethanamine,379.15,le15,1
7700,CN(C)c1ccccc1Cl,"2-chloro-N,N-dimethylaniline",347.54999999999984,le15,1
7701,CN(CCCl)CCCl,"Ethanamine, 2-chloro-N-(2-chloroethyl)-N-methyl-",293.65,le15,1
7702,N#Cc1nc(C#N)nc(C#N)n1,"S-TRIAZINE-2,4,6-TRICARBONITRILE",414.55,le15,1
7703,Nc1ccc(F)c([N+](=O)[O-])c1,"Benzenamine, 4-fluoro-3-nitro-",364.15,le15,1
7704,COP(=S)(OC)OC,"Phosphorothioic acid, O,O,O-trimethyl ester",306.35,le15,1
7705,COP(=O)(OC)SC,"Phosphorothioic acid, O,O,S-trimethyl ester",329.15,le15,1
7706,CCOC(=O)C1CCCC1=O,ethyl 2-oxocyclopentane-1-carboxylate,350.15,le15,1
7707,c1cncc(-c2cccnc2)c1,3-pyridin-3-ylpyridine,388.75,le15,1
7708,CS(=O)(=O)c1ccccc1,"Benzene, (methylsulfonyl)- (9CI)",444.55,le15,1
7709,CCOC(=O)c1cccs1,ethyl thiophene-2-carboxylate,359.25,le15,1
7710,Cc1cccc2cccc(C)c12,"1,8-dimethylnaphthalene",388.45,le15,1
7711,Cc1ccc(C)c2ccccc12,"1,4-dimethylnaphthalene",382.35,le15,1
7712,Cc1cccc2c(C)cccc12,"1,5-dimethylnaphthalene",384.55,le15,1
7713,Cc1ccc2ccccc2c1C,"1,2-dimethylnaphthalene",387.15,le15,1
7714,Cc1ccc2cccc(C)c2c1,"1,7-dimethylnaphthalene",381.85,le15,1
7715,Cc1cc(C)c2ccccc2c1,"Naphthalene, 1,3-dimethyl-",382.55,le15,1
7716,Cc1cc2ccccc2cc1C,"Naphthalene, 2,3-dimethyl- (8CI)(9CI)",387.15,le15,1
7717,Cc1ccc2ccc(C)cc2c1,"2,7-dimethylnaphthalene",383.65,le15,1
7718,CCc1ccc2ccccc2c1,2-ethylnaphthalene,377.55,le15,1
7719,CCc1cccc2ccccc12,1-ethylnaphthalene,384.85,le15,1
7720,Cc1ccc2c(C)cccc2c1,"Naphthalene, 1,6-dimethyl- (8CI)(9CI)",383.65,le15,1
7721,Cc1ccc2cc(C)ccc2c1,"2,6-dimethylnaphthalene",383.65,le15,1
7722,CCCCCC1CCC(=O)O1,"2(3H)-Furanone, dihydro-5-pentyl-",371.95,le15,1
7723,C=CCOC(=O)CCCCC,"Hexanoic acid, 2-propenyl ester",347.15,le15,1
7724,O=C(O)CCC1CCCCC1,3-cyclohexylpropanoic acid,404.65,le15,1
7725,C=C(C)C(=O)OCC(C)(C)C,"2-Propenoic acid, 2-methyl-, 2,2-dimethylpropyl ester",327.0499999999999,le15,1
7726,C=CC(=O)OCCCCCC,"2-Propenoic acid, hexyl ester",331.45,le15,1
7727,C=C(C)C(=O)OCCCCC,"Methacrylic acid, pentyl ester (8CI)",333.45,le15,1
7728,CCOC(=O)C1CCCCC1,"Cyclohexanecarboxylic acid, ethyl ester",341.65,le15,1
7729,CCCCCCC=CC(=O)O,2-Nonenoic acid,441.45,le15,1
7730,C=CC(=O)OCC(CC)CC,"2-Propenoic acid, 2-ethylbutyl ester",328.85,le15,1
7731,CCC(=O)OC1CCCCC1,cyclohexyl propanoate,340.95,le15,1
7732,CC1(NC(N)=O)CCCCC1,"Urea, (1-methylcyclohexyl)-",373.65,le15,1
7733,CCC1(NC(N)=O)CCCC1,"Urea, (1-ethylcyclopentyl)-",372.35,le15,1
7734,C=CC(=O)NCCCN(C)C,"2-Propenamide, N-(3-(dimethylamino)propyl)-",400.95,le15,1
7735,CC(C)(C)C1CCC(O)CC1,"Cyclohexanol, 4-(1,1-dimethylethyl)-",378.15,le15,1
7736,C=COCC(CC)CCCC,"Heptane, 3-((ethenyloxy)methyl)- (9CI)",291.75,le15,1
7737,CC(C)=CCCC(C)CCO,"6-Octen-1-ol, 3,7-dimethyl-",371.45,le15,1
7738,CC1CCC(C(C)(C)O)CC1,"Cyclohexanemethanol, alpha,alpha,4-trimethyl-",362.85,le15,1
7739,CCCCCCCCC(C)=O,2-Decanone,344.15,le15,1
7740,CCCCCCCC(=O)CC,3-Decanone,299.85,le15,1
7741,CC(C)C1CCC(C)C(O)C1,2-methyl-5-propan-2-ylcyclohexan-1-ol,359.85,le15,1
7742,CC(C)CCCCCCC=O,8-methylnonanal,343.85,le15,1
7743,CC(C)C1CCC(C)(O)CC1,1-methyl-4-propan-2-ylcyclohexan-1-ol,356.54999999999984,le15,1
7744,C=CCCCCCCCCO,9decen1ol,392.0,le15,1
7745,CCCCCCCCCC=O,Decanal,358.0,le15,1
7746,CC1(C)CC(N)CC(C)(C)N1,"Piperidine, 4-amino-2,2,6,6-tetramethyl-",345.15,le15,1
7747,CCCCCCC(C)CCC,4-methyldecane,322.5499999999999,le15,1
7748,CCCCCCCC(C)CC,3-methyldecane,323.5499999999999,le15,1
7749,CCOP(Cl)OCC,chloro(diethoxy)phosphane,274.25,le15,1
7750,O=C(O)c1ccccc1Cl,"Benzoic acid, 2-chloro-",393.65,le15,1
7751,O=C(O)c1cccc(Cl)c1,"Benzoic acid, 3-chloro-",397.05,le15,1
7752,O=Cc1cc(Cl)ccc1O,"Benzaldehyde, 5-chloro-2-hydroxy-",365.35,le15,1
7753,O=C(Cl)Oc1ccccc1,"Formic acid, chloro-, phenyl ester (8CI)",352.15,le15,1
7754,O=C(O)c1ccc(Cl)cc1,"Benzoic acid, 4-chloro-",511.15,le15,1
7755,Cc1cc(O)cc(C)c1Cl,"Phenol, 4-chloro-3,5-dimethyl-",379.05,le15,1
7756,CCOc1ccc(Cl)cc1,1-chloro-4-ethoxybenzene,356.85,le15,1
7757,ClCCOc1ccccc1,2-chloroethoxybenzene,373.75,le15,1
7758,COc1ccc(CCl)cc1,"Benzene, 1-(chloromethyl)-4-methoxy- (9CI)",382.55,le15,1
7759,CCOc1cccc(Cl)c1,1-chloro-3-ethoxybenzene,356.85,le15,1
7760,CCOc1ccccc1Cl,1-chloro-2-ethoxybenzene,355.45,le15,1
7761,Cc1cc(O)c(Cl)cc1C,"Phenol, 2-chloro-4,5-dimethyl- (9CI)",370.25,le15,1
7762,O=C(Cl)OCCCCl,3-chloropropyl carbonochloridate,347.65,le15,1
7763,CCOC(=O)C(Cl)Cl,"ethyl 2,2-dichloroacetate",328.75,le15,1
7764,Cl[C@@H]1OCCO[C@H]1Cl,"p-Dioxane, 2,3-dichloro-, trans-",367.05,le15,1
7765,O=[N+]([O-])c1ccc(F)cc1O,5-Fluoro-2-nitrophenol,364.15,le15,1
7766,O=[N+]([O-])c1ccc(O)cc1F,"Phenol, 3-fluoro-4-nitro-",422.65,le15,1
7767,CCC1(C)OC(=O)N(C)C1=O,"2,4-Oxazolidinedione, 5-ethyl-3,5-dimethyl-",335.0499999999999,le15,1
7768,NS(=O)(=O)c1ccccc1,Benzenesulphonamide,417.75,le15,1
7769,Cc1ccc2nc(C)ccc2c1,"Quinoline, 2,6-dimethyl-",379.65,le15,1
7770,Cc1cc(C)c2ccccc2n1,"2,4-dimethylquinoline",380.75,le15,1
7771,CCc1ccc2ccccc2n1,2-ethylquinoline,371.85,le15,1
7772,Cc1cc2ccccc2nc1C,"2,3-dimethylquinoline",382.85,le15,1
7773,CCc1cnc2ccccc2c1,3-ethylquinoline,381.15,le15,1
7774,c1ccc(Cn2cccc2)cc1,1-benzylpyrrole,376.35,le15,1
7775,Cc1ccc2ccccc2c1N,"1-Naphthylamine, 2-methyl-",430.25,le15,1
7776,Cc1cnc2ccccc2c1C,"3,4-dimethylquinoline",391.95,le15,1
7777,Cc1cc(C)c2ncccc2c1,"6,8-dimethylquinoline",386.65,le15,1
7778,Cc1ccc(C)c2ncccc12,"5,8-dimethylquinoline",386.05,le15,1
7779,NC[C@H]1CC[C@H](C(=O)O)CC1,"Cyclohexanecarboxylic acid, 4-(aminomethyl)-, trans-",408.50699999999995,le15,1
7780,C=CC(=O)NCOCCCC,"2-Propenamide, N-(butoxymethyl)-",397.05,le15,1
7781,C=C(C)C(=O)OCCN(C)C,"2-Propenoic acid, 2-methyl-, 2-(dimethylamino)ethyl ester",343.75,le15,1
7782,CCCC1OC1(CC)C(N)=O,"Hexanamide, 2,3-epoxy-2-ethyl-",418.95,le15,1
7783,CCN(CC)C(=O)CC(C)=O,"Butanamide, N,N-diethyl-3-oxo-",367.15,le15,1
7784,CCN(CC)CCCC(C)=O,"2-Pentanone, 5-(diethylamino)-",338.15,le15,1
7785,CCN(CC)C(=O)CC(C)C,"N,N-diethyl-3-methylbutanamide",351.85,le15,1
7786,CCCCN(C=O)CCCC,"Formamide, N,N-di-n-butyl-",373.15,le15,1
7787,CC(C)CCNCCC(C)C,"1-Butanamine, 3-methyl-N-(3-methylbutyl)-",319.75,le15,1
7788,CCCCCCCCN(C)C,"Octylamine, N,N-dimethyl- (8CI)",338.15,le15,1
7789,CCCCCCCCCCN,1decanamine,359.0,le15,1
7790,C=CC(Cl)=C(Cl)Cl,"1,3-Butadiene, 1,1,2-trichloro-",349.15,le15,1
7791,CC(C)(Cl)Br,2-bromo-2-chloropropane,290.65,le15,1
7792,CC(Br)CCl,2-bromo-1-chloropropane,300.65,le15,1
7793,CC(Cl)CBr,1-bromo-2-chloropropane,300.7,le15,1
7794,ClCCCBr,"Propane, 1-bromo-3-chloro-",311.15,le15,1
7795,O=C(O)c1cccc(Cl)n1,"2-Pyridinecarboxylic acid, 6-chloro- (9CI)",422.413,le15,1
7796,COc1cc(Cl)ccc1N,4-chloro-2-methoxyaniline,382.05,le15,1
7797,CCC(Cl)(Cl)[N+](=O)[O-],"1,1-dichloro-1-nitropropane",319.0499999999999,le15,1
7798,Brc1cccnc1,3-bromopyridine,324.85,le15,1
7799,Brc1ccccn1,"Pyridine, 2-bromo-",327.5499999999999,le15,1
7800,O=C(O)c1c(F)cccc1F,"Benzoic acid, 2,6-difluoro-",366.65,le15,1
7801,FC(F)=C(F)c1ccccc1,"Styrene, alpha,beta,beta-trifluoro-",305.35,le15,1
7802,NC(=O)NC1NC(=O)NC1=O,"Urea, N-(2,5-dioxo-4-imidazolidinyl)-",505.15,le15,1
7803,O=C1C=CC(=O)c2ccccc21,"1,4-Naphthalenedione",414.15,le15,1
7804,O=C1C=Cc2ccccc2C1=O,"1,2-Naphthalenedione",390.55,le15,1
7805,CCOC(=O)C(=O)CC(C)=O,"ethyl 2,4-dioxopentanoate",358.905,le15,1
7806,C=CC(OC(C)=O)OC(C)=O,"2-Propene-1,1-diol, diacetate",351.45,le15,1
7807,COC(=O)C(C(C)=O)C(C)=O,"Butanoic acid, 2-acetyl-3-oxo-, methyl ester (9CI)",355.54999999999984,le15,1
7808,COC(=O)/C=C(\C)C(=O)OC,"2-Butenedioic acid, 2-methyl-, dimethyl ester, (E)-",364.65,le15,1
7809,O=C(O)C1CCC(C(=O)O)C1,"1,3-Cyclopentanedicarboxylic acid",435.05,le15,1
7810,O=NN1CCCCC1C(=O)O,"Pipecolic acid, 1-nitroso-",463.25,le15,1
7811,COc1cccc2ccccc12,Methyl 1-naphthyl ether,375.45,le15,1
7812,OCc1cccc2ccccc12,naphthalen-1-ylmethanol,427.15,le15,1
7813,COc1ccc2ccccc2c1,Methyl 2-naphthyl ether,375.45,le15,1