,smiles,compound,flashpoint,source,pure substance
9929,CNC(=O)Nc1ccc(Cl)c(Cl)c1,"Urea, 1-(3,4-dichlorophenyl)-3-methyl- (6CI,7CI,8CI)",405.55,le15,1
9930,Cc1cc(C)nc(-c2ccc([N+](=O)[O-])o2)n1,"Pyrimidine, 4,6-dimethyl-2-(5-nitro-2-furyl)-",388.85,le15,1
9931,CC(C)(CO)[C@@H](O)C(=O)NCCC(=O)O,"beta-Alanine, N-(2,4-dihydroxy-3,3-dimethyl-1-oxobutyl)-, (R)- (9CI)",560.45,le15,1
9932,c1ccc(Nc2cccc3ccccc23)cc1,"1-Naphthalenamine, N-phenyl-",463.35,le15,1
9933,c1ccc(Nc2ccc3ccccc3c2)cc1,"2-Naphthalenamine, N-phenyl-",482.35,le15,1
9934,CCOC(=O)N(Cc1ccccc1)C1CC1,"Carbamic acid, cyclopropyl(phenylmethyl)-, ethyl ester",422.95,le15,1
9935,Nc1ccccc1C(=O)OC1CCCCC1,"Benzoic acid, 2-amino-, cyclohexyl ester",465.45,le15,1
9936,OCCN1CN(CCO)CN(CCO)C1,"2,2',2''-(Hexahydro-1,3,5-triazine-1,3,5-triyl)triethanol",493.25,le15,1
9937,O=C(Cl)c1ccccc1Br,2-bromobenzoyl chloride,380.15,le15,1
9938,O=C(Cl)c1ccc(Br)cc1,4-bromobenzoyl chloride,376.15,le15,1
9939,CCCCOC(=O)C(Cl)(Cl)Cl,"butyl 2,2,2-trichloroacetate",346.04999999999984,le15,1
9940,C[Si]1(C)N[Si](C)(C)N[Si](C)(C)N1,"Cyclotrisilazane, 2,2,4,4,6,6-hexamethyl-",332.15,le15,1
9941,CCCCCC[Si](Cl)(Cl)Cl,trichloro(hexyl)silane,353.45,le15,1
9942,Nc1ccc(Oc2ccc(Cl)cc2)cc1,"Benzenamine, 4-(4-chlorophenoxy)-",438.45,le15,1
9943,Oc1ccc(I)cc1,"Phenol, 4-iodo-",385.55,le15,1
9944,COC(=O)Nc1ccc(Cl)c(Cl)c1,"Carbanilic acid, 3,4-dichloro-, methyl ester",379.55,le15,1
9945,NC(=O)COc1ccc(Cl)cc1Cl,"Acetamide, 2-(2,4-dichlorophenoxy)-",470.05,le15,1
9946,O=C(CO)c1coc(=O)c2c(O)cccc12,8-Hydroxy-4-(hydroxyacetyl)-1H-2-benzopyran-1-one,472.05,le15,1
9947,Nc1ccc(-c2ccc(N)c(F)c2)cc1F,"(1,1'-Biphenyl)-4,4'-diamine, 3,3'-difluoro- (9CI)",425.35,le15,1
9948,FC(F)=C(F)CCSc1ncccn1,"Pyrimidine, 2-((3,4,4-trifluoro-3-butenyl)thio)-",393.55,le15,1
9949,N[C@@H](Cc1c[nH]c2ccc(O)cc12)C(=O)O,"Tryptophan, 5-hydroxy-, L-",541.8499999999998,le15,1
9950,FC(Cl)(Cl)C(Cl)(Cl)Cl,"1,1,1,2,2-pentachloro-2-fluoroethane",313.95,le15,1
9951,c1ccc(-c2ccc(-c3ccccc3)o2)cc1,"Furan, 2,5-diphenyl-",437.45,le15,1
9952,CCOC(=O)CC(=O)CCc1ccccc1,ethyl 3-oxo-5-phenylpentanoate,405.45,le15,1
9953,CC(C)(C)C(=O)OCC(=O)c1ccccc1,"Propanoic acid, 2,2-dimethyl-, 2-oxo-2-phenylethyl ester (9CI)",404.65,le15,1
9954,CCOC(CC(OCC)OCC)OCC,"Propane, 1,1,3,3-tetraethoxy- (9CI)",315.35,le15,1
9955,Cc1cccc(C)c1NC1=NCCCS1,"4H-1,3-Thiazine-2-amine, N-(2,6-dimethylphenyl)-5,6-dihydro- (9CI)",429.05,le15,1
9956,Cc1cc(C(C)(C)C)c(O)c(C(C)(C)C)c1,"Phenol, 2,6-bis(1,1-dimethylethyl)-4-methyl-",391.55,le15,1
9957,Cc1cc(C(C)(C)C)cc(C(C)(C)C)c1O,"2,4-ditert-butyl-6-methylphenol",396.15,le15,1
9958,CCC(C)Nc1ccc(NC(C)CC)cc1,"1,4-Benzenediamine, N,N'-bis(1-methylpropyl)-",465.75,le15,1
9959,FC(F)(F)c1nc2cccc(Cl)c2[nH]1,"Benzimidazole, 4-chloro-2-(trifluoromethyl)-",409.05,le15,1
9960,FC(F)(F)c1nc2ccc(Cl)cc2[nH]1,"Benzimidazole, 5-chloro-2-(trifluoromethyl)-",409.05,le15,1
9961,BrCI,bromo(iodo)methane,306.95,le15,1
9962,COP(=O)(OC)OC=C(Cl)Cl,"Phosphoric acid, 2,2-dichloroethenyl dimethyl ester",287.85,le15,1
9963,O=C(O)COc1ccc(Cl)cc1Cl,"Acetic acid, (2,4-dichlorophenoxy)-",435.95,le15,1
9964,COc1c(Cl)ccc(Cl)c1C(=O)O,"Benzoic acid, 3,6-dichloro-2-methoxy-",424.15,le15,1
9965,NC(=S)Nc1cc(Cl)ccc1Cl,"Thiourea, (2,5-dichlorophenyl)- (9CI)",418.95,le15,1
9966,CCCCCCCCCCBr,"Decane, 1-bromo-",367.594,le15,1
9967,c1ccc(-c2cnc(-c3ccccc3)o2)cc1,"2,5-diphenyl-1,3-oxazole",435.45,le15,1
9968,CNC(=O)Oc1cccc2c1OC(C)(C)C2,"Carbamic acid, methyl-, 2,3-dihydro-2,2-dimethyl-7-benzofuranyl ester",416.45,le15,1
9969,Cc1cc(C)cc(OCC2CNC(=O)O2)c1,"2-Oxazolidinone, 5-((3,5-dimethylphenoxy)methyl)-",501.35,le15,1
9970,CCOc1ccc(NC(=O)CC(C)=O)cc1,"Butanamide, N-(4-ethoxyphenyl)-3-oxo-",479.95,le15,1
9971,CN(C)C(=O)Oc1cccc2sccc12,"Carbamic acid, dimethyl-, benzo(b)thien-4-yl ester",434.55,le15,1
9972,CNNCc1ccc(C(=O)NC(C)C)cc1,"Benzamide, N-(1-methylethyl)-4-((2-methylhydrazino)methyl)- (9CI)",422.05,le15,1
9973,CCO[Si](CCCN)(OCC)OCC,"Propylamine, 3-(triethoxysilyl)- (8CI)",377.55,le15,1
9974,Cc1cc(Br)cc(Cl)c1O,"o-Cresol, 4-bromo-6-chloro-",380.55,le15,1
9975,CCOC(OCC)C(Cl)(Cl)Cl,"1,1,1-trichloro-2,2-diethoxyethane",275.95,le15,1
9976,O=[N+]([O-])c1ccc(S(=O)(=O)Cl)cc1,"Benzenesulfonyl chloride, p-nitro- (8CI)",438.45,le15,1
9977,Nc1cnn(-c2ccccc2)c(=O)c1Cl,"3(2H)-Pyridazinone, 5-amino-4-chloro-2-phenyl-",415.75,le15,1
9978,Clc1sc(Cl)c(Cl)c1Cl,"Thiophene, 2,3,4,5-tetrachloro-",386.15,le15,1
9979,Fc1ccccc1I,1-fluoro-2-iodobenzene,344.15,le15,1
9980,Fc1ccc(I)cc1,1-fluoro-4-iodobenzene,341.15,le15,1
9981,O=C1OC(=O)C(F)(F)C(F)(F)C1(F)F,"3,3,4,4,5,5-hexafluorooxane-2,6-dione",276.45,le15,1
9982,O=[N+]([O-])N1CN([N+](=O)[O-])CN([N+](=O)[O-])C1,"1,3,5-Triazine, hexahydro-1,3,5-trinitro-",678.75,le15,1
9983,COC(=O)C(C#N)=Cc1ccc([N+](=O)[O-])o1,"2-Furanacrylic acid, alpha-cyano-5-nitro-, methyl ester",451.75,le15,1
9984,O=C1c2ccccc2C(=O)C1c1ccccc1,"1H-Indene-1,3(2H)-dione, 2-phenyl-",481.15,le15,1
9985,Cc1ccc2c(c1)C(=O)c1ccccc1C2=O,"Anthraquinone, 2-methyl- (8CI)",482.15,le15,1
9986,CCOC(=O)c1ccccc1C(=O)OCC,"1,2-Benzenedicarboxylic acid, diethyl ester",428.95,le15,1
9987,c1cc(OCC2CO2)cc(OCC2CO2)c1,"Oxirane, 2,2'-(1,3-phenylenebis(oxymethylene))bis-",386.15,le15,1
9988,C=CCc1cc2c(c(OC)c1OC)OCO2,"4,5-dimethoxy-6-prop-2-enyl-1,3-benzodioxole",378.85,le15,1
9989,C=CCc1cc(OC)c2c(c1OC)OCO2,"4,7-dimethoxy-5-prop-2-enyl-1,3-benzodioxole",390.35,le15,1
9990,CCOC(=O)c1cccc(C(=O)OCC)c1,"diethyl benzene-1,3-dicarboxylate",430.85,le15,1
9991,C#CCOC(=O)CCCCC(=O)OCC#C,"Hexanedioic acid, di-2-propynyl ester (9CI)",419.75,le15,1
9992,CCOC(=O)c1ccccc1C(=O)OCC,Diethylphthalate,433.0,le15,1
9993,Cc1ccc(S(=O)(=O)n2ccnc2)cc1,1-(p-Toluenesulphonyl)imidazole,474.35,le15,1
9994,COCCOCCOCCOCCOC,Bis(2-(2-methoxyethoxy)ethyl) ether,413.75,le15,1
9995,CN(C)C(=O)NC1CC2CC1C1CCCC21,"Urea, N,N-dimethyl-N'-(octahydro-4,7-methano-1H-inden-5-yl)-",466.35,le15,1
9996,CO[Si](CCCNCCN)(OC)OC,"1,2-Ethanediamine, N-(3-(trimethoxysilyl)propyl)-",381.25,le15,1
9997,CC(C)=CCCC(C)=CCCC(C)=CCO,"2,6,10-Dodecatrien-1-ol, 3,7,11-trimethyl-",385.65,le15,1
9998,C#CCCCCCCCCCCCCCC,hexadec-1-yne,401.12699999999995,le15,1
9999,CC(CC1CCCCC1)CC1CCCCC1,(3-cyclohexyl-2-methylpropyl)cyclohexane,399.85,le15,1
10000,C1CCC(CCCCC2CCCCC2)CC1,4-cyclohexylbutylcyclohexane,402.05,le15,1
10001,CCCC(C1CCCCC1)C1CCCCC1,1-cyclohexylbutylcyclohexane,399.25,le15,1
10002,Oc1ccc2ccccc2c1Br,1-bromonaphthalen-2-ol,416.65,le15,1
10003,Clc1ccc(-c2ccc(Cl)cc2)cc1,"Biphenyl, 4,4'-dichloro- (8CI)",418.35,le15,1
10004,Clc1cccc(-c2cccc(Cl)c2)c1,"1,1'-Biphenyl, 3,3'-dichloro-",423.65,le15,1
10005,O=C(O)CCC([N+](=O)[O-])([N+](=O)[O-])[N+](=O)[O-],"Butyric acid, 4,4,4-trinitro- (8CI)",429.55,le15,1
10006,CCCCCCC(Br)C(=O)O,2-Bromooctanoic acid,397.15,le15,1
10007,CCCCC(Br)C(=O)OCC,"Hexanoic acid, 2-bromo-, ethyl ester",364.55,le15,1
10008,Nc1ccc2c(c1)C(=O)c1ccccc1C2=O,"9,10-Anthracenedione, 2-amino-",556.15,le15,1
10009,O=[N+]([O-])c1cc2ccccc2c2ccccc12,"Phenanthrene, 9-nitro-",480.65,le15,1
10010,O=[N+]([O-])c1ccc2cc3ccccc3cc2c1,"Anthracene, 2-nitro-",487.85,le15,1
10011,Nc1cccc2c1C(=O)c1ccccc1C2=O,"9,10-Anthracenedione, 1-amino-",508.15,le15,1
10012,O=c1oc(-c2ccccc2)nc2ccccc12,"4H-3,1-Benzoxazin-4-one, 2-phenyl-",436.15,le15,1
10013,CC(=O)Nc1ccc2c(c1)Cc1ccccc1-2,"Acetamide, N-9H-fluoren-2-yl-",550.3499999999998,le15,1
10014,CCN(CC)C(=O)c1ccc(O)c(OC)c1,"Benzamide, N,N-diethyl-4-hydroxy-3-methoxy-",469.75,le15,1
10015,O=[As](Cl)(Cl)C=CCl,"Arsine oxide, dichloro(2-chlorovinyl)-",384.55,le15,1
10016,CCCCSc1nc2ccccc2s1,"Benzothiazole, 2-(butylthio)-",432.75,le15,1
10017,C=CC(F)(Cl)C(F)(F)Br,"4-bromo-3-chloro-3,4,4-trifluorobut-1-ene",294.25,le15,1
10018,O=C(CCl)c1ccc(Cl)cc1Cl,"Ethanone, 2-chloro-1-(2,4-dichlorophenyl)-",385.15,le15,1
10019,C#CC(C)OC(=O)Nc1cccc(Cl)c1,"Carbamic acid, (3-chlorophenyl)-, 1-methyl-2-propynyl ester (9CI)",390.25,le15,1
10020,C=C(Cl)CSC(=S)N(CC)CC,"Carbamodithioic acid, diethyl-, 2-chloro-2-propenyl ester (9CI)",386.75,le15,1
10021,FC(F)(Br)CBr,"1,2-dibromo-1,1-difluoroethane",282.65,le15,1
10022,COC(=O)/C=C(\C)OP(=O)(OC)OC,"2-Butenoic acid, 3-((dimethoxyphosphinyl)oxy)-, methyl ester, (E)-",388.25,le15,1
10023,O=C(O)CNC(=O)c1ccc([N+](=O)[O-])cc1,"Glycine, N-(4-nitrobenzoyl)-",548.15,le15,1
10024,O=C1c2ccccc2C(=O)c2c(O)cccc21,"9,10-Anthracenedione, 1-hydroxy-",491.95,le15,1
10025,O=C1CC(C(=O)O)CC(=O)C1=C(O)C1CC1,"4-[cyclopropyl(hydroxy)methylidene]-3,5-dioxocyclohexane-1-carboxylic",523.8499999999998,le15,1
10026,Nc1c(O)cccc1C(=O)CC(N)C(=O)O,"Benzenebutanoic acid, alpha,2-diamino-3-hydroxy-gamma-oxo- (9CI)",541.05,le15,1
10027,CC(C)OP(=O)(OC(C)C)OC(C)C,tripropan-2-yl phosphate,375.55,le15,1
10028,O=C(C=Cc1ccccc1)c1ccc(O)cc1,"Chalcone, 4'-hydroxy- (8CI)",452.25,le15,1
10029,CCCOP(=O)(OCCC)OCCC,"Phosphoric acid, tripropyl ester",394.45,le15,1
10030,Nc1ccc(-c2nc3cc(N)ccc3[nH]2)cc1,"1H-Benzimidazol-5-amine, 2-(4-aminophenyl)-",590.75,le15,1
10031,CCCCOCC(O)COc1ccccc1,"2-Propanol, 1-butoxy-3-phenoxy-",436.25,le15,1
10032,CCCCCCCCCCC1CCCCC1,decylcyclohexane,400.65,le15,1
10033,C=CCCCCCCCCCCCCCC,1hexadecene,405.0,le15,1
10034,FC(F)(F)c1ccccc1Br,"Toluene, o-bromo-alpha,alpha,alpha-trifluoro-",324.85,le15,1
10035,FC(F)(F)c1cccc(Br)c1,1-bromo-3-(trifluoromethyl)benzene,316.45,le15,1
10036,FC(F)(F)c1ccc(Br)cc1,1-bromo-4-(trifluoromethyl)benzene,322.039,le15,1
10037,Clc1cc(Cl)nc(-c2ccccc2)n1,"Pyrimidine, 4,6-dichloro-2-phenyl-",392.05,le15,1
10038,ClCc1ccc(CCl)c2ccccc12,"Naphthalene, 1,4-bis(chloromethyl)-",460.35,le15,1
10039,O=C1OCCN1N=Cc1ccc([N+](=O)[O-])o1,"2-Oxazolidinone, 3-(((5-nitro-2-furanyl)methylene)amino)-",440.65,le15,1
10040,Cc1c(C(N)=O)cc([N+](=O)[O-])cc1[N+](=O)[O-],"Benzamide, 2-methyl-3,5-dinitro-",407.15,le15,1
10041,O=C1c2ccccc2-c2ccc([N+](=O)[O-])cc21,"9H-Fluoren-9-one, 2-nitro-",488.25,le15,1
10042,O=[N+]([O-])c1cccc2nc3ccccc3nc12,1-Nitrophenazine,490.65,le15,1
10043,NC(Cc1ccc(O)c(C(=O)O)c1)C(=O)O,"Tyrosine, 3-carboxy-, DL-",520.15,le15,1
10044,O=[N+]([O-])c1ccc(C=Cc2ccccc2)cc1,"Benzene, 1-nitro-4-(2-phenylethenyl)- (9CI)",446.25,le15,1
10045,O=C(O)c1ccccc1N=Cc1ccccc1,"Benzoic acid, 2-((phenylmethylene)amino)- (9CI)",493.65,le15,1
10046,O=[N+]([O-])c1ccc2c(c1)CCc1ccccc1-2,"Phenanthrene, 9,10-dihydro-2-nitro-",459.05,le15,1
10047,Cc1ccccc1OCC(O)COC(N)=O,"1,2-Propanediol, 3-(2-methylphenoxy)-, 1-carbamate (9CI)",505.95,le15,1
10048,c1ccc(CNc2[nH]cnc3ncnc2-3)cc1,"1H-Purin-6-amine, N-(phenylmethyl)-",547.15,le15,1
10049,Nc1ncnc2c1ncn2Cc1ccccc1,"9H-Purin-6-amine, 9-(phenylmethyl)- (9CI)",522.15,le15,1
10050,COc1ccc(C=Cc2ccc(N)cc2)cc1,"Benzenamine, 4-(2-(4-methoxyphenyl)ethenyl)-",488.55,le15,1
10051,CN(C)c1ccc(N=Nc2ccccc2)cc1,"Benzenamine, N,N-dimethyl-4-(phenylazo)-",451.35,le15,1
10052,CN(C)N=Nc1ccc(-c2ccccc2)cc1,"1-Triazene, 1-(1,1'-biphenyl)-4-yl-3,3-dimethyl- (9CI)",433.65,le15,1
10053,COc1nc(NC(C)C)nc(NC(C)C)n1,"1,3,5-Triazine-2,4-diamine, 6-methoxy-N,N'-bis(1-methylethyl)-",444.05,le15,1
10054,CNC(=O)Oc1cc(C)c(SC)c(C)c1,"Phenol, 3,5-dimethyl-4-(methylthio)-, methylcarbamate (9CI)",414.85,le15,1
10055,CC(NC(C)c1ccccc1)c1ccccc1,"Benzenemethanamine, alpha-methyl-N-(1-phenylethyl)- (9CI)",410.35,le15,1
10056,O=C(O)c1c(Cl)ccc(Cl)c1Cl,"Benzoic acid, 2,3,6-trichloro-",423.25,le15,1
10057,O=[N+]([O-])c1ccc(Cl)cc1C(F)(F)F,"5-Chloro-alpha,alpha,alpha-trifluoro-2-nitrotoluene",367.05,le15,1
10058,O=[N+]([O-])c1cc(C(F)(F)F)ccc1Cl,"Toluene, 4-chloro-alpha,alpha,alpha-trifluoro-3-nitro- (8CI)",374.817,le15,1
10059,O=[N+]([O-])c1ccc(Cl)c(C(F)(F)F)c1,1-chloro-4-nitro-2-(trifluoromethyl)benzene,371.15,le15,1
10060,CCc1cccc(CC)c1NC(=O)CCl,"Acetamide, 2-chloro-N-(2,6-diethylphenyl)-",450.25,le15,1
10061,Brc1nc[nH]c1Br,"Imidazole, 4,5-dibromo- (7CI,8CI)",461.95,le15,1
10062,Clc1ccc(Br)c(Cl)c1,"1-bromo-2,4-dichlorobenzene",379.85,le15,1
10063,Clc1cccc(Cl)c1Br,"2-bromo-1,3-dichlorobenzene",384.45,le15,1
10064,Clc1cc(Cl)cc(Br)c1,"1-bromo-3,5-dichlorobenzene",377.05,le15,1
10065,Clc1cccc(Br)c1Cl,"1-bromo-2,3-dichlorobenzene",381.85,le15,1
10066,Clc1ccc(Cl)c(Br)c1,"2-bromo-1,4-dichlorobenzene",379.55,le15,1
10067,Clc1ccc(Br)cc1Cl,"4-bromo-1,2-dichlorobenzene",377.25,le15,1
10068,CC(C)c1cc([N+](=O)[O-])cc([N+](=O)[O-])c1O,"Phenol, 2-(1-methylethyl)-4,6-dinitro- (9CI)",400.65,le15,1
10069,N[C@@H](Cc1ccc(O)c([N+](=O)[O-])c1)C(=O)O,"Tyrosine, 3-nitro-, L- (8CI)",487.95,le15,1
10070,O=C(OC(=O)c1ccccc1)c1ccccc1,benzoyl benzoate,441.55,le15,1
10071,O=C1c2c(O)cccc2Cc2cccc(O)c21,"9(10H)-Anthracenone, 1,8-dihydroxy- (9CI)",521.75,le15,1
10072,COC(=O)c1cc(OC)c(OC)c(OC)c1,"methyl 3,4,5-trimethoxybenzoate",388.35,le15,1
10073,Nc1ccc2c(c1)Cc1cc([N+](=O)[O-])ccc1-2,"9H-Fluoren-2-amine, 7-nitro- (9CI)",504.15,le15,1
10074,O=C(C=Cc1ccccc1)c1ccc(F)cc1,"2-Propen-1-one, 1-(4-fluorophenyl)-3-phenyl- (9CI)",433.45,le15,1
10075,O=C(C=Cc1ccc(F)cc1)c1ccccc1,"2-Propen-1-one, 3-(4-fluorophenyl)-1-phenyl- (9CI)",430.45,le15,1
10076,O=C(OCCc1ccccc1)c1ccccc1,"Benzoic acid, 2-phenylethyl ester",433.85,le15,1
10077,Cc1ccc(OC(=O)Cc2ccccc2)cc1,"Acetic acid, phenyl-, p-tolyl ester (6CI,7CI,8CI)",395.45,le15,1
10078,O=C(Cc1ccccc1)OCc1ccccc1,"Benzeneacetic acid, phenylmethyl ester",528.45,le15,1
10079,c1ccc(-c2ccccc2OCC2CO2)cc1,"Propane, 1-(2-biphenylyloxy)-2,3-epoxy- (6CI,7CI,8CI)",410.45,le15,1
10080,c1ccc(-c2ccc(OCC3CO3)cc2)cc1,"Propane, 1-(4-biphenyloxy)-2,3-epoxy- (7CI,8CI)",430.75,le15,1
10081,CC(C)(C(=O)c1cccnc1)c1cccnc1,"1-Propanone, 2-methyl-1,2-di-3-pyridinyl-",462.45,le15,1
10082,CC(=O)Nc1ccc(-c2ccc(N)cc2)cc1,"Acetamide, N-(4'-amino(1,1'-biphenyl)-4-yl)- (9CI)",508.45,le15,1
10083,O=NN(Cc1ccccc1)C(=O)c1ccccc1,"Benzenemethanamide, N-nitroso-N-(phenylmethyl)- (9CI)",481.55,le15,1
10084,CCOP(=O)(OCC)SC(C)(C)C,"Phosphorothioic acid, S-tert-butyl O,O-diethyl ester",383.35,le15,1
10085,CC(C)Nc1ccc(Nc2ccccc2)cc1,"1,4-Benzenediamine, N-(1-methylethyl)-N'-phenyl-",504.05,le15,1
10086,Cc1cc(Cc2ccc(N)c(C)c2)ccc1N,"o-Toluidine, 4,4'-methylenedi- (8CI)",512.05,le15,1
10087,C=C(C)C(=O)OCCCCCCCCCC,"2-Propenoic acid, 2-methyl-, decyl ester",387.85,le15,1
10088,O=[N+]([O-])c1cc(Cl)c(Cl)cc1Cl,"Benzene, 1,2,4-trichloro-5-nitro-",402.85,le15,1
10089,CCCCCCCC(=O)CCCCCCC,pentadecan-8-one,356.25,le15,1
10090,CCCCCCCCCCCCCC(C)=O,pentadecan-2-one,357.04999999999984,le15,1
10091,CC(CC(C)(C)C)CC(C)(C)CC(C)(C)C,"Nonane, 2,2,4,4,6,8,8-heptamethyl-",368.75,le15,1
10092,CC(C)CC(C)(C)CC(C)(C)CC(C)(C)C,"2,2,4,4,6,6,8-heptamethylnonane",383.35,le15,1
10093,N#CC1=C(C#N)C(=O)C(Cl)=C(Cl)C1=O,"1,4-Cyclohexadiene-1,2-dicarbonitrile, 4,5-dichloro-3,6-dioxo-",409.45,le15,1
10094,O=C1C(Cl)=C(Cl)C(=O)c2ccccc21,"1,4-Naphthalenedione, 2,3-dichloro-",400.65,le15,1
10095,O=[N+]([O-])OCC(CO[N+](=O)[O-])O[N+](=O)[O-],"1,2,3-Propanetriol, trinitrate",285.15,le15,1
10096,Cc1c([N+](=O)[O-])cc([N+](=O)[O-])cc1[N+](=O)[O-],"Benzene, 2-methyl-1,3,5-trinitro-",440.25,le15,1
10097,Cc1ccc([N+](=O)[O-])c([N+](=O)[O-])c1[N+](=O)[O-],"1-methyl-2,3,4-trinitrobenzene",504.65,le15,1
10098,O=[N+]([O-])c1ccc(N=Nc2ccccc2)cc1,"Diazene, (4-nitrophenyl)phenyl- (9CI)",464.55,le15,1
10099,NC(=O)C(O)(c1ccccc1)c1ccccc1,"Benzeneacetamide, alpha-hydroxy-alpha-phenyl- (9CI)",489.75,le15,1
10100,CC(=O)Nc1ccc(Oc2ccccc2)cc1,N-(4-Phenoxyphenyl)acetamide,475.35,le15,1
10101,COc1cc(N=Nc2ccccc2)ccc1N,"Benzenamine, 2-methoxy-4-(phenylazo)- (9CI)",468.15,le15,1
10102,CC(C)Oc1ccc(Nc2ccccc2)cc1,"Benzenamine, 4-(1-methylethoxy)-N-phenyl-",420.55,le15,1
10103,CCNc1nc(NC(C)C)nc(SC)n1,"1,3,5-Triazine-2,4-diamine, N-ethyl-N'-(1-methylethyl)-6-(methylthio)-",466.65,le15,1
10104,COc1cc(Cl)c(Cl)c(Cl)c1O,"Phenol, 2,3,4-trichloro-6-methoxy-",403.05,le15,1
10105,CCCCCN(CCCCC)CCCCC,"1-Pentanamine, N,N-dipentyl-",370.95,le15,1
10106,CC(C)CCN(CCC(C)C)CCC(C)C,"3-methyl-N,N-bis(3-methylbutyl)butan-1-amine",357.25,le15,1
10107,CCCCCCCCCCCCCCCN,1-Pentadecanamine,402.45,le15,1
10108,N#Cc1cc([N+](=O)[O-])c(Cl)c([N+](=O)[O-])c1,"Benzonitrile, 4-chloro-3,5-dinitro-",424.35,le15,1
10109,CNC(=O)Oc1cccc(C(C)C)c1Cl,"Phenol, 2-chloro-3-(1-methylethyl)-, methylcarbamate (9CI)",401.75,le15,1
10110,O=[N+]([O-])C(Br)=Cc1ccccc1,"Benzene, (2-bromo-2-nitroethenyl)-",399.35,le15,1
10111,Cc1ccc2c(Cl)cc(Cl)c(O)c2n1,"8-Quinolinol, 5,7-dichloro-2-methyl-",439.05,le15,1
10112,Cc1ccc(NC(=O)CBr)cc1,2-Bromo-N-(4-methylphenyl)acetamide,441.85,le15,1
10113,CN(C)N=Nc1ccc(Br)cc1,"1-Triazene, 1-(4-bromophenyl)-3,3-dimethyl- (9CI)",385.25,le15,1
10114,O=C(O)c1cc([N+](=O)[O-])cc([N+](=O)[O-])c1O,"Benzoic acid, 2-hydroxy-3,5-dinitro-",446.95,le15,1
10115,CCN(CC)c1ccc(Br)cc1,"4-bromo-N,N-diethylaniline",398.25,le15,1
10116,O=C(O)C(O)(c1ccccc1)c1ccccc1,"Benzeneacetic acid, alpha-hydroxy-alpha-phenyl-",488.45,le15,1
10117,O=C(OCc1ccccc1)c1ccccc1O,"Benzoic acid, 2-hydroxy-, phenylmethyl ester",410.15,le15,1
10118,COc1ccc(C(=O)c2ccccc2)c(O)c1,"Methanone, (2-hydroxy-4-methoxyphenyl)phenyl-",413.65,le15,1
10119,Cc1cc2cc3c(C)cc(=O)oc3c(C)c2o1,"7H-Furo(3,2-g)(1)benzopyran-7-one, 2,5,9-trimethyl-",462.25,le15,1
10120,Cc1ccc(Nc2ccc([N+](=O)[O-])cc2)cc1,"Benzenamine, 4-methyl-N-(4-nitrophenyl)-",468.15,le15,1
10121,PCCC(c1ccccc1)c1ccccc1,"Phosphine, diphenylpropyl-",423.65,le15,1
10122,c1ccc2c(c1)c1ccccc1c1ccccc21,Triphenylene,482.25,le15,1
10123,c1ccc2c(c1)ccc1c3ccccc3ccc21,Chrysene,482.25,le15,1
10124,CC(C)(c1ccc(O)cc1)c1ccc(O)cc1,"Phenol, 4,4'-(1-methylethylidene)bis-",500.15,le15,1
10125,S=C(Nc1ccccc1)Nc1ccccc1,"Thiourea, N,N'-diphenyl-",437.85,le15,1
10126,Cc1ccc(S(=O)(=O)OCC(C)C)cc1,"p-Toluenesulfonic acid, isobutyl ester",425.95,le15,1
10127,CCN(CC)S(=O)(=O)c1ccc(N)cc1,"Benzenesulfonamide, 4-amino-N,N-diethyl-",454.25,le15,1
10128,CCCSP(=O)(OC)SCCC,"Phosphorodithioic acid, O-methyl S,S-dipropyl ester",404.45,le15,1
10129,CCS(=O)(=O)C(C)(C)S(=O)(=O)CC,"2,2-bis(ethylsulfonyl)propane",556.05,le15,1
10130,CCCCCCCCCCCC(=O)OCC,"Lauric acid, ethyl ester (8CI)",391.75,le15,1
10131,CCCSP(C)(=S)SCCC,"Phosphonotrithioic acid, methyl-, dipropyl ester",409.45,le15,1
10132,CCCCCCCC(=O)OCCCCCC,"Octanoic acid, hexyl ester",393.15,le15,1
10133,CCCCCCCCOC(=O)CCCCC,octyl hexanoate,393.15,le15,1
10134,CCCCCCCCCCCCCCCO,pentadecan-1-ol,403.25,le15,1
10135,CCCCCCCCCCCCCC(C)O,pentadecan-2-ol,382.15,le15,1
10136,Cc1cc(Cl)ccc1OCCCC(=O)O,"Butanoic acid, 4-(4-chloro-2-methylphenoxy)- (9CI)",464.65,le15,1
10137,O=C(CBr)OCc1ccccc1,"Acetic acid, bromo-, phenylmethyl ester",389.65,le15,1
10138,CCOC(=O)c1ccc(Br)cc1,"Benzoic acid, p-bromo-, ethyl ester (8CI)",386.15,le15,1
10139,CCOC(=O)c1ccccc1Br,ethyl 2-bromobenzoate,383.25,le15,1
10140,Brc1cccc(C2OCCO2)c1,"2-(3-bromophenyl)-1,3-dioxolane",386.15,le15,1
10141,CCOC(=O)c1cccc(Br)c1,ethyl 3-bromobenzoate,385.15,le15,1
10142,O=[N+]([O-])c1cc([N+](=O)[O-])c(O)c([N+](=O)[O-])c1,"Phenol, 2,4,6-trinitro-",407.05,le15,1
10143,Nc1ccc(C(=O)Oc2ccccc2)c(O)c1,"Salicylic acid, 4-amino-, phenyl ester (8CI)",472.75,le15,1
10144,COc1ccc2c(OC)c3ccoc3nc2c1,"Furo(2,3-b)quinoline, 4,7-dimethoxy-",457.35,le15,1
10145,COc1c2ccoc2nc2c(OC)cccc12,"Furo(2,3-b)quinoline, 4,8-dimethoxy-",457.35,le15,1
10146,O=C(Nc1ccc(O)cc1)c1ccccc1O,"Benzamide, 2-hydroxy-N-(4-hydroxyphenyl)- (9CI)",439.05,le15,1
10147,Nc1ccc(-c2ccc(N)cc2[N+](=O)[O-])cc1,"Benzidine, 2-nitro-",486.85,le15,1
10148,CC(=O)Nc1ccc(-c2ccc(F)cc2)cc1,"Acetamide, N-(4'-fluoro(1,1'-biphenyl)-4-yl)- (9CI)",478.65,le15,1
10149,O=C(CF)Nc1ccc(-c2ccccc2)cc1,"Acetanilide, 2-fluoro-4'-phenyl-",486.25,le15,1
10150,c1ccc2c(c1)ccc1c2ccc2cccnc21,"Naphtho(1,2-h)quinoline",476.35,le15,1
10151,c1ccc2cc3c(ccc4cccnc43)cc2c1,"Naphtho(2,3-h)quinoline",476.35,le15,1
10152,c1ccc2c(c1)ccc1c3ccncc3ccc21,"Naphth(2,1-f)isoquinoline",486.35,le15,1
10153,c1ccc2c(c1)ccc1c3cccnc3ccc21,"Naphtho(2,1-f)quinoline",476.35,le15,1
10154,COc1ccc(Nc2ccc(OC)cc2)cc1,"Benzenamine, 4-methoxy-N-(4-methoxyphenyl)-",423.65,le15,1
10155,CC(C)NCC(O)c1ccc2ccccc2c1,"2-Naphthalenemethanol, alpha-(((1-methylethyl)amino)methyl)-",357.45,le15,1
10156,ClNc1nc(NCl)nc(NCl)n1,"Melamine, N2,N4,N6-trichloro- (8CI)",478.55,le15,1
10157,NN=CNC(=O)c1nc(Cl)c(N)nc1N,"Pyrazinecarboxamide, 3,5-diamino-N-(aminoiminomethyl)-6-chloro-",606.8499999999998,le15,1
10158,Clc1ccc(-c2nc3ccccc3o2)cc1,"Benzoxazole, 2-(p-chlorophenyl)-",421.95,le15,1