,smiles,compound,flashpoint,source,pure substance
13813,Clc1ccc([Si](Cl)(Cl)Cl)cc1,Trichloro(p-chlorophenyl)silane,397.05,didier12,1
13814,[SiH3][SiH2][SiH3],Trisilane,273.15,didier12,1
13815,[SiH3]CCCCCCCCC(Cl)(Cl)Cl,Trichlorononylsilane,387.15,didier12,1
13816,[SiH3]CC(Cl)Cl,Dichloroethylsilane,263.75,didier12,1
13817,Clc1cccc([Si](Cl)(Cl)Cl)c1Cl,Trichloro(dichlorophenyl)silane,419.15,didier12,1
13818,C[Si](C)(C)[SiH]([Si](C)(C)C)[Si](C)(C)C,Tris(trimethylsilyl)silane,328.15,didier12,1
13819,C[Si](C)(C)O[SiH](O[Si](C)(C)C)O[Si](C)(C)C,Tris(trimethylsiloxy)silane,323.15,didier12,1
13820,CCCCCCCCCCCCCCCC[Si](Cl)(Cl)Cl,Hexadecyltrichlorosilane,427.15,didier12,1
13821,Cl[SiH2]Cl,Dichlorosilane,236.15,didier12,1
13822,C[SiH](Cl)Cl,Methyldichlorosilane,241.15,didier12,1
13823,C[Si](C)(C)I,Iodotrimethylsilane,288.15,didier12,1
13824,C[Si](C)(Cl)Cl,Dimethyldichlorosilane,257.15,didier12,1
13825,C[Si](C)(Cl)CBr,Bromomethyldimethylchlorosilane,314.15,didier12,1
13826,C[SiH](C)C,Trimethylsilane,204.15,didier12,1
13827,CC(C)=C[SiH2]Cl,Dimethylvinylchlorosilane,268.15,didier12,1
13828,C[Si](C)(Cl)O[Si](C)(C)Cl,"1,3-Dichlorotetramethyldisiloxane",288.15,didier12,1
13829,C[SiH](C)O[SiH](C)C,"1,1,3,3-Tetramethyldisiloxane",251.15,didier12,1
13830,CN([SiH3])[Si](C)(C)C,Tetramethyldisilazane,284.15,didier12,1
13831,C=CC[Si](C)(C)Cl,Allyldimethylchlorosilane,278.15,didier12,1
13832,CCCC(C)[Si](Cl)(Cl)Cl,sec-Amyltrichlorosilane,303.15,didier12,1
13833,CCCC[Si](C)(Cl)Cl,n-Butylmethyldichlorosilane,303.15,didier12,1
13834,CN(C)C([SiH3])N(C)C,Bis(dimethylamino)methylsilane,270.15,didier12,1
13835,Cl[Si](Cl)(Cl)c1ccccc1,Phenyltrichlorosilane,364.15,didier12,1
13836,CC(=O)O[Si](C)(C)OC(C)=O,Dimethyldiacetoxysilane,310.15,didier12,1
13837,CC#C[Si](C)(C)C,1-Trimethylsilylpropyne,270.15,didier12,1
13838,C=C[Si](C)(C)OCC,Vinyldimethylethoxysilane,277.15,didier12,1
13839,C=CCO[Si](C)(C)C,Allyloxytrimethylsilane,273.15,didier12,1
13840,C=CC[Si](OC)(OC)OC,Allyltrimethoxysilane,319.15,didier12,1
13841,CO[Si](CCCCl)(OC)OC,3-Chloropropyltrimethoxysilane,348.15,didier12,1
13842,CCC[Si](OC)(OC)OC,n-Propyltrimethoxysilane,298.15,didier12,1
13843,C[Si](C)(C)O[Si](C)(C)C,Hexamethyldisiloxane,270.15,didier12,1
13844,C[Si](C)(C)[Si](C)(C)C,Hexamethyldisilane,272.15,didier12,1
13845,C=C[Si](C)(CC)CC,Vinyldiethylmethylsilane,288.15,didier12,1
13846,CO[Si](CC(C)C)(OC)OC,Isobutyltrimethoxysilane,315.15,didier12,1
13847,C[Si](C)(Cl)c1ccccc1,Phenyldimethylchlorosilane,334.15,didier12,1
13848,CC[Si](CC)(CC)N(C)C,"(N,N-Dimethylamino)triethylsilane",299.15,didier12,1
13849,C=C[Si](OC(C)=O)(OC(C)=O)OC(C)=O,Vinyltriacetoxysilane,361.15,didier12,1
13850,CC[Si](OC(C)=O)(OC(C)=O)OC(C)=O,Ethyltriacetoxysilane,377.15,didier12,1
13851,C[Si](C)(C)C1C=CCC1,3-(Trimethylsilyl)cyclopentene,299.15,didier12,1
13852,C=C[Si](CC)(CC)CC,Vinyltriethylsilane,298.15,didier12,1
13853,CCCCCCCC[SiH3],n-Octylsilane,309.15,didier12,1
13854,CO[Si](C)(OC)c1ccccc1,Methylphenyldimethoxysilane,349.15,didier12,1
13855,CCO[Si](CCC#N)(OCC)OCC,2-Cyanoethyltriethoxysilane,359.15,didier12,1
13856,CO[Si](CCCOCC1CO1)(OC)OC,3-Glycidoxypropyltrimethoxysilane,383.15,didier12,1
13857,CC(C)(C)[Si](C)(Cl)C(C)(C)C,Di-t-butylmethylchlorosilane,342.15,didier12,1
13858,CCC[Si](Cl)(CCC)CCC,Tri-n-propylchlorosilane,349.15,didier12,1
13859,CC(C)N(C(C)C)[Si](C)(C)C,(Diisopropylamino)trimethylsilane,301.15,didier12,1
13860,C[Si](C)(C)O[Si](C)(C)O[Si](C)(C)O[Si](C)(C)Cl,1-Chlorononamethyltetrasiloxane,347.15,didier12,1
13861,C[Si](C)(C)OC([SiH3])(O[Si](C)(C)C)O[Si](C)(C)C,Tristrimethylsiloxymethylsilane,336.15,didier12,1
13862,[SiH3]C(c1ccccc1)c1ccccc1,Diphenylmethylsilane,393.15,didier12,1
13863,C=C(C)O[Si](C)(C)C,Trimethyl[(1-methylethenyl)oxy]silane,272.15,didier12,1
13864,FC(F)(F)CC[SiH2]C(Cl)Cl,"Dichloromethyl-3,3,3-trifluoropropylsilane",288.15,didier12,1
13865,C[Si](C)(C)CCOCCl,[2-(chloromethoxy)ethyl]trimethylsilane,319.15,didier12,1
13866,c1ccc([SiH](c2ccccc2)c2ccccc2)cc1,Triphenylsilane,416.35,didier12,1
13867,Cl[SiH](Cl)Cl,Trichlorosilane,245.15,didier12,1