,smiles,compound,flashpoint,source,pure substance
5022,COC(=O)C(C)C,"Propanoic acid, 2-methyl-, methyl ester",277.54999999999995,le15,1
5023,CC(C)(C=O)CO,"Hydracrylaldehyde, 2,2-dimethyl- (6CI,7CI,8CI)",333.45,le15,1
5024,CC(=O)CCCO,"2-Pentanone, 5-hydroxy- (8CI)(9CI)",366.15,le15,1
5025,C=COCCOC,"Ethene, (2-methoxyethoxy)- (9CI)",282.45,le15,1
5026,CC1(C)OCCO1,"2,2-dimethyl-1,3-dioxolane",274.85,le15,1
5027,COC(C)CC=O,"Butanal, 3-methoxy- (9CI)",299.35,le15,1
5028,C=CC(OC)OC,"3,3-dimethoxyprop-1-ene",270.35,le15,1
5029,OCC1CCCO1,"Furfuryl alcohol, tetrahydro- (8CI)",347.15,le15,1
5030,CCC(C)OC=O,"Formic acid, sec-butyl ester (8CI)",276.65,le15,1
5031,CC1CCOCO1,"4-methyl-1,3-dioxane",295.35,le15,1
5032,CCOCC1CO1,2-(ethoxymethyl)oxirane,296.65,le15,1
5033,CCC(C)C(=O)O,2methylbutyricacid,350.0,le15,1
5034,CC(C)CC(=O)O,3methylbutanoicacid,347.0,le15,1
5035,COC(=O)C(C)C,MethylIsobutyrate,276.0,le15,1
5036,CC(C)(C)C(=O)O,PivalicAcid,337.0,le15,1
5037,CC(C)(C)OC=O,tertButylFormate,264.0,le15,1
5038,CCN(CC)N=O,"Ethanamine, N-ethyl-N-nitroso-",332.15,le15,1
5039,CNC(=O)N(C)C,"1,1,3-trimethylurea",367.55,le15,1
5040,CCCC(=O)NN,Butyrohydrazide,378.05,le15,1
5041,NN1CCOCC1,morpholin-4-amine,331.15,le15,1
5042,FC1CCCCC1,fluorocyclohexane,282.0499999999999,le15,1
5043,FC1CCCCC1,Fluorocyclohexane,278.0,le15,1
5044,S=C1NCCN1,2-Imidazolidinethione,316.65,le15,1
5045,CCCCCCO,Hexyl alcohol,333.15,le15,1
5046,CCCOCCC,"Propane, 1,1'-oxybis-",253.15,le15,1
5047,CC(O)C(C)(C)C,"2-Butanol, 3,3-dimethyl-",302.0499999999999,le15,1
5048,CCCC(C)(C)O,2-methylpentan-2-ol,294.25,le15,1
5049,CCCC(O)CC,hexan-3-ol,314.817,le15,1
5050,CC(C)(C)CCO,"1-Butanol, 3,3-dimethyl-",320.95,le15,1
5051,CC(C)CCCO,"1-Pentanol, 4-methyl- (9CI)",324.85,le15,1
5052,CCCCC(C)O,hexan-2-ol,314.15,le15,1
5053,CCCCOCC,"Ether, butyl ethyl",272.15,le15,1
5054,CCOC(C)(C)C,"Propane, 2-ethoxy-2-methyl-",254.15,le15,1
5055,CCC(C)(C)CO,"1-Butanol, 2,2-dimethyl-",310.5499999999999,le15,1
5056,CC(C)CCCO,"Pentanol, 4-methyl-",324.85,le15,1
5057,CC(C)C(C)(C)O,"2,3-dimethylbutan-2-ol",302.5499999999999,le15,1
5058,CCCCOCC,1ethoxybutane,268.0,le15,1
5059,CCOC(C)(C)C,2ethoxy2methylpropane,254.0,le15,1
5060,CCC(CC)CO,2ethyl1butanol,330.0,le15,1
5061,CCCC(C)CO,2methyl1pentanol,323.0,le15,1
5062,CCC(O)C(C)C,2methyl3pentanol,319.0,le15,1
5063,CCC(C)CCO,3methyl1pentanol,331.0,le15,1
5064,CCC(C)C(C)O,3methyl2pentanol,313.0,le15,1
5065,CC(C)CCCO,4methyl1pentanol,324.0,le15,1
5066,CC(C)CC(C)O,4methyl2pentanol,314.0,le15,1
5067,CC(C)OC(C)C,DiisopropylEther,245.0,le15,1
5068,CCC(C)(C)OC,methyltertpentylether,262.0,le15,1
5069,CNCCN(C)C,"N,N',N'-trimethylethane-1,2-diamine",282.5499999999999,le15,1
5070,C1CCSCC1,thiane,294.25,le15,1
5071,CC1CCCS1,2-methylthiolane,301.25,le15,1
5072,CC1CCSC1,3-methylthiolane,301.25,le15,1
5073,SC1CCCC1,Cyclopentanethiol,298.0,le15,1
5074,ClC1C=CCC1,"Cyclopentene, 3-chloro-",281.85,le15,1
5075,C#CC(C)(C)Cl,3-chloro-3-methylbut-1-yne,277.54999999999995,le15,1
5076,C#CCCCCl,5chloro1pentyne,288.0,le15,1
5077,CN(N=O)C(N)=O,"Urea, 1-methyl-1-nitroso- (8CI)",326.25,le15,1
5078,CCOC(=O)NC,"Carbamic acid, N-methyl-, ethyl ester",330.95,le15,1
5079,CC(=O)NCCO,"Acetamide, N-(2-hydroxyethyl)-",449.85,le15,1
5080,CCCCON=O,"Nitrous acid, butyl ester",261.15,le15,1
5081,CC(C)(C)[N+](=O)[O-],"Propane, 2-methyl-2-nitro-",292.15,le15,1
5082,CC(C)C[N+](=O)[O-],2-methyl-1-nitropropane,311.35,le15,1
5083,CN(C)CC(=O)O,"Glycine, N,N-dimethyl-",332.95,le15,1
5084,CC(C)OC(N)=O,propan-2-yl carbamate,363.25,le15,1
5085,CC(C)CON=O,"Nitrous acid, 2-methylpropyl ester",252.15,le15,1
5086,CC(C)(C)ON=O,tertButylNitrite,250.0,le15,1
5087,CC(O)CN(C)C,"2-Propanol, 1-(dimethylamino)-",308.15,le15,1
5088,CC(C)NCCO,2-(propan-2-ylamino)ethanol,343.45,le15,1
5089,NCCCCCO,5-Aminopentan-1-ol,338.75,le15,1
5090,CCCC(N)CO,"1-Pentanol, 2-amino-",368.15,le15,1
5091,CCOCCCN,"1-Propanamine, 3-ethoxy-",305.95,le15,1
5092,CC(CO)N(C)C,2-(dimethylamino)propan-1-ol,305.25,le15,1
5093,CCCNCCO,"Ethanol, 2-(propylamino)-",351.45,le15,1
5094,CN(C)CCCO,"1-Propanol, 3-(dimethylamino)-",309.25,le15,1
5095,NCCNCCN,"1,2-Ethanediamine, N-(2-aminoethyl)-",367.594,le15,1
5096,CN(C)CCNN,"Ethanamine, 2-hydrazino-N,N-dimethyl-",339.0499999999999,le15,1
5097,C1CSCCN1,thiomorpholine,333.15,le15,1
5098,N#CCCCCl,"Butanenitrile, 4-chloro-",358.15,le15,1
5099,O=C(O)CC(=O)O,Propanedioic acid,475.05,le15,1
5100,N=C(N)N[N+](=O)[O-],"Guanidine, 1-nitro-",422.45,le15,1
5101,N#Cc1ccncc1,4-Pyridinecarbonitrile,355.85,le15,1
5102,N#Cc1cccnc1,3-Pyridinecarbonitrile,357.594,le15,1
5103,N#Cc1ccccn1,Picolinonitrile (8CI),362.55,le15,1
5104,CC(=O)OCCO,"Ethylene glycol, monoacetate",350.54999999999984,le15,1
5105,COC(=O)C(C)O,methyl 2-hydroxypropanoate,322.15,le15,1
5106,CCOCC(=O)O,"Acetic acid, 2-ethoxy-",366.25,le15,1
5107,COC(=O)CCO,methyl 3-hydroxypropanoate,345.75,le15,1
5108,COCC(=O)OC,methyl 2-methoxyacetate,308.15,le15,1
5109,CCOC(=O)CO,ethyl 2-hydroxyacetate,334.85,le15,1
5110,C=Cc1ccccc1,"Benzene, ethenyl-",304.255,le15,1
5111,CC(C)OCCO,"Ethanol, 2-(1-methylethoxy)-",316.15,le15,1
5112,CCOCCCO,"1-Propanol, 3-ethoxy-",327.5499999999999,le15,1
5113,CC(C)(O)CCO,3-Hydroxy-3-methylbutan-1-ol,364.45,le15,1
5114,CCCOCCO,2-(Propyloxy)ethanol,324.35,le15,1
5115,COCC(C)OC,"1,2-dimethoxypropane",273.75,le15,1
5116,CCOC(C)CO,"1-Propanol, 2-ethoxy-",319.0499999999999,le15,1
5117,COC(C)CCO,"1-Butanol, 3-methoxy-",319.85,le15,1
5118,CCC(C)(C)OO,"Hydroperoxide, 1,1-dimethylpropyl",314.35,le15,1
5119,CCCC(O)CO,"Pentane-1,2-diol",377.15,le15,1
5120,CC(O)C(C)(C)O,"2-methylbutane-2,3-diol",343.35,le15,1
5121,CC(C)OCCO,2isopropoxyethanol,316.0,le15,1
5122,NCCNCCO,"Ethanol, 2-((2-aminoethyl)amino)-",363.65,le15,1
5123,NCCOCCN,2-(2-aminoethoxy)ethanamine,347.95,le15,1
5124,CCCCCCF,"Hexane, 1-fluoro-",300.35,le15,1
5125,CCSC(C)=O,S-ethyl ethanethioate,291.45,le15,1
5126,O=S1CCCC1,thiolane 1-oxide,389.65,le15,1
5127,CSCCC=O,"Propionaldehyde, 3-(methylthio)-",334.25,le15,1
5128,C1CSCCO1,"1,4-Oxathiane",328.75,le15,1
5129,CSCCC=O,4thiapentanal,331.0,le15,1
5130,CNC(=S)NC,"Urea, 1,3-dimethyl-2-thio-",473.15,le15,1
5131,CCC(C)CS,2-methylbutane-1-thiol,292.5499999999999,le15,1
5132,CCCSCC,1-ethylsulfanylpropane,292.0499999999999,le15,1
5133,CC(C)CCS,3-methylbutane-1-thiol,291.45,le15,1
5134,CCCCSC,1-methylsulfanylbutane,293.75,le15,1
5135,CCC(C)(C)S,"2-Butanethiol, 2-methyl-",272.15,le15,1
5136,CCC(C)CS,2methyl1butanethiol,292.0,le15,1
5137,CCCC(C)S,2pentanethiol,282.0,le15,1
5138,CC(C)C(C)S,3methyl2butanethiol,292.0,le15,1
5139,CSC(C)(C)C,tertButylMethylSulfide,270.0,le15,1
5140,C=C(C)C(=O)Cl,2-methylprop-2-enoyl chloride,300.85,le15,1
5141,C/C=C/C(=O)Cl,(E)-but-2-enoyl chloride,308.15,le15,1
5142,CC=C(Cl)C=O,"2-Butenal, 2-chloro- (9CI)",316.95,le15,1
5143,C/C(Cl)=C/C=O,3-Chlorocrotonaldehyde,312.85,le15,1
5144,CC(C)=CCCl,1-chloro-3-methylbut-2-ene,277.15,le15,1
5145,ClC1CCCC1,chlorocyclopentane,288.15,le15,1
5146,C=C(C)C(C)Cl,"1-Butene, 3-chloro-2-methyl-",275.15,le15,1
5147,CC=C(C)CCl,"2-Butene, 1-chloro-2-methyl-",281.95,le15,1
5148,ClC1CCCC1,Chlorocyclopentane,288.0,le15,1
5149,N[C@@H](CO)C(=O)O,Serine,465.73199999999997,le15,1
5150,CC(C)O[N+](=O)[O-],propan-2-yl nitrate,285.95,le15,1
5151,C=Cc1ccncc1,"Pyridine, 4-ethenyl-",324.817,le15,1
5152,C=Cc1ccccn1,"Pyridine, 2-ethenyl-",319.85,le15,1
5153,C=Cc1cccnc1,"Pyridine, 3-ethenyl-",324.0499999999999,le15,1
5154,NCCOCCO,"Ethanol, 2-(2-aminoethoxy)-",349.75,le15,1
5155,OCCNCCO,"Ethanol, 2,2'-iminobis-",410.92800000000005,le15,1
5156,CC(N)(CO)CO,"1,3-Propanediol, 2-amino-2-methyl-",382.85,le15,1
5157,OCCNCCO,Diethanolamine,410.0,le15,1
5158,CNC(=S)NN,"Semicarbazide, 4-methyl-3-thio- (8CI)",328.75,le15,1
5159,CCOC(=O)CF,"Acetic acid, 2-fluoro-, ethyl ester",303.15,le15,1
5160,N#CC/C=C/CC#N,(E)-hex-3-enedinitrile,419.35,le15,1
5161,COCOCCO,"Ethanol, 2-(methoxymethoxy)-",310.95,le15,1
5162,OCCOCCO,"Ethanol, 2,2'-oxybis-",416.483,le15,1
5163,COC(OC)OC,trimethoxymethane,288.75,le15,1
5164,COC(OC)OC,Trimethoxymethane,288.0,le15,1
5165,O=C(O)CCS,"Propanoic acid, 3-mercapto-",373.887,le15,1
5166,COC(=O)CS,"Acetic acid, mercapto-, methyl ester",329.15,le15,1
5167,C=CS(C)(=O)=O,"Ethene, (methylsulfonyl)- (9CI)",386.15,le15,1
5168,Cc1cccc(C)c1,"Benzene, 1,3-dimethyl-",298.15,le15,1
5169,C#CCCCCC#C,"octa-1,7-diyne",296.45,le15,1
5170,C1=C\C=C/CC\C=C/1,"(1Z,3Z,5Z)-cycloocta-1,3,5-triene",300.95,le15,1
5171,NNC(=S)NN,Carbonothioic dihydrazide,366.15,le15,1
5172,CCSCCO,2-ethylsulfanylethanol,289.25,le15,1
5173,C1CSCS1,"1,3-dithiolane",336.75,le15,1
5174,O=C(O)/C=C\Cl,"Acrylic acid, 3-chloro-, (Z)- (8CI)",343.25,le15,1
5175,CC(C)C(=O)Cl,2-methylpropanoyl chloride,274.25,le15,1
5176,C=COCCCl,"Ether, 2-chloroethyl vinyl",289.15,le15,1
5177,CCCC(=O)Cl,Butanoyl chloride,294.85,le15,1
5178,CC1(CCl)CO1,2-(chloromethyl)-2-methyloxirane,307.65,le15,1
5179,CC(=O)C(C)Cl,"2-Butanone, 3-chloro-",296.15,le15,1
5180,CC(C)(Cl)C=O,2-chloro-2-methylpropanal,298.65,le15,1
5181,CCCCCCl,1-chloropentane,284.25,le15,1
5182,CCC(C)(C)Cl,2-chloro-2-methylbutane,276.54999999999995,le15,1
5183,CCCC(C)Cl,2-chloropentane,282.95,le15,1
5184,CC(C)(C)CCl,"1-chloro-2,2-dimethylpropane",264.25,le15,1
5185,CC(C)CCCl,1-chloro-3-methylbutane,289.15,le15,1
5186,CCCCCCl,1chloropentane,314.0,le15,1
5187,CCCC(C)Cl,2chloropentane,273.0,le15,1
5188,C=CBr,Bromoethene (9CI),255.95,le15,1
5189,O=Cc1cccnc1,3-Pyridinecarboxaldehyde,357.15,le15,1
5190,O=Cc1ccccn1,pyridine-2-carbaldehyde,327.5499999999999,le15,1
5191,NCc1ccccc1,Benzenemethanamine,333.15,le15,1
5192,CNc1ccccc1,"Benzenamine, N-methyl-",352.039,le15,1
5193,CCc1ccccn1,"Pyridine, 2-ethyl-",302.5499999999999,le15,1
5194,Cc1cccc(C)n1,"Pyridine, 2,6-dimethyl-",306.45,le15,1
5195,CCc1ccncc1,4-ethylpyridine,320.15,le15,1
5196,CCc1cccnc1,3-ethylpyridine,322.0499999999999,le15,1
5197,Cc1ccncc1C,"Pyridine, 3,4-dimethyl-",326.15,le15,1
5198,Cc1cncc(C)c1,"3,5-dimethylpyridine",326.15,le15,1
5199,N#CC1CC=CCC1,3-Cyclohexene-1-carbonitrile,338.95,le15,1
5200,Cc1cccnc1C,"2,3-dimethylpyridine",318.5499999999999,le15,1
5201,Cc1ccc(C)nc1,"Pyridine, 2,5-dimethyl-",321.15,le15,1
5202,Cc1ccc(N)cc1,4methylaniline,359.0,le15,1
5203,CN(C)C(=O)Cl,"Carbamoyl chloride, dimethyl-",341.45,le15,1
5204,N#CSCCl,chloromethyl thiocyanate,357.04999999999984,le15,1
5205,O=C1C=CC(=O)C=C1,"2,5-Cyclohexadiene-1,4-dione",332.45,le15,1
5206,N#C/C(N)=C(/N)C#N,"Maleonitrile, diamino- (8CI)",495.85,le15,1
5207,N=C(N)S(=O)O,"Methanesulfinic acid, 1-amino-1-imino-",441.85,le15,1
5208,Cc1ccccc1O,"Phenol, 2-methyl-",350.25,le15,1
5209,OCc1ccccc1,Benzenemethanol,370.65,le15,1
5210,COc1ccccc1,"Benzene, methoxy-",317.6040000000001,le15,1
5211,Cc1ccc(O)cc1,"Phenol, 4-methyl-",354.15,le15,1
5212,Cc1cccc(O)c1,"Phenol, 3-methyl-",359.26099999999997,le15,1
5213,NNc1ccccc1,"Hydrazine, phenyl-",388.55,le15,1
5214,Nc1ccc(N)cc1,"1,4-Benzenediamine",409.05,le15,1
5215,Nc1cccc(N)c1,"1,3-Benzenediamine",420.75,le15,1
5216,Cc1cncc(C)n1,"Pyrazine, 2,6-dimethyl-",325.95,le15,1
5217,N#CCCCCC#N,Hexanedinitrile,422.15,le15,1
5218,Cc1cnc(C)cn1,"Pyrazine, 2,5-dimethyl-",337.0499999999999,le15,1
5219,Cc1ccnc(N)c1,"2-Pyridinamine, 4-methyl-",387.15,le15,1
5220,Cc1cc(C)ncn1,"4,6-dimethylpyrimidine",329.15,le15,1
5221,Cc1cccnc1N,"Pyridine, 2-amino-3-methyl-",383.05,le15,1
5222,Cc1cccc(N)n1,"Pyridine, 2-amino-6-methyl-",376.15,le15,1
5223,Cc1cnccc1N,"4-Pyridinamine, 3-methyl- (9CI)",411.55,le15,1
5224,NCc1ccccn1,pyridin-2-ylmethanamine,363.15,le15,1
5225,NCc1cccnc1,pyridin-3-ylmethanamine,373.15,le15,1
5226,NCc1ccncc1,pyridin-4-ylmethanamine,381.45,le15,1
5227,CNc1ccccn1,N-methylpyridin-2-amine,360.95,le15,1
5228,Cc1nccnc1C,"Pyrazine, 2,3-dimethyl-",327.5499999999999,le15,1
5229,CCc1cnccn1,"Pyrazine, 2-ethyl-",315.95,le15,1
5230,Cc1ccnc(C)n1,"2,4-dimethylpyrimidine",309.85,le15,1
5231,CCC(C#N)CC#N,2-ethylbutanedinitrile,399.55,le15,1
5232,Nc1ccccc1N,"1,2-Benzenediamine",383.15,le15,1
5233,Cc1ccc(N)nc1,"2-Pyridinamine, 5-methyl-",384.05,le15,1
5234,N#CCCCCC#N,Adiponitrile,432.0,le15,1
5235,C=CC1CC=CCC1,"Cyclohexene, 4-vinyl- (8CI)",289.15,le15,1
5236,C=C(C)/C=C/C(=C)C,"(3E)-2,5-dimethylhexa-1,3,5-triene",291.25,le15,1
5237,C1=C\CC/C=C\CC/1,"(1Z,5Z)-cycloocta-1,5-diene",311.15,le15,1
5238,C=CC1=CCCCC1,1-ethenylcyclohexene,295.85,le15,1
5239,SCCCS,"propane-1,3-dithiol",332.0499999999999,le15,1
5240,CC(S)CS,"propane-1,2-dithiol",308.15,le15,1
5241,CSCSC,bis(methylsulfanyl)methane,316.15,le15,1
5242,COC(=O)CCl,"Acetic acid, 2-chloro-, methyl ester",324.85,le15,1
5243,O=C(O)CCCl,"Propanoic acid, 3-chloro-",398.15,le15,1
5244,CCOC(=O)Cl,"Carbonochloridic acid, ethyl ester",291.95,le15,1
5245,CC(Cl)C(=O)O,"Propanoic acid, 2-chloro-",380.15,le15,1
5246,CC(=O)OCCl,chloromethyl acetate,282.0499999999999,le15,1
5247,COCC(=O)Cl,2-methoxyacetyl chloride,301.15,le15,1
5248,CC(C)(O)CCl,1-chloro-2-methylpropan-2-ol,334.15,le15,1
5249,CCOCCCl,1-chloro-2-ethoxyethane,288.75,le15,1
5250,OCCCCCl,"1-Butanol, 4-chloro-",350.35,le15,1
5251,COCCCCl,1-chloro-3-methoxypropane,301.0499999999999,le15,1
5252,ClCC1CS1,"Propane, 1-chloro-2,3-epithio-",330.65,le15,1
5253,CCBr,Bromoethane,253.0,le15,1
5254,Nc1ccccc1O,"Phenol, 2-amino-",441.15,le15,1
5255,OCc1cccnc1,pyridin-3-ylmethanol,370.65,le15,1
5256,Nc1ccc(O)cc1,"Phenol, 4-amino-",462.15,le15,1
5257,Nc1cccc(O)c1,"Phenol, 3-amino-",428.15,le15,1
5258,Cc1ccc[nH]c1=O,3-methyl-1H-pyridin-2-one,445.85,le15,1
5259,CC(=O)c1ccc[nH]1,1-(1H-Pyrrol-2-yl)ethan-1-one,365.55,le15,1
5260,ONc1ccccc1,"Hydroxylamine, N-phenyl-",393.35,le15,1
5261,COc1ccccn1,2-methoxypyridine,305.15,le15,1
5262,Nc1cccc(N)n1,"Pyridine-2,6-diyldiamine",434.45,le15,1
5263,N#Cc1cccs1,thiophene-2-carbonitrile,326.45,le15,1
5264,N#CC1CCCCC1,Cyclohexanecarbonitrile,341.95,le15,1
5265,Cc1ccc(C)n1C,"1,2,5-trimethylpyrrole",325.35,le15,1
5266,N#CC1CCCCC1,Cyclohexanecarbonitrile,338.0,le15,1
5267,CC(Cl)[N+](=O)[O-],1-chloro-1-nitroethane,302.85,le15,1
5268,O=[N+]([O-])CCCl,1-chloro-2-nitroethane,329.65,le15,1
5269,N#CC(Cl)Cl,"Acetonitrile, dichloro-",309.15,le15,1
5270,CO[PH](=O)OC,"Phosphonic acid, dimethyl ester",302.594,le15,1
5271,Pc1ccccc1,phenylphosphane,244.25,le15,1
5272,Cc1ccc(C=O)o1,"2-Furancarboxaldehyde, 5-methyl-",345.15,le15,1
5273,CC(=O)c1ccco1,"Ethanone, 1-(2-furanyl)-",344.25,le15,1
5274,Oc1ccc(O)cc1,Hydroquinone,438.0,le15,1
5275,Nc1cc[n+]([O-])cc1,"Pyridine, 4-amino-, 1-oxide",358.85,le15,1
5276,CC(=O)n1ccnc1,"Ethanone, 1-(1H-imidazol-1-yl)-",361.15,le15,1
5277,Cc1ccccc1F,"Benzene, 1-fluoro-2-methyl-",284.5499999999999,le15,1
5278,Cc1ccc(F)cc1,"Benzene, 1-fluoro-4-methyl-",285.0499999999999,le15,1
5279,Cc1cccc(F)c1,"Toluene, m-fluoro- (8CI)",282.5499999999999,le15,1
5280,FCc1ccccc1,fluoromethylbenzene,290.5499999999999,le15,1
5281,COS(C)(=O)=O,"Methanesulfonic acid, methyl ester",377.15,le15,1
5282,COS(=O)OC,dimethyl sulfite,303.15,le15,1
5283,O=CC1CC=CCC1,3-Cyclohexene-1-carboxaldehyde,330.35,le15,1
5284,O=C(C1CC1)C1CC1,dicyclopropylmethanone,312.5499999999999,le15,1
5285,CC1=CC(=O)CCC1,3-methylcyclohex-2-en-1-one,341.45,le15,1
5286,O=CC1=CCCCC1,Cyclohexenecarboxaldehyde,344.25,le15,1
5287,CCc1ccc(C)o1,2-ethyl-5-methylfuran,288.25,le15,1
5288,CCCc1ccco1,2-propylfuran,287.95,le15,1
5289,CC1=CCCC(=O)C1,3-methylcyclohex-3-en-1-one,328.65,le15,1
5290,C#CC1(O)CCCC1,1-ethynylcyclopentan-1-ol,322.0499999999999,le15,1
5291,CCc1ncc(C)[nH]1,2-ethyl-5-methyl-1H-imidazole,410.95,le15,1
5292,Cc1cc(C)n(C)n1,"1,3,5-trimethylpyrazole",313.15,le15,1
5293,Sc1ccccc1,Benzenethiol,323.75,le15,1
5294,C#CCCCCCC,oct-1-yne,290.15,le15,1
5295,C=CC1CCCCC1,ethenylcyclohexane,294.25,le15,1
5296,CC(C)=CC=C(C)C,"2,4-Hexadiene, 2,5-dimethyl-",298.15,le15,1
5297,C1=CCCCCCC1,cyclooctene,298.15,le15,1
5298,CC=C1CCCCC1,ethylidenecyclohexane,297.0499999999999,le15,1
5299,CCC1=CCCCC1,1-ethylcyclohexene,292.35,le15,1
5300,CC1=CCCCCC1,1-methylcycloheptene,293.75,le15,1
5301,CC1=C(C)CCCC1,"1,2-dimethylcyclohexene",289.95,le15,1
5302,CCC1C=CCCC1,3-ethylcyclohexene,286.0499999999999,le15,1
5303,CC#CCCCCC,oct-2-yne,297.25,le15,1
5304,C=CCC1CCCC1,prop-2-enylcyclopentane,285.35,le15,1
5305,C=CCCCCC=C,"1,7-Octadiene",282.5499999999999,le15,1
5306,C/C=C/CC/C=C/C,"(2E,6E)-octa-2,6-diene",286.85,le15,1
5307,CC1(C)CC=CCC1,"4,4-dimethylcyclohexene",275.85,le15,1
5308,CCC#CCCCC,oct-3-yne,295.15,le15,1
5309,CC=CC1CCCC1,2propenylcyclopentane,285.0,le15,1
5310,CCCC#CCCC,4octyne,291.0,le15,1
5311,C=CC1CCCCC1,Ethenylcyclohexane,295.0,le15,1
5312,FCCCCCl,1-chloro-4-fluorobutane,283.0499999999999,le15,1
5313,SCCCCl,3chloro1propanethiol,316.0,le15,1
5314,C=C(Cl)CCl,"1-Propene, 2,3-dichloro-",283.15,le15,1
5315,ClC=CCCl,"1-Propene, 1,3-dichloro-",300.95,le15,1
5316,CC(Cl)=CCl,"Propene, 1,2-dichloro-",288.85,le15,1
5317,C=CC(Cl)Cl,"3,3-dichloroprop-1-ene",276.15,le15,1
5318,CC=C(Cl)Cl,"1-Propene, 1,1-dichloro- (9CI)",273.75,le15,1
5319,Cl/C=C\CCl,"1-Propene, 1,3-dichloro-, (Z)- (9CI)",297.15,le15,1
5320,Cl/C=C/CCl,"(E)-1,3-dichloroprop-1-ene",300.95,le15,1
5321,C=C(C#N)C(=O)OC,"2-Propenoic acid, 2-cyano-, methyl ester",340.75,le15,1
5322,Nc1ccccc1F,"Aniline, o-fluoro- (8CI)",333.15,le15,1
5323,Nc1ccc(F)cc1,"Aniline, p-fluoro- (8CI)",351.04999999999984,le15,1
5324,Nc1cccc(F)c1,"Aniline, m-fluoro- (8CI)",350.35,le15,1
5325,C=CN1CCCC1=O,1-Ethenyl-2-pyrrolidinone (9CI),367.05,le15,1
5326,C=CCOCCC#N,"Propanenitrile, 3-(2-propenyloxy)- (9CI)",356.04999999999984,le15,1
5327,CNCc1ccco1,1-(furan-2-yl)-N-methylmethanamine,307.15,le15,1
5328,Cc1nc(C)c(C)o1,"2,4,5-Trimethyloxazole",306.45,le15,1
5329,NCCc1c[nH]cn1,1H-Imidazole-4-ethanamine,453.45,le15,1
5330,CCCCCCC#N,Heptane-1-nitrile,333.65,le15,1
5331,C#CCN(CC)CC,"2-Propyn-1-amine, N,N-diethyl-",429.15,le15,1
5332,CC#CN(CC)CC,"1-Propyn-1-amine, N,N-diethyl- (9CI)",311.85,le15,1
5333,CCCCCCC#N,Heptanenitrile,331.0,le15,1
5334,CC(=O)C(F)(F)F,"2-Propanone, 1,1,1-trifluoro-",243.15,le15,1
5335,O=C(O)c1ccco1,2-Furancarboxylic acid,367.35,le15,1
5336,CC1=CC(=O)OC1=O,"2,5-Furandione, 3-methyl-",374.15,le15,1
5337,O=c1ccc(=O)[nH][nH]1,"3,6-Pyridazinedione, 1,2-dihydro-",515.55,le15,1
5338,O=C(O)c1cnc[nH]1,1H-imidazole-5-carboxylic acid,526.3499999999998,le15,1
5339,O=c1cc(O)[nH]cn1,"4(1H)-Pyrimidinone, 6-hydroxy-",443.75,le15,1
5340,Oc1ccccc1F,"Phenol, 2-fluoro-",319.85,le15,1
5341,Oc1ccc(F)cc1,"Phenol, 4-fluoro-",347.95,le15,1
5342,Oc1cccc(F)c1,3-fluorophenol,344.15,le15,1
5343,CC1=C(O)C(=O)CC1,"2-Cyclopenten-1-one, 2-hydroxy-3-methyl-",373.85,le15,1
5344,O=CC1CCC=CO1,"2H-Pyran-2-carboxaldehyde, 3,4-dihydro-",346.54999999999984,le15,1
5345,O=C1CCCC(=O)C1,"1,3-Cyclohexanedione",358.85,le15,1
5346,O=C1CCC(=O)CC1,"1,4-Cyclohexanedione",355.35,le15,1
5347,O=C1CCCCC1=O,"1,2-Cyclohexanedione",357.15,le15,1
5348,C=CCOC(=O)C=C,"Acrylic acid, allyl ester (8CI)",342.35,le15,1
5349,C=CC=COC(C)=O,"1,3-Butadien-1-ol, acetate",306.45,le15,1
5350,C#CCOC(=O)CC,"2-Propyn-1-ol, propanoate",315.25,le15,1
5351,CC(O)c1ccco1,1-(furan-2-yl)ethanol,307.75,le15,1
5352,CC#CC(=O)OCC,ethyl but-2-ynoate,326.35,le15,1
5353,COCc1ccco1,2-(methoxymethyl)furan,295.25,le15,1
5354,C=COC(=O)C=CC,"2-Butenoic acid, ethenyl ester",300.15,le15,1
5355,C/C=C/C=C/C(=O)O,"2,4-Hexadienoic acid, (2E,4E)-",400.15,le15,1
5356,O=Cc1cccs1,2-Thiophenecarboxaldehyde,350.95,le15,1
5357,CN(C)C(=N)NC#N,"Guanidine, N'-cyano-N,N-dimethyl-",337.5499999999999,le15,1
5358,CC1CCCCC1=O,"Cyclohexanone, 2-methyl-",319.0499999999999,le15,1
5359,CC1CCCC(=O)C1,"Cyclohexanone, 3-methyl-",321.15,le15,1
5360,CCCCC#CCO,2-Heptyn-1-ol,351.15,le15,1
5361,C=C(C=O)CCCC,2-Methylenehexanal,306.45,le15,1
5362,C=CCC(O)CC=C,"hepta-1,6-dien-4-ol",313.15,le15,1
5363,C=C(C)CCC(C)=O,"5-Hexen-2-one, 5-methyl-",311.85,le15,1
5364,CC1CCC(C)C1=O,"2,5-dimethylcyclopentan-1-one",313.75,le15,1
5365,CC(=O)C=CC(C)C,"3-Hexen-2-one, 5-methyl-",320.65,le15,1
5366,CC(=O)C1CCCC1,1-cyclopentylethanone,320.15,le15,1
5367,C#CC(O)(CC)CC,"3-Pentanol, 3-ethynyl-",310.95,le15,1
5368,C#CC(O)CCCC,1-Heptyn-3-ol,323.95,le15,1
5369,C#CC(O)CC(C)C,5-Methyl-1-hexyn-3-ol,323.25,le15,1
5370,O=C1CCCCCC1,cycloheptanone,330.15,le15,1
5371,CC1CCC(=O)CC1,"Cyclohexanone, 4-methyl-",319.0499999999999,le15,1