,smiles,compound,flashpoint,source,pure substance
5372,C#CC(C)(O)C(C)C,"1-Pentyn-3-ol, 3,4-dimethyl-",310.35,le15,1
5373,O=CC1CCCCC1,cyclohexanecarbaldehyde,314.15,le15,1
5374,CCCC/C=C/C=O,(E)-hept-2-enal,326.85,le15,1
5375,CC=CCOC=CC,"Ether, 2-butenyl propenyl",287.5499999999999,le15,1
5376,CC1CCCCC1=O,2methylcyclohexanone,321.0,le15,1
5377,O=C1CCCCCC1,Cycloheptanone,358.0,le15,1
5378,C1CN2CCN1CC2,"1,4-Diazabicyclo(2.2.2)octane",335.35,le15,1
5379,C=CCN(N)CC=C,"Hydrazine, 1,1-di-2-propenyl- (9CI)",327.15,le15,1
5380,N#CCCCCCN,"Hexanenitrile, 6-amino-",366.75,le15,1
5381,CCN(CC)CC#N,"Acetonitrile, (diethylamino)-",327.0499999999999,le15,1
5382,Cc1ccsc1C,"2,3-dimethylthiophene",298.95,le15,1
5383,Cc1csc(C)c1,"2,4-dimethylthiophene",296.15,le15,1
5384,CCc1cccs1,2-ethylthiophene,294.25,le15,1
5385,Cc1ccc(C)s1,"2,5-dimethylthiophene",297.0499999999999,le15,1
5386,CCc1ccsc1,3-ethylthiophene,295.95,le15,1
5387,C=C(C)CC(C)(C)C,"1-Pentene, 2,4,4-trimethyl-",267.04999999999995,le15,1
5388,C/C=C/CCCCC,(E)-oct-2-ene,289.75,le15,1
5389,CC(C)=C(C)C(C)C,"2,3,4-trimethylpent-2-ene",285.95,le15,1
5390,CC1(C)CCCCC1,"1,1-dimethylcyclohexane",280.35,le15,1
5391,CCC/C=C/CCC,(E)-oct-4-ene,294.25,le15,1
5392,CC[C@@H]1CCC[C@H]1C,"(1R,2R)-1-ethyl-2-methylcyclopentane",286.65,le15,1
5393,C=C(CC)CCCC,"Heptane, 3-methylene-",283.5499999999999,le15,1
5394,C[C@@H]1CCC[C@@H](C)C1,"(1R,3R)-1,3-dimethylcyclohexane",282.5499999999999,le15,1
5395,CC1CC(C)C(C)C1,"1,2,4-trimethylcyclopentane",282.35,le15,1
5396,C=CC(CC)CCC,3-ethylhex-1-ene,288.65,le15,1
5397,C=C(CC)C(C)CC,3-methyl-4-methylidenehexane,279.85,le15,1
5398,C=CC(C)(C)CCC,"3,3-dimethylhex-1-ene",283.85,le15,1
5399,CC(C)C1CCCC1,propan-2-ylcyclopentane,287.25,le15,1
5400,CC1CCCCCC1,methylcycloheptane,293.0499999999999,le15,1
5401,CC1CCCC1(C)C,"1,1,2-trimethylcyclopentane",279.54999999999995,le15,1
5402,CC/C=C(\C)CCC,(E)-4-methylhept-3-ene,282.35,le15,1
5403,CC1CCC(C)(C)C1,"1,1,3-trimethylcyclopentane",279.54999999999995,le15,1
5404,CC1CC(C)C(C)C1,"1,2,4-trimethylcyclopentane",282.35,le15,1
5405,CCCC(C)=C(C)C,"2,3-dimethylhex-2-ene",288.75,le15,1
5406,C=CCCC(C)CC,5-methylhept-1-ene,288.65,le15,1
5407,C=CC[C@H](C)CCC,(4R)-4-methylhept-1-ene,288.65,le15,1
5408,C=CC(C)C(C)CC,"3,4-dimethylhex-1-ene",283.85,le15,1
5409,C=C(C)C(C)CCC,"2,3-dimethylhex-1-ene",279.85,le15,1
5410,CCC1(C)CCCC1,1-ethyl-1-methylcyclopentane,283.75,le15,1
5411,CC1CC(C)C(C)C1,"1,2,4-trimethylcyclopentane",282.35,le15,1
5412,C=C(C)C(CC)CC,3-ethyl-2-methylpent-1-ene,279.85,le15,1
5413,C/C=C\CC(C)(C)C,"(Z)-5,5-dimethylhex-2-ene",281.5499999999999,le15,1
5414,CC1CCCCC1C,"1,2-dimethylcyclohexane",288.75,le15,1
5415,CCC1CCCC1C,1-ethyl-2-methylcyclopentane,286.65,le15,1
5416,C[C@H]1CCCC[C@H]1C,"Cyclohexane, 1,2-dimethyl-, (1R,2S)-rel-",288.75,le15,1
5417,CC1CCC(C)CC1,"1,4-dimethylcyclohexane",288.75,le15,1
5418,CC1CCC(C)C1C,"1,2,3-trimethylcyclopentane",282.394,le15,1
5419,C=CCCCC(C)C,6-methylhept-1-ene,288.65,le15,1
5420,C/C=C/CCCCC,trans-Oct-2-ene,294.25,le15,1
5421,CC/C=C/CCCC,(E)-oct-3-ene,288.25,le15,1
5422,C=CCC(C)C(C)C,"4,5-dimethylhex-1-ene",283.85,le15,1
5423,CCC1(C)CCCC1,1ethyl1methylcyclopentane,279.0,le15,1
5424,C=CCCCCCC,1octene,286.0,le15,1
5425,C=C(C)CCCCC,2methyl1heptene,283.0,le15,1
5426,CCCCC=C(C)C,2methyl2heptene,281.0,le15,1
5427,C1CCCCCCC1,Cyclooctane,301.0,le15,1
5428,O=C(O)C(F)Cl,2-chloro-2-fluoroacetic acid,331.75,le15,1
5429,N#C/C=C(\Cl)C#N,(Z)-2-chlorobut-2-enedinitrile,341.5499999999999,le15,1
5430,O=C(Cl)CCl,"Acetyl chloride, chloro-",307.15,le15,1
5431,O=c1nc[nH]c(=O)[nH]1,"s-Triazine-2,4(1H,3H)-dione (8CI)",574.05,le15,1
5432,O=[N+]([O-])c1c[nH]cn1,4-Nitro-1H-imidazole (9CI),471.75,le15,1
5433,CN1C(=O)CCC1=O,"2,5-Pyrrolidinedione, 1-methyl-",379.05,le15,1
5434,COC(=O)CCC#N,methyl 3-cyanopropanoate,360.65,le15,1
5435,O=C1CCCCCN1,Hexahydro-2H-azepin-2-one (9CI),409.85,le15,1
5436,C=CC(=O)NC(C)C,"2-Propenamide, N-(1-methylethyl)-",392.85,le15,1
5437,CCN1CCCC1=O,"2-Pyrrolidinone, 1-ethyl-",349.25,le15,1
5438,C=CN(CC)C(C)=O,"Acetamide, N-ethyl-N-vinyl-",345.65,le15,1
5439,NCC1CCC=CO1,"2H-Pyran-2-methanamine, 3,4-dihydro- (9CI)",343.65,le15,1
5440,ON=C1CCCCC1,"Cyclohexanone, oxime",363.15,le15,1
5441,O=CN1CCCCC1,1-Piperidinecarboxaldehyde,364.15,le15,1
5442,CC1CCCNC1=O,3-methylpiperidin-2-one,411.75,le15,1
5443,CC1CCC(=O)N1C,"1,5-dimethylpyrrolidin-2-one",362.55,le15,1
5444,Cc1csc(C)n1,"2,4-dimethyl-1,3-thiazole",315.15,le15,1
5445,Cc1ncsc1C,"Thiazole, 4,5-dimethyl-",324.25,le15,1
5446,CC1CCCC(C)N1,"Piperidine, 2,6-dimethyl-",284.15,le15,1
5447,CC1CCCC(C)N1,"2,6-dimethylpiperidine",284.85,le15,1
5448,C1CCCNCCC1,"Azocine, octahydro-",302.5499999999999,le15,1
5449,CC1(C)CCCNC1,"3,3-dimethylpiperidine",305.35,le15,1
5450,NCC1CCCCC1,cyclohexylmethanamine,316.45,le15,1
5451,CCC1CCNCC1,4-ethylpiperidine,306.95,le15,1
5452,CC1CNCC(C)C1,"3,5-dimethylpiperidine",305.15,le15,1
5453,CNC1CCCCC1,"Cyclohexanamine, N-methyl-",302.5499999999999,le15,1
5454,CCN1CCCCC1,1ethylpiperidine,291.0,le15,1
5455,NCC1CCCCC1,Cyclohexanemethylamine,316.0,le15,1
5456,Clc1ccccn1,"Pyridine, 2-chloro-",338.15,le15,1
5457,Clc1cccnc1,"Pyridine, 3-chloro-",338.15,le15,1
5458,O=C(O)C(F)(F)F,"Acetic acid, 2,2,2-trifluoro-",270.15,le15,1
5459,O=c1c(O)c(O)c1=O,"Cyclobutenedione, dihydroxy- (8CI)",392.99,le15,1
5460,CC(O)C(F)(F)F,"2-Propanol, 1,1,1-trifluoro-",311.95,le15,1
5461,OCCC(F)(F)F,"3,3,3-trifluoropropan-1-ol",320.25,le15,1
5462,Fc1cccc(F)c1,"Benzene, 1,3-difluoro- (9CI)",275.15,le15,1
5463,Fc1ccc(F)cc1,"Benzene, 1,4-difluoro- (9CI)",275.25,le15,1
5464,Fc1ccccc1F,"1,2-difluorobenzene",275.35,le15,1
5465,O=C1CCCC(=O)O1,"2H-Pyran-2,6(3H)-dione, dihydro-",394.05,le15,1
5466,COS(=O)(=O)F,"Fluorosulfuric acid, methyl ester",283.15,le15,1
5467,CC1CC(=O)OC1=O,"3-methyloxolane-2,5-dione",381.35,le15,1
5468,CCOC(=O)C=[N+]=[N-],"Acetic acid, diazo-, ethyl ester",319.15,le15,1
5469,O=NN1CC=CCO1,"2H-1,2-Oxazine, 3,6-dihydro-2-nitroso-",303.45,le15,1
5470,NCc1cc(O)no1.O,5-(Aminomethyl)isoxazol-3-ol hydrate,423.55,le15,1
5471,C=C(C)C(=O)OCC,"2-Propenoic acid, 2-methyl-, ethyl ester",288.75,le15,1
5472,C=CCOCC1CO1,"Propane, 1-(allyloxy)-2,3-epoxy- (8CI)",330.35,le15,1
5473,C=COC(=O)CCC,"Butanoic acid, ethenyl ester (9CI)",299.5499999999999,le15,1
5474,C/C=C/C(=O)OCC,"2-Butenoic acid, ethyl ester, (E)- (9CI)",275.15,le15,1
5475,CCC1CCC(=O)O1,"2(3H)-Furanone, 5-ethyldihydro-",371.45,le15,1
5476,COC(=O)C=C(C)C,methyl 3-methylbut-2-enoate,305.25,le15,1
5477,C=CC(=O)OCCC,propyl prop-2-enoate,299.25,le15,1
5478,CCC/C=C/C(=O)O,(E)-hex-2-enoic acid,388.55,le15,1
5479,C=CCOC(=O)CC,"Propionic acid, allyl ester (8CI)",306.65,le15,1
5480,C=CC1OCC(C)O1,"1,3-Dioxolane, 4-methyl-2-vinyl-",278.45,le15,1
5481,CCC(=O)CC(C)=O,"hexane-2,4-dione",326.75,le15,1
5482,O=C(O)C1CCCC1,cyclopentanecarboxylic acid,366.15,le15,1
5483,CCCC(=O)C(C)=O,"2,3-Hexanedione",301.15,le15,1
5484,CC/C=C/CC(=O)O,(E)-hex-3-enoic acid,379.55,le15,1
5485,CCC(=O)C(=O)CC,"3,4-Hexanedione",305.95,le15,1
5486,COC1CCC=CO1,"2H-Pyran, 3,4-dihydro-2-methoxy-",289.85,le15,1
5487,CC(=O)C1OC1(C)C,"Ethanone, 1-(3,3-dimethyloxiranyl)- (9CI)",308.45,le15,1
5488,CCOC(=O)C1CC1,ethyl cyclopropanecarboxylate,302.85,le15,1
5489,C=CC(C)(C)C(=O)O,"2,2-dimethylbut-3-enoic acid",357.45,le15,1
5490,CC=CC(=O)OCC,"2-Butenoic acid, ethyl ester",301.45,le15,1
5491,CCC/C=C/C(=O)O,"2-Hexenoic acid, (2E)-",388.55,le15,1
5492,CC/C=C(\C)C(=O)O,(E)-2-methylpent-2-enoic acid,380.15,le15,1
5493,C/C=C/C(C)C(=O)O,(E)-2-methylpent-3-enoic acid,370.55,le15,1
5494,C=CCCCC(=O)O,hex-5-enoic acid,373.25,le15,1
5495,C=CCC(=O)OCC,ethyl but-3-enoate,303.85,le15,1
5496,C/C=C(\C)C(=O)OC,methyl (E)-2-methylbut-2-enoate,308.15,le15,1
5497,CC(C)/C=C/C(=O)O,(E)-4-methylpent-2-enoic acid,379.15,le15,1
5498,CN1CCN(C)C1=O,"2-Imidazolidinone, 1,3-dimethyl-",349.65,le15,1
5499,O=NN1CCCCC1,"Piperidine, 1-nitroso-",365.95,le15,1
5500,SCc1ccco1,furan-2-ylmethanethiol,318.15,le15,1
5501,OCc1cccs1,thiophen-2-ylmethanol,349.85,le15,1
5502,Cn1cc[nH]c1=S,"2H-Imidazole-2-thione, 1,3-dihydro-1-methyl-",320.5499999999999,le15,1
5503,Cc1nnc(C)s1,"2,5-dimethyl-1,3,4-thiadiazole",354.35,le15,1
5504,OCC1CCCCC1,cyclohexylmethanol,344.25,le15,1
5505,CCC(C)CC(C)=O,4-methylhexan-2-one,304.15,le15,1
5506,CC(=O)CCC(C)C,"2-Hexanone, 5-methyl-",314.25,le15,1
5507,CCC(=O)C(C)(C)C,"2,2-dimethylpentan-3-one",295.5499999999999,le15,1
5508,CC(=O)CC(C)(C)C,"4,4-dimethylpentan-2-one",292.0499999999999,le15,1
5509,OCCC1CCCC1,2-cyclopentylethanol,343.5499999999999,le15,1
5510,CCCCC(C)C=O,2-methylhexanal,305.75,le15,1
5511,COC1CCCCC1,methoxycyclohexane,293.85,le15,1
5512,CCCC(C)C(C)=O,3-methylhexan-2-one,304.15,le15,1
5513,C[C@H]1CCC[C@@H](O)C1,"(1R,3S)-3-methylcyclohexan-1-ol",335.95,le15,1
5514,CCCC(=O)C(C)C,"3-Hexanone, 2-methyl-",297.0499999999999,le15,1
5515,CC1CCC[C@@H](O)C1,(1R)-3-methylcyclohexan-1-ol,335.95,le15,1
5516,C[C@H]1CCCC[C@H]1O,"(1R,2S)-2-methylcyclohexan-1-ol",332.0499999999999,le15,1
5517,CCC(=O)C(C)CC,4-methylhexan-3-one,304.15,le15,1
5518,CCCC(C)CC=O,3-methylhexanal,305.75,le15,1
5519,CCCC/C=C/CO,"2-Hepten-1-ol, (E)- (8CI)(9CI)",341.65,le15,1
5520,CC1(O)CCCCC1,1-methylcyclohexan-1-ol,340.92800000000005,le15,1
5521,CCC(=O)CC(C)C,5-methylhexan-3-one,304.15,le15,1
5522,C=CCC(O)CCC,hept-1-en-4-ol,329.5499999999999,le15,1
5523,CC1CCCCC1O,2methylcyclohexanol,331.0,le15,1
5524,CC1CCCC(O)C1,3methylcyclohexanol,335.0,le15,1
5525,OC1CCCCCC1,Cycloheptanol,344.0,le15,1
5526,CCCCCCC=O,Heptanal,314.0,le15,1
5527,CC1CNC(C)CN1,"Piperazine, 2,5-dimethyl-",331.45,le15,1
5528,NCC1CCNCC1,piperidin-4-ylmethanamine,351.15,le15,1
5529,C=CCSCC=C,"1-Propene, 3,3'-thiobis-",319.25,le15,1
5530,CCCC(C)(C)CC,"3,3-dimethylhexane",282.45,le15,1
5531,CCC(C)C(C)(C)C,"2,2,3-trimethylpentane",281.85,le15,1
5532,CCC(C)C(C)CC,"3,4-dimethylhexane",304.75,le15,1
5533,CCCC(C)CCC,4-methylheptane,279.85,le15,1
5534,CC(C)CCC(C)C,"2,5-dimethylhexane",299.85,le15,1
5535,CC(C)(C)C(C)(C)C,"2,2,3,3-tetramethylbutane",277.54999999999995,le15,1
5536,CCCCCCCC,Octane,286.15,le15,1
5537,CCC(C)(C)C(C)C,"2,3,3-trimethylpentane",284.5499999999999,le15,1
5538,CC(C)C(C)C(C)C,"2,3,4-trimethylpentane",278.15,le15,1
5539,CCC(C)(CC)CC,3-ethyl-3-methylpentane,286.25,le15,1
5540,CCCCCC(C)C,2methylheptane,277.0,le15,1
5541,CCCC(CC)CC,3ethylhexane,279.0,le15,1
5542,CCCCC(C)CC,3methylheptane,280.0,le15,1
5543,CC(C)CC(C)(C)C,Isooctane,261.0,le15,1
5544,C=CC[Si](C)(C)C,trimethyl(prop-2-enyl)silane,280.35,le15,1
5545,Clc1cnccn1,2-chloropyrazine,330.15,le15,1
5546,CS(=O)(=O)Cl,Methanesulphonyl chloride,315.35,le15,1
5547,ClCOCCl,"Ether, bis(chloromethyl)",348.04999999999984,le15,1
5548,OCC(Cl)Cl,"Ethanol, 2,2-dichloro-",351.45,le15,1
5549,S=C(Cl)Cl,Carbonothioic dichloride,335.15,le15,1
5550,[SiH3]C(Cl)Cl,"Silane, dichloromethyl-",240.95,le15,1
5551,Fc1cccc(F)n1,"Pyridine, 2,6-difluoro-",307.0499999999999,le15,1
5552,O=C1CCC(=O)N1O,"Succinimide, N-hydroxy- (8CI)",385.65,le15,1
5553,C=C(C)C(=O)NCO,"Acrylamide, N-(hydroxymethyl)-2-methyl- (6CI,8CI)",412.15,le15,1
5554,CC(=O)N(C)C(C)=O,N-acetyl-N-methylacetamide,339.65,le15,1
5555,O=NN1CCNCC1,"Piperazine, 1-nitroso-",386.95,le15,1
5556,Cn1sccc1=O,"3(2H)-Isothiazolone, 2-methyl-",337.45,le15,1
5557,CN1CCC(O)CC1,1-methylpiperidin-4-ol,360.95,le15,1
5558,CC1CNCC(C)O1,"Morpholine, 2,6-dimethyl-",317.5499999999999,le15,1
5559,CCCCCC(N)=O,Hexanamide,375.374,le15,1
5560,CCN(CC)C(C)=O,"Acetamide, N,N-diethyl-",342.45,le15,1
5561,CCCCNC(C)=O,N-butylacetamide,387.65,le15,1
5562,C=COCCN(C)C,"Ethylamine, N,N-dimethyl-2-(vinyloxy)- (6CI,7CI,8CI)",301.5499999999999,le15,1
5563,CCN1CCOCC1,"Morpholine, 4-ethyl-",300.95,le15,1
5564,CC(=O)CC(C)(C)N,4-amino-4-methylpentan-2-one,329.35,le15,1
5565,CN(C)C(=N)N(C)C,"Guanidine, 1,1,3,3-tetramethyl- (8CI)",333.15,le15,1
5566,CC(C)(C)N=C=S,2-isothiocyanato-2-methylpropane,311.45,le15,1
5567,CCCCN=C=S,"Isothiocyanic acid, butyl ester",339.25,le15,1
5568,CC(C)CN=C=S,1-isothiocyanato-2-methylpropane,317.35,le15,1
5569,CCCCSC#N,butyl thiocyanate,338.0499999999999,le15,1
5570,C[Si](C)(C)N=[N+]=[N-],"Silane, azidotrimethyl-",279.15,le15,1
5571,CCCCCC(C)N,heptan-2-amine,327.15,le15,1
5572,CC(C)CCN(C)C,"1-Butanamine, N,N,3-trimethyl-",283.15,le15,1
5573,CCNC(C)C(C)C,"Propylamine, N-ethyl-1,2-dimethyl- (7CI)",278.75,le15,1
5574,CCCC(N)CCC,heptan-4-amine,314.45,le15,1
5575,CCC(C)CC(C)N,4-methylhexan-2-amine,302.0499999999999,le15,1
5576,CCCCCCCN,1-Heptanamine,317.15,le15,1
5577,NC(=O)N=NC(N)=O,"Formamide, 1,1'-azobis-",399.15,le15,1
5578,COC(=O)CC(C)=O,"Butanoic acid, 3-oxo-, methyl ester",334.75,le15,1
5579,CC(=O)CCC(=O)O,"Pentanoic acid, 4-oxo-",388.15,le15,1
5580,CC(=O)COC(C)=O,2-oxopropyl acetate,325.0499999999999,le15,1
5581,CCOC(=O)C(C)=O,"Pyruvic acid, ethyl ester (8CI)",318.15,le15,1
5582,C=CC(=O)OCCO,"2-Propenoic acid, 2-hydroxyethyl ester",371.45,le15,1
5583,CCCC(=O)C(=O)O,2-oxopentanoic acid,349.75,le15,1
5584,CCC1COC(=O)O1,"1,3-Dioxolan-2-one, 4-ethyl-",401.55,le15,1
5585,CC(C)C(=O)C(=O)O,3-methyl-2-oxobutanoic acid,344.15,le15,1
5586,O=NN1CCOCC1,"Morpholine, N-nitroso-",363.65,le15,1
5587,CC(=O)NNC(C)=O,"Hydrazine, 1,2-diacetyl- (8CI)",456.45,le15,1
5588,CC#Cc1ccccc1,prop-1-ynylbenzene,335.37199999999996,le15,1
5589,C#Cc1ccc(C)cc1,1-ethynyl-4-methylbenzene,322.039,le15,1
5590,C1=Cc2ccccc2C1,1H-Indene,331.15,le15,1
5591,CCC(CC)C(=O)O,"Butanoic acid, 2-ethyl-",360.15,le15,1
5592,CCCC(C)C(=O)O,"Pentanoic acid, 2-methyl-",364.15,le15,1
5593,CCOC(=O)C(C)C,"Propanoic acid, 2-methyl-, ethyl ester",286.15,le15,1
5594,OCC1CCCCO1,"2H-Pyran-2-methanol, tetrahydro-",366.45,le15,1
5595,CCC(C)CC(=O)O,"Pentanoic acid, 3-methyl-",361.55,le15,1
5596,CCC(C)OC(C)=O,"Acetic acid, 1-methylpropyl ester",289.25,le15,1
5597,CCCC(=O)OCC,"Butanoic acid, ethyl ester",292.594,le15,1
5598,CCCOC(=O)CC,"Propanoic acid, propyl ester",297.5499999999999,le15,1
5599,CC(=O)OCC(C)C,"Acetic acid, 2-methylpropyl ester",294.85,le15,1
5600,CC(C)CCOC=O,"1-Butanol, 3-methyl-, formate",295.45,le15,1
5601,CC(=O)CC(C)(C)O,"2-Pentanone, 4-hydroxy-4-methyl-",331.15,le15,1
5602,CCC1(C)OCCO1,"1,3-Dioxolane, 2-ethyl-2-methyl-",286.15,le15,1
5603,CC(=O)OC(C)(C)C,"Acetic acid, 1,1-dimethylethyl ester",284.15,le15,1
5604,COC(=O)CC(C)C,methyl 3-methylbutanoate,292.5499999999999,le15,1
5605,CCC(C)(C)C(=O)O,"2,2-dimethylbutanoic acid",352.54999999999984,le15,1
5606,CCCCC(=O)OC,"Pentanoic acid, methyl ester",295.35,le15,1
5607,CCC(=O)OC(C)C,propan-2-yl propanoate,292.5499999999999,le15,1
5608,CC(C)(C)CC(=O)O,"3,3-dimethylbutanoic acid",353.75,le15,1
5609,CC(C)OCC1CO1,"Oxirane, ((1-methylethoxy)methyl)-",306.45,le15,1
5610,CC(C)C(C)C(=O)O,"2,3-dimethylbutanoic acid",356.54999999999984,le15,1
5611,COCC1CCCO1,2-(methoxymethyl)oxolane,306.45,le15,1
5612,CC(=O)CCCCO,6-hydroxyhexan-2-one,365.35,le15,1
5613,COC(=O)C(C)(C)C,"methyl 2,2-dimethylpropanoate",279.85,le15,1
5614,CCC(C)C(=O)OC,"Butanoic acid, 2-methyl-, methyl ester",292.5499999999999,le15,1
5615,CCC(CC)C(=O)O,2ethylbutyricacid,360.0,le15,1
5616,CC(C)OCC1CO1,IsopropylGlycidylEther,306.0,le15,1
5617,CCCCC(=O)OC,Methylvalerate,295.0,le15,1
5618,CCC(C)OC(C)=O,secButylacetate,289.0,le15,1
5619,CC(=O)OC(C)(C)C,tertButylacetate,288.0,le15,1
5620,CCCCNC(N)=O,"Urea, butyl-",335.45,le15,1
5621,CCNC(=O)NCC,"1,3-diethylurea",394.25,le15,1
5622,CN(C)C(=O)N(C)C,"Urea, 1,1,3,3-tetramethyl-",327.0499999999999,le15,1
5623,CN(C)N=NN(C)C,"2-Tetrazene, 1,1,4,4-tetramethyl-",535.55,le15,1
5624,CCCC(O)CCC,4-Heptanol,334.95,le15,1
5625,CCCCC(O)CC,3-Heptanol,327.5499999999999,le15,1
5626,CC(C)(C)C(C)(C)O,"2,3,3-trimethylbutan-2-ol",306.75,le15,1
5627,CCC(C)(O)C(C)C,"2,3-dimethylpentan-3-ol",313.75,le15,1
5628,CCC(O)(CC)CC,3-ethylpentan-3-ol,313.15,le15,1
5629,CCCC(C)(O)CC,3-methylhexan-3-ol,322.5499999999999,le15,1
5630,CCCC(O)C(C)C,2-methylhexan-3-ol,313.70599999999996,le15,1
5631,CCOC(C)(C)CC,2-ethoxy-2-methylbutane,278.15,le15,1
5632,CCCCOC(C)C,1-propan-2-yloxybutane,280.45,le15,1
5633,CCCCOCCC,1-propoxybutane,288.75,le15,1
5634,CCC(O)C(C)(C)C,"2,2-dimethylpentan-3-ol",311.45,le15,1
5635,CCCCCCOC,1-methoxyhexane,294.15,le15,1
5636,CCCOCC(C)C,2-methyl-1-propoxypropane,282.15,le15,1
5637,CCCCCOCC,1-ethoxypentane,289.5499999999999,le15,1
5638,CC(C)C(O)C(C)C,"3-Pentanol, 2,4-dimethyl-",310.15,le15,1
5639,CCCCC(C)CO,2-methylhexan-1-ol,334.95,le15,1
5640,CCCCCC(C)O,2heptanol,344.0,le15,1
5641,CCN(CC)CCN,"1,2-Ethanediamine, N,N-diethyl-",303.75,le15,1
5642,CCNCCN(C)C,"N-ethyl-N',N'-dimethylethane-1,2-diamine",297.0499999999999,le15,1
5643,NCCCCCCN,Hexamethylenediamine,367.15,le15,1
5644,CC(C)N(N)C(C)C,"Hydrazine, 1,1-bis(1-methylethyl)- (9CI)",303.45,le15,1
5645,C1CCCSCC1,thiepane,324.85,le15,1
5646,SC1CCCCC1,Cyclohexanethiol,316.0,le15,1
5647,FC(F)=C(F)Cl,"1-chloro-1,2,2-trifluoroethene",245.15,le15,1
5648,Cc1ccc(C#N)cc1,"Benzonitrile, 4-methyl-",358.786,le15,1
5649,N#CCc1ccccc1,"Acetonitrile, phenyl-",374.15,le15,1
5650,c1ccc2[nH]ccc2c1,1H-Indole,380.989,le15,1
5651,Cc1ccccc1C#N,"Benzonitrile, 2-methyl-",358.15,le15,1
5652,Cc1cccc(C#N)c1,"Benzonitrile, 3-methyl-",359.85,le15,1
5653,N#CCc1ccccc1,Benzylcyanide,374.0,le15,1
5654,CC(C)CCON=O,"Nitrous acid, 3-methylbutyl ester",283.15,le15,1
5655,CCCCCON=O,"Nitrous acid, pentyl ester",282.0499999999999,le15,1
5656,CC(C)[C@H](N)C(=O)O,Valine,356.158,le15,1
5657,CCC(CC)[N+](=O)[O-],"Pentane, 3-nitro-",319.25,le15,1
5658,CCCCOC(N)=O,"Carbamic acid, butyl ester",381.15,le15,1
5659,CCNC(=O)OCC,ethyl N-ethylcarbamate,348.75,le15,1
5660,CNCCCC(=O)O,"Butanoic acid, 4-(methylamino)-",370.45,le15,1
5661,CCN(CC)CCO,"Ethanol, 2-(diethylamino)-",322.0499999999999,le15,1
5662,CCCCNCCO,"Ethanol, 2-(butylamino)-",352.45,le15,1
5663,NCCCCCCO,"1-Hexanol, 6-amino- (8CI)(9CI)",346.65,le15,1
5664,CC(C)(C)NCCO,"Ethanol, 2-((1,1-dimethylethyl)amino)-",342.0499999999999,le15,1
5665,CCCCC(N)CO,"1-Hexanol, 2-amino-",373.15,le15,1
5666,CC(C)C[C@H](N)CO,"1-Pentanol, 2-amino-4-methyl-, (S)-",363.75,le15,1
5667,CC(C)CNCCO,2-(2-methylpropylamino)ethanol,345.25,le15,1
5668,CN(C)[Si](C)(C)C,N-methyl-N-trimethylsilylmethanamine,254.15,le15,1
5669,N#CCCCCCl,"Pentanenitrile, 5-chloro-",371.45,le15,1
5670,O=C(O)C(=O)C(=O)O,"Propanedioic acid, oxo- (9CI)",486.15,le15,1
5671,O=C(O)CCC(=O)O,Butanedioic acid,384.05,le15,1
5672,COC(=O)C(=O)OC,dimethyl oxalate,348.15,le15,1
5673,O=COCCOC=O,"Ethylene glycol, diformate",359.35,le15,1
5674,NC(=O)NCC(=O)O,"Glycine, N-carbamoyl- (7CI,8CI)",424.65,le15,1
5675,CC(C)(N=O)[N+](=O)[O-],"Propane, 2-nitro-2-nitroso-",309.25,le15,1
5676,CNC(=N)N[N+](=O)[O-],"Guanidine, N-methyl-N'-nitro- (9CI)",378.55,le15,1
5677,c1ccc2occc2c1,Benzofuran,329.0,le15,1
5678,c1ccc2[nH]cnc2c1,1H-Benzimidazole,481.589,le15,1
5679,CCOC(=O)C(C)O,"Propanoic acid, 2-hydroxy-, ethyl ester",327.75,le15,1
5680,CCOC(=O)OCC,"Carbonic acid, diethyl ester",304.25,le15,1
5681,CCOC(=O)[C@H](C)O,"Propanoic acid, 2-hydroxy-, ethyl ester, (2S)-",319.15,le15,1
5682,N#Cc1ccccc1N,2-aminobenzonitrile,395.35,le15,1
5683,COC(=O)C(C)(C)O,methyl 2-hydroxy-2-methylpropanoate,309.95,le15,1
5684,N#Cc1cccc(N)c1,"Benzonitrile, 3-amino- (9CI)",385.15,le15,1
5685,COCCC(=O)OC,methyl 3-methoxypropanoate,320.15,le15,1
5686,CCOC(=O)COC,ethyl 2-methoxyacetate,319.25,le15,1
5687,COCCOC(C)=O,"Ethanol, 2-methoxy-, acetate",317.0499999999999,le15,1
5688,c1ccc2[nH]ncc2c1,1H-indazole,401.65,le15,1
5689,N#Cc1ccc(N)cc1,"Benzonitrile, p-amino- (8CI)",400.25,le15,1
5690,CCOC(=O)OCC,DiethylCarbonate,298.0,le15,1
5691,C=CS(=O)(=O)C=C,"Ethene, 1,1'-sulfonylbis-",375.15,le15,1
5692,O=S1(=O)CC=CC1,"Thiophene, 2,5-dihydro-, 1,1-dioxide",385.15,le15,1
5693,CCP(CC)CC,triethylphosphane,255.95,le15,1
5694,CC(=O)NC(N)=S,"Acetamide, N-(aminothioxomethyl)-",353.15,le15,1
5695,C=C(C)c1ccccc1,"Benzene, (1-methylethenyl)-",318.70599999999996,le15,1
5696,C=Cc1cccc(C)c1,1-ethenyl-3-methylbenzene,320.5499999999999,le15,1
5697,CC=Cc1ccccc1,"Benzene, 2-propenyl-",306.45,le15,1
5698,c1ccc2c(c1)CCC2,"1H-Indene, 2,3-dihydro-",323.15,le15,1
5699,C=Cc1ccc(C)cc1,"Benzene, 1-ethenyl-4-methyl-",321.85,le15,1
5700,c1ccc(C2CC2)cc1,cyclopropylbenzene,317.0499999999999,le15,1