,smiles,compound,flashpoint,source,pure substance
6340,OCC(F)(F)C(F)F,"2,2,3,3-tetrafluoropropan-1-ol",316.15,le15,1
6341,Fc1ccc(F)c(F)c1,"1,2,4-trifluorobenzene",277.15,le15,1
6342,Fc1cc(F)cc(F)c1,"1,3,5-trifluorobenzene",333.65,le15,1
6343,COC(=O)CC(=O)OC,"Propanedioic acid, dimethyl ester",363.15,le15,1
6344,O=C(O)CCCC(=O)O,Pentanedioic acid,424.35,le15,1
6345,O=C1CCc2ccccc21,"2,3-dihydroinden-1-one",384.85,le15,1
6346,Cc1cc2ccccc2o1,2-methyl-1-benzofuran,340.15,le15,1
6347,O=C/C=C/c1ccccc1,"2-Propenal, 3-phenyl-, (E)- (9CI)",344.15,le15,1
6348,Cc1cccc2ccoc12,7-methyl-1-benzofuran,344.54999999999984,le15,1
6349,Cc1ccc2occc2c1,5-methyl-1-benzofuran,362.55,le15,1
6350,Cc1coc2ccccc12,3-methyl-1-benzofuran,346.35,le15,1
6351,O=CC=Cc1ccccc1,Cinnamaldehyde,344.0,le15,1
6352,CCOC(=O)C(C)(C)O,ethyl 2-hydroxy-2-methylpropanoate,317.15,le15,1
6353,CC(=O)OOC(C)(C)C,"Ethaneperoxoic acid, 1,1-dimethylethyl ester",312.95,le15,1
6354,COCC(C)OC(C)=O,"Acetic acid, 2-methoxy-1-methylethyl ester",321.0499999999999,le15,1
6355,CCOCCOC(C)=O,"Ethanol, 2-ethoxy-, acetate",323.75,le15,1
6356,CC1OC(C)OC(C)O1,"1,3,5-Trioxane, 2,4,6-trimethyl-",312.35,le15,1
6357,COC1CCC(OC)O1,"2,5-dimethoxyoxolane",308.15,le15,1
6358,CCOCC(=O)OCC,ethyl 2-ethoxyacetate,321.45,le15,1
6359,C=COCCOCCO,"Ethanol, 2-(2-(ethenyloxy)ethoxy)- (9CI)",351.54999999999984,le15,1
6360,O=C(O)CCCCCO,6-hydroxyhexanoic acid,406.05,le15,1
6361,CCCCOCC(=O)O,"Acetic acid, butoxy-",370.65,le15,1
6362,N#CCc1ccc(N)cc1,4-Aminophenylacetonitrile,409.45,le15,1
6363,CCOC(=O)CC(C)O,"Butanoic acid, 3-hydroxy-, ethyl ester",337.15,le15,1
6364,CC1(C)OCC(CO)O1,"1,3-Dioxolane-4-methanol, 2,2-dimethyl-",353.15,le15,1
6365,OCC1CCC(CO)O1,[5-(hydroxymethyl)oxolan-2-yl]methanol,385.15,le15,1
6366,CC(C)OC(=O)C(C)O,propan-2-yl 2-hydroxypropanoate,330.35,le15,1
6367,C1=CC2C3C=CC(C3)C2C1,"4,7-Methano-1H-indene, 3a,4,7,7a-tetrahydro-",319.949,le15,1
6368,c1ccc2c(c1)CCCC2,"Naphthalene, 1,2,3,4-tetrahydro-",350.15,le15,1
6369,C=CCCc1ccccc1,but-3-enylbenzene,333.15,le15,1
6370,CC/C=C/c1ccccc1,[(E)-but-1-enyl]benzene,336.75,le15,1
6371,C=C(C)c1cccc(C)c1,1-methyl-3-prop-1-en-2-ylbenzene,331.35,le15,1
6372,C/C=C/Cc1ccccc1,[(E)-but-2-enyl]benzene,329.35,le15,1
6373,C=Cc1ccc(CC)cc1,1-ethenyl-4-ethylbenzene,335.25,le15,1
6374,C=C(C)c1ccccc1C,1-methyl-2-prop-1-en-2-ylbenzene,328.75,le15,1
6375,C=C(C)c1ccc(C)cc1,1-methyl-4-prop-1-en-2-ylbenzene,332.5499999999999,le15,1
6376,C=CCc1ccccc1C,1-methyl-2-prop-2-enylbenzene,330.45,le15,1
6377,C=C(CC)c1ccccc1,but-1-en-2-ylbenzene,330.25,le15,1
6378,CCC(CC)(CO)CO,"1,3-Propanediol, 2,2-diethyl-",374.25,le15,1
6379,CCCOCOCCC,1-(propoxymethoxy)propane,298.5499999999999,le15,1
6380,OCCCCCCCO,"heptane-1,7-diol",394.05,le15,1
6381,CCOC(CC)OCC,"1,1-diethoxypropane",285.95,le15,1
6382,CCCCOCC(C)O,"2-Propanol, 1-butoxy-",327.65,le15,1
6383,CCOC(C)(C)OCC,"2,2-diethoxypropane",275.15,le15,1
6384,CCCCCCCCF,1-fluorooctane,337.25,le15,1
6385,CCNC(=S)NCC,"Urea, 1,3-diethyl-2-thio-",329.35,le15,1
6386,CCCCNC(N)=S,"Urea, 1-butyl-2-thio-",349.25,le15,1
6387,C[Si](C)(C)CC(=O)O,"Acetic acid, (trimethylsilyl)-",334.65,le15,1
6388,CN(C)C(=S)N(C)C,"Urea, 1,1,3,3-tetramethyl-2-thio-",463.15,le15,1
6389,CC[Si](O)(CC)CC,triethyl(hydroxy)silane,330.37199999999996,le15,1
6390,C[Si](C)(C)CCCO,3-trimethylsilylpropan-1-ol,325.95,le15,1
6391,O=C1C=C(Cl)C(=O)O1,"3-chlorofuran-2,5-dione",368.65,le15,1
6392,Fc1cc(F)nc(F)c1,"2,4,6-Trifluoropyridine",300.65,le15,1
6393,Cc1nc2ccccc2o1,"2-methyl-1,3-benzoxazole",348.15,le15,1
6394,O=C1NCc2ccccc21,"2,3-dihydroisoindol-1-one",493.35,le15,1
6395,Cc1ccc(N=C=O)cc1,"Isocyanic acid, p-tolyl ester (7CI,8CI)",337.0499999999999,le15,1
6396,N#Cc1ccc(CO)cc1,p-Cyanobenzyl alcohol,406.75,le15,1
6397,COc1cccc(C#N)c1,m-Anisonitrile (8CI),378.15,le15,1
6398,N#CCc1ccc(O)cc1,"Benzeneacetonitrile, 4-hydroxy- (9CI)",410.35,le15,1
6399,Cc1ccccc1N=C=O,"Isocyanic acid, o-tolyl ester (7CI,8CI)",365.15,le15,1
6400,COc1ccc(C#N)cc1,p-Anisonitrile (8CI),529.65,le15,1
6401,Oc1ccc2[nH]ccc2c1,1H-Indol-5-ol (9CI),434.55,le15,1
6402,COc1ccccc1C#N,2-methoxybenzonitrile,376.55,le15,1
6403,Cc1ccc2[nH]nnc2c1,"1H-Benzotriazole, 5-methyl-",410.55,le15,1
6404,CCCCCO[N+](=O)[O-],pentyl nitrate,329.95,le15,1
6405,CC(O)C(=O)NCCO,"Propanamide, 2-hydroxy-N-(2-hydroxyethyl)-",456.95,le15,1
6406,Cn1nnc2ccccc21,1-methylbenzotriazole,390.55,le15,1
6407,Nc1nc2ccccc2[nH]1,1H-Benzimidazol-2-amine,477.75,le15,1
6408,CCC(C(C)O)[N+](=O)[O-],3-Nitropentan-2-ol,363.75,le15,1
6409,CC(C)CNC(=O)CF,"Acetamide, 2-fluoro-N-isobutyl-",367.65,le15,1
6410,O=C(O)C1CSCN1,4-Thiazolidinecarboxylic acid,438.85,le15,1
6411,O=C1CSC(=S)N1,"4-Thiazolidinone, 2-thioxo-",358.85,le15,1
6412,C=CCNc1ccccc1,"Benzenamine, N-2-propenyl-",362.55,le15,1
6413,c1ccc2c(c1)CCCN2,"1,2,3,4-tetrahydroquinoline",373.75,le15,1
6414,C=Cc1ccc(CC)cn1,"Pyridine, 2-ethenyl-5-ethyl- (9CI)",349.35,le15,1
6415,c1cnc2c(c1)CCCC2,"5,6,7,8-tetrahydroquinoline",359.26099999999997,le15,1
6416,Nc1ccc2c(c1)CCC2,"2,3-dihydro-1H-inden-5-amine",383.15,le15,1
6417,c1ccc2c(c1)CCNC2,"Isoquinoline, 1,2,3,4-tetrahydro-",372.05,le15,1
6418,c1cc2c(cn1)CCCC2,"5,6,7,8-tetrahydroisoquinoline",373.15,le15,1
6419,CCN(CCO)CCO,"Ethanol, 2,2'-(ethylimino)bis-",397.05,le15,1
6420,CCOC(CN)OCC,"2,2-diethoxyethanamine",318.15,le15,1
6421,CN(C)CCOCCO,"Ethanol, 2-(2-(dimethylamino)ethoxy)-",344.75,le15,1
6422,Nc1n[nH]c(=S)s1,"1,3,4-Thiadiazole-2(3H)-thione, 5-amino-",373.45,le15,1
6423,CSC(C)(C)C=NO,"Propionaldehyde, 2-methyl-2-(methylthio)-, oxime",354.25,le15,1
6424,O=C1CCC(=O)N1Cl,"1-chloropyrrolidine-2,5-dione",348.25,le15,1
6425,Fc1cc(F)nc(F)n1,"2,4,6-trifluoropyrimidine",308.85,le15,1
6426,O=C(O)COCC(=O)O,"Acetic acid, 2,2'-oxybis-",474.85,le15,1
6427,COC(=O)OC(=O)OC,"Formic acid, oxydi-, dimethyl ester (7CI,8CI)",353.15,le15,1
6428,O=C(O)CC(O)C(=O)O,2-hydroxybutanedioic acid,426.55,le15,1
6429,CC(C)([N+](=O)[O-])[N+](=O)[O-],"2,2-dinitropropane",348.35,le15,1
6430,O=C1Cc2ccccc2O1,3H-1-benzofuran-2-one,370.05,le15,1
6431,O=Cc1cccc(C=O)c1,"1,3-Benzenedicarboxaldehyde (9CI)",367.25,le15,1
6432,O=Cc1ccccc1C=O,"1,2-Benzenedicarboxaldehyde",371.65,le15,1
6433,O=CC(=O)c1ccccc1,"Benzeneacetaldehyde, alpha-oxo- (9CI)",342.95,le15,1
6434,O=C1OCc2ccccc21,3H-2-benzofuran-1-one,425.15,le15,1
6435,Nc1nc2ccccc2o1,"Benzoxazole, 2-amino-",395.05,le15,1
6436,O=NN(CCO)CCO,"Ethanol, 2,2'-(nitrosoimino)bis-",454.25,le15,1
6437,CC(=O)Cc1ccccc1,1-phenylpropan-2-one,360.65,le15,1
6438,Cc1ccc(CC=O)cc1,2-(4-methylphenyl)acetaldehyde,375.25,le15,1
6439,O=CCCc1ccccc1,3-Phenylpropionaldehyde,368.15,le15,1
6440,OCC=Cc1ccccc1,"2-Propen-1-ol, 3-phenyl-",397.912,le15,1
6441,C=CCc1ccc(O)cc1,"Phenol, p-allyl- (8CI)",375.75,le15,1
6442,C=Cc1ccccc1OC,1-ethenyl-2-methoxybenzene,343.75,le15,1
6443,C=Cc1ccc(OC)cc1,"Benzene, 1-ethenyl-4-methoxy- (9CI)",350.865,le15,1
6444,Oc1ccc2c(c1)CCC2,"1H-Inden-5-ol, 2,3-dihydro-",383.15,le15,1
6445,C1=CC23CCCC2(C=C1)O3,"3a,7a-Epoxy-1H-indene, 2,3-dihydro-",361.75,le15,1
6446,C=CCc1ccccc1O,"Phenol, 2-(2-propenyl)-",361.15,le15,1
6447,CC1Cc2ccccc2O1,"2-methyl-2,3-dihydro-1-benzofuran",338.35,le15,1
6448,C=CCOc1ccccc1,prop-2-enoxybenzene,335.95,le15,1
6449,CO/C=C/c1ccccc1,[(E)-2-methoxyethenyl]benzene,350.45,le15,1
6450,CCc1ccc(C=O)cc1,"Benzaldehyde, 4-ethyl-",365.35,le15,1
6451,OC1CCc2ccccc21,"2,3-dihydro-1H-inden-1-ol",418.15,le15,1
6452,Cc1ccccc1CC=O,2-(2-methylphenyl)acetaldehyde,377.75,le15,1
6453,CC(C=O)c1ccccc1,"Benzeneacetaldehyde, alpha-methyl-",349.26099999999997,le15,1
6454,CCC(=O)c1ccccc1,"1-Propanone, 1-phenyl-",360.54,le15,1
6455,c1ccc(CC2CO2)cc1,"Oxirane, (phenylmethyl)- (9CI)",354.85,le15,1
6456,Cc1ccc(C)c(C=O)c1,"2,5-dimethylbenzaldehyde",360.15,le15,1
6457,CCC(CO)(CO)CO,"1,3-Propanediol, 2-ethyl-2-(hydroxymethyl)-",420.85,le15,1
6458,OCCCCC(O)CO,"1,2,6-Hexanetriol",438.65,le15,1
6459,CC(O)COCC(C)O,"2-Propanol, 1,1'-oxybis-",410.95,le15,1
6460,CCOCCOCCO,"Ethanol, 2-(2-ethoxyethoxy)-",369.25,le15,1
6461,COCCOCCOC,"Ethane, 1,1'-oxybis(2-methoxy-",343.15,le15,1
6462,c1ccc2c(c1)NCCN2,"1,2,3,4-tetrahydroquinoxaline",449.25,le15,1
6463,COCC(COC)OC,"1,2,3-trimethoxypropane",315.85,le15,1
6464,c1ccc2sccc2c1,1-benzothiophene,335.15,le15,1
6465,c1ccc2sccc2c1,Benzo(b)thiophene,335.15,le15,1
6466,CC1CCS(=O)(=O)C1,"Thiophene, tetrahydro-3-methyl-, 1,1-dioxide",427.55,le15,1
6467,Cc1cc(C)c(C)cc1C,"Benzene, 1,2,4,5-tetramethyl-",347.04999999999984,le15,1
6468,CC(C)(C)c1ccccc1,"Benzene, (1,1-dimethylethyl)-",307.5499999999999,le15,1
6469,CCc1ccc(CC)cc1,"Benzene, 1,4-diethyl-",329.85,le15,1
6470,CCC(C)c1ccccc1,"Benzene, (1-methylpropyl)-",325.15,le15,1
6471,Cc1ccccc1C(C)C,"Benzene, 1-methyl-2-(1-methylethyl)-",323.15,le15,1
6472,CC(C)Cc1ccccc1,2-methylpropylbenzene,323.0499999999999,le15,1
6473,CCCc1ccc(C)cc1,1-methyl-4-propylbenzene,329.45,le15,1
6474,Cc1ccc(C(C)C)cc1,"Benzene, 1-methyl-4-(1-methylethyl)-",320.35,le15,1
6475,CCCCc1ccccc1,Butylbenzene,322.0,le15,1
6476,CCCS(=O)CCC,Propyl sulfoxide (8CI),374.45,le15,1
6477,CC[Si](F)(CC)CC,triethyl(fluoro)silane,292.15,le15,1
6478,CC(=O)C(Cl)C(C)=O,"2,4-Pentanedione, 3-chloro-",285.35,le15,1
6479,CCCCCC(=O)Cl,Hexanoyl chloride,352.15,le15,1
6480,CCC1(CCl)COC1,"Oxetane, 3-(chloromethyl)-3-ethyl-",322.5499999999999,le15,1
6481,CCC(CC)C(=O)Cl,2-ethylbutanoyl chloride,314.25,le15,1
6482,CC(C)(C)CC(=O)Cl,"3,3-dimethylbutanoyl chloride",303.35,le15,1
6483,CC(C)(C)C(=O)CCl,"2-Butanone, 1-chloro-3,3-dimethyl-",340.15,le15,1
6484,CCC(C)(C)C(=O)Cl,"2,2-dimethylbutanoyl chloride",303.35,le15,1
6485,CCCCC(Cl)CC,3-chloroheptane,312.35,le15,1
6486,CCCCCCCCl,1-chloroheptane,314.15,le15,1
6487,CCCCCCCCl,1chloroheptane,314.0,le15,1
6488,C=CC[Si](C)(C)Cl,chloro-dimethyl-prop-2-enylsilane,278.75,le15,1
6489,C/C=C(/C)Br,(Z)-2-bromobut-2-ene,284.25,le15,1
6490,C=CCCBr,4-bromobut-1-ene,282.5499999999999,le15,1
6491,C/C=C(\C)Br,(E)-2-bromobut-2-ene,274.25,le15,1
6492,C=C(Br)CC,2-bromobut-1-ene,284.75,le15,1
6493,CC/C=C/Br,(E)-1-bromobut-1-ene,287.65,le15,1
6494,C=CCCBr,4bromo1butene,282.0,le15,1
6495,Fc1nc(F)nc(F)n1,"2,4,6-trifluoro-1,3,5-triazine",418.15,le15,1
6496,O=c1[nH]c2ccccc2o1,2(3H)-Benzoxazolone,433.15,le15,1
6497,O.On1nnc2ccccc21,"1H-Benzotriazole, 1-hydroxy-, hydrate",435.35,le15,1
6498,Nc1nc2ncnc-2c[nH]1,1H-Purin-2-amine,636.05,le15,1
6499,Nc1[nH]cnc2ncnc1-2,1H-Purin-6-amine,595.8599999999999,le15,1
6500,N#CCc1ccccc1F,2-(2-fluorophenyl)acetonitrile,316.15,le15,1
6501,Nc1ncnc2[nH]ncc12,"1H-Pyrazolo(3,4-d)pyrimidine, 4-amino-",517.55,le15,1
6502,Cc1ccccc1NC=O,N-(2-methylphenyl)formamide,436.95,le15,1
6503,CC(=O)c1cccc(N)c1,"Ethanone, 1-(3-aminophenyl)-",354.54999999999984,le15,1
6504,CC(=O)c1ccc(N)cc1,"Acetophenone, 4'-amino- (8CI)",367.45,le15,1
6505,NCC(=O)c1ccccc1,2-amino-1-phenylethanone,376.55,le15,1
6506,C/C(=N\O)c1ccccc1,(NE)-N-(1-phenylethylidene)hydroxylamine,411.25,le15,1
6507,CN(C=O)c1ccccc1,N-methyl-N-phenylformamide,399.15,le15,1
6508,Cc1ccccc1C(N)=O,"Benzamide, 2-methyl-",380.75,le15,1
6509,CNC(=O)c1ccccc1,"Benzamide, N-methyl-",449.05,le15,1
6510,Cc1cccc(NC=O)c1,N-(3-methylphenyl)formamide,440.95,le15,1
6511,c1ccc2scnc2c1,Benzothiazole,369.75,le15,1
6512,c1ccc2sncc2c1,"1,2-Benzisothiazole",314.75,le15,1
6513,N#CSc1ccccc1,phenyl thiocyanate,367.55,le15,1
6514,CSC[C@H](N)C(=O)O,"L-Cysteine, S-methyl- (9CI)",408.55,le15,1
6515,C[C@H](N)Cc1ccccc1,"Benzeneethanamine, alpha-methyl-, (alphaS)-",360.55,le15,1
6516,CCNc1ccccc1C,N-ethyl-2-methylaniline,362.05,le15,1
6517,Cc1ccc(N(C)C)cc1,"Benzenamine, N,N,4-trimethyl-",357.35,le15,1
6518,CCNc1cccc(C)c1,"Benzenamine, N-ethyl-3-methyl-",362.15,le15,1
6519,CN(C)Cc1ccccc1,"Benzenemethanamine, N,N-dimethyl-",327.5499999999999,le15,1
6520,Cc1cccc(N(C)C)c1,"N,N,3-trimethylaniline",354.15,le15,1
6521,Cc1cc(C)c(N)cc1C,"Benzenamine, 2,4,5-trimethyl- (9CI)",268.15,le15,1
6522,C[C@@H](N)Cc1ccccc1,(2R)-1-phenylpropan-2-amine,360.55,le15,1
6523,CC(CN)c1ccccc1,"Benzeneethanamine, beta-methyl- (9CI)",357.75,le15,1
6524,CC(C)(N)c1ccccc1,2-phenylpropan-2-amine,357.2,le15,1
6525,CNCCc1ccccc1,"Benzeneethanamine, N-methyl- (9CI)",347.04999999999984,le15,1
6526,CCN(C)c1ccccc1,"Aniline, N-ethyl-N-methyl- (8CI)",347.54999999999984,le15,1
6527,CCNc1ccc(C)cc1,"p-Toluidine, N-ethyl- (8CI)",357.25,le15,1
6528,CCCNc1ccccc1,"Benzenamine, N-propyl-",359.95,le15,1
6529,CCc1ncc(C)cc1C,"2-ethyl-3,5-dimethylpyridine",337.65,le15,1
6530,NCCCc1ccccc1,3-phenylpropan-1-amine,468.15,le15,1
6531,Cc1ccc(CCN)cc1,p-Methylphenethylamine,363.15,le15,1
6532,CC(C)(C)c1ccncc1,4-tert-butylpyridine,336.45,le15,1
6533,CCCCc1ccncc1,4-butylpyridine,354.82099999999997,le15,1
6534,CCNCc1ccccc1,"Benzenemethanamine, N-ethyl-",339.15,le15,1
6535,Cc1cc(C)c(C)c(C)n1,"2,3,4,6-tetramethylpyridine",347.15,le15,1
6536,CCc1cccc(C)c1N,"Benzenamine, 2-ethyl-6-methyl-",362.55,le15,1
6537,CCc1cc(C)nc(C)c1,"4-ethyl-2,6-dimethylpyridine",330.5499999999999,le15,1
6538,Cc1cc(C)c(N)c(C)c1,"Benzenamine, 2,4,6-trimethyl-",369.15,le15,1
6539,CCCCc1cccnc1,3-butylpyridine,352.15,le15,1
6540,CC(C)Nc1ccccc1,"Benzenamine, N-(1-methylethyl)-",360.85,le15,1
6541,CCCc1ccccc1N,"Benzenamine, 2-propyl- (9CI)",370.95,le15,1
6542,CCCCc1ccccn1,2-butylpyridine,341.95,le15,1
6543,CSC(=S)N(C)C,"Carbamodithioic acid, dimethyl-, methyl ester (9CI)",327.0499999999999,le15,1
6544,CCN(CC)C(=O)Cl,"Carbamoyl chloride, diethyl-",348.15,le15,1
6545,CCN(CC)CCCl,2-Chloroethyldiethylamine,295.95,le15,1
6546,C[As](C)(C)=O,"Arsine oxide, trimethyl-",329.5499999999999,le15,1
6547,O=Nc1ccc(N=O)cc1,"Benzene, 1,4-dinitroso-",376.65,le15,1
6548,O=c1[nH]cnc2[nH]ncc12,"1,5-Dihydro-4H-pyrazolo(3,4-d)pyrimidin-4-one (9CI)",402.85,le15,1
6549,O=c1[nH]cc2ncnc-2[nH]1,"2H-Purin-2-one, 1,3-dihydro-",640.25,le15,1
6550,COC(=O)c1ccccc1,"Benzoic acid, methyl ester",353.35,le15,1
6551,Cc1cccc(C(=O)O)c1,"Benzoic acid, 3-methyl-",423.15,le15,1
6552,CC(=O)c1ccc(O)cc1,1-(4-hydroxyphenyl)ethanone,394.35,le15,1
6553,Cc1ccc(C(=O)O)cc1,"Benzoic acid, 4-methyl-",397.85,le15,1
6554,O=C(O)Cc1ccccc1,"Acetic acid, phenyl-",429.36300000000006,le15,1
6555,O=COCc1ccccc1,"Formic acid, phenylmethyl ester",355.15,le15,1
6556,CC(=O)c1ccccc1O,"Acetophenone, 2'-hydroxy- (8CI)",360.65,le15,1
6557,COc1ccc(C=O)cc1,"Benzaldehyde, 4-methoxy-",382.05,le15,1
6558,COc1ccccc1C=O,"Benzaldehyde, 2-methoxy-",390.15,le15,1
6559,CC1=CC(=O)C=C(C)C1=O,"2,5-Cyclohexadiene-1,4-dione, 2,6-dimethyl- (9CI)",344.25,le15,1
6560,COc1cccc(C=O)c1,"Benzaldehyde, 3-methoxy-",383.15,le15,1
6561,Cc1ccc(O)c(C=O)c1,2-hydroxy-5-methylbenzaldehyde,358.25,le15,1
6562,Cc1ccc(C=O)c(O)c1,2-hydroxy-4-methylbenzaldehyde,361.15,le15,1
6563,CC1=CC(=O)C(C)=CC1=O,"2,5-Cyclohexadiene-1,4-dione, 2,5-dimethyl-",344.25,le15,1
6564,OCC(CO)(CO)CO,"1,3-Propanediol, 2,2-bis(hydroxymethyl)-",473.25,le15,1
6565,N=C(NO)c1ccccc1,"Benzenecarboximidamide, N-hydroxy- (9CI)",412.85,le15,1
6566,NNC(=O)c1ccccc1,"Benzoic acid, hydrazide",412.85,le15,1
6567,COC(OC)(OC)OC,tetramethoxymethane,279.85,le15,1
6568,NC(=O)c1ccc(N)cc1,"Benzamide, p-amino- (8CI)",438.05,le15,1
6569,CC(=O)Nc1ccncc1,"Acetamide, N-4-pyridinyl- (9CI)",435.15,le15,1
6570,CC(=O)Nc1cccnc1,N-pyridin-3-ylacetamide,424.95,le15,1
6571,O=S1(=O)CCCCO1,"1,2-Oxathiane, 2,2-dioxide",408.35,le15,1
6572,CC1CCOS(=O)O1,"4-methyl-1,3,2-dioxathiane 2-oxide",342.45,le15,1
6573,c1ccc2nsnc2c1,"2,1,3-benzothiadiazole",368.15,le15,1
6574,CC(C)c1ccccc1O,"Phenol, 2-(1-methylethyl)-",380.15,le15,1
6575,CC(C)c1ccc(O)cc1,"Phenol, 4-(1-methylethyl)-",368.45,le15,1
6576,OCCCc1ccccc1,"1-Propanol, 3-phenyl-",382.15,le15,1
6577,Cc1cc(C)c(O)cc1C,"2,4,5-trimethylphenol",375.45,le15,1
6578,Cc1ccc(O)c(C)c1C,"2,3,4-trimethylphenol",378.45,le15,1
6579,Cc1cc(O)cc(C)c1C,"Phenol, 3,4,5-trimethyl-",382.25,le15,1
6580,Cc1cc(C)c(O)c(C)c1,"Phenol, 2,4,6-trimethyl-",369.85,le15,1
6581,Cc1ccc(C(C)O)cc1,1-(4-methylphenyl)ethanol,375.15,le15,1
6582,CCOCc1ccccc1,ethoxymethylbenzene,326.0499999999999,le15,1
6583,CCOc1ccccc1C,"Benzene, 1-ethoxy-2-methyl-",337.35,le15,1
6584,CC(C)(O)c1ccccc1,"Benzenemethanol, alpha,alpha-dimethyl-",360.95,le15,1
6585,CCOc1ccc(C)cc1,"Phenetole, p-methyl- (8CI)",343.15,le15,1
6586,CCCc1ccc(O)cc1,"Phenol, 4-propyl-",379.25,le15,1
6587,Cc1cc(C)c(C)c(O)c1,"Phenol, 2,3,5-trimethyl-",376.75,le15,1
6588,Cc1ccc(CCO)cc1,"Phenethyl alcohol, p-methyl- (8CI)",380.35,le15,1
6589,CCc1ccc(CO)cc1,"Benzenemethanol, 4-ethyl-",377.55,le15,1
6590,COc1cc(C)cc(C)c1,"1-methoxy-3,5-dimethylbenzene",338.15,le15,1
6591,COc1c(C)cccc1C,"2-methoxy-1,3-dimethylbenzene",340.15,le15,1
6592,CC(CO)c1ccccc1,"Phenethyl alcohol, beta-methyl-",381.15,le15,1
6593,CCc1ccc(OC)cc1,1-ethyl-4-methoxybenzene,341.65,le15,1
6594,CCc1ccc(C)cc1O,"m-Cresol, 6-ethyl-",368.55,le15,1
6595,COc1cc(C)ccc1C,"2-methoxy-1,4-dimethylbenzene",339.25,le15,1
6596,CC(C)Oc1ccccc1,propan-2-yloxybenzene,335.0499999999999,le15,1
6597,COc1cccc(C)c1C,"1-methoxy-2,3-dimethylbenzene",342.95,le15,1
6598,COCCc1ccccc1,"Benzene, (2-methoxyethyl)-",325.65,le15,1
6599,COc1ccc(C)c(C)c1,"4-methoxy-1,2-dimethylbenzene",348.75,le15,1
6600,COc1ccc(C)cc1C,"1-methoxy-2,4-dimethylbenzene",338.25,le15,1
6601,CCc1ccccc1OC,1-ethyl-2-methoxybenzene,333.75,le15,1
6602,Cc1ccccc1CCO,2-(2-methylphenyl)ethanol,381.45,le15,1
6603,Cc1cc(C)cc(CO)c1,"(3,5-dimethylphenyl)methanol",379.85,le15,1
6604,CCC(O)c1ccccc1,"Benzenemethanol, alpha-ethyl- (9CI)",363.15,le15,1
6605,CCCc1cccc(O)c1,3-propylphenol,381.95,le15,1
6606,CCc1cc(C)cc(O)c1,3-ethyl-5-methylphenol,376.65,le15,1
6607,Cc1ccc(C)c(O)c1C,"Phenol, 2,3,6-trimethyl-",373.15,le15,1
6608,Cc1ccc(CO)c(C)c1,"(2,4-dimethylphenyl)methanol",374.85,le15,1
6609,CN(C)c1ccc(N)cc1,"1,4-Benzenediamine, N,N-dimethyl-",361.75,le15,1
6610,Cc1nc(C)c(C)nc1C,"2,3,5,6-Tetramethylpyrazine",344.75,le15,1
6611,NCc1cccc(CN)c1,"m-Xylene-alpha,alpha'-diamine (8CI)",403.55,le15,1
6612,CN(C)c1ccccc1N,"2-N,2-N-dimethylbenzene-1,2-diamine",355.45,le15,1
6613,CN(C)c1cccc(N)c1,"3-N,3-N-dimethylbenzene-1,3-diamine",361.95,le15,1
6614,CC(C)(C#N)C(C)(C)C#N,"Butanedinitrile, tetramethyl- (9CI)",389.55,le15,1
6615,Cc1c(N)ccc(N)c1C,"p-Phenylenediamine, 2,3-dimethyl-",424.65,le15,1
6616,CNCCc1ccccn1,"Pyridine, 2-(2-(methylamino)ethyl)-",369.85,le15,1
6617,CCc1nc(C)cnc1C,"3-ethyl-2,5-dimethylpyrazine",342.5499999999999,le15,1
6618,CCc1nccnc1CC,"2,3-diethylpyrazine",337.15,le15,1
6619,N#CCCCCCCC#N,Octanedinitrile,419.35,le15,1
6620,C=CSc1ccccc1,Phenyl vinyl sulphide,318.75,le15,1
6621,c1ccc2c(c1)CCS2,"2,3-dihydro-1-benzothiophene",357.04999999999984,le15,1
6622,CO[Si](C)(OC)OC,"Silane, methyltrimethoxy-",284.25,le15,1
6623,CN(C)S(=O)N(C)C,N-dimethylsulfinamoyl-N-methylmethanamine,353.35,le15,1
6624,CC1=CCC2CC1C2(C)C,"Bicyclo(3.1.1)hept-2-ene, 2,6,6-trimethyl-",305.372,le15,1
6625,CC1=CCC(C(C)C)C=C1,"1,3-Cyclohexadiene, 2-methyl-5-(1-methylethyl)-",320.35,le15,1
6626,C=C1CC=C(C(C)C)CC1,4-methylidene-1-propan-2-ylcyclohexene,319.65,le15,1
6627,CC1=CCC(C(C)C)=CC1,"1,4-Cyclohexadiene, 1-methyl-4-(1-methylethyl)-",324.85,le15,1
6628,CC1=CC=C(C(C)C)CC1,"1,3-Cyclohexadiene, 1-methyl-4-(1-methylethyl)-",319.25,le15,1
6629,C=CC(=C)CCC=C(C)C,"1,6-Octadiene, 7-methyl-3-methylene-",317.5499999999999,le15,1
6630,C=C(C)C1CC=C(C)CC1,"Cyclohexene, 1-methyl-4-(1-methylethenyl)-",319.15,le15,1
6631,C1C2CC3CC1CC(C2)C3,"Tricyclo(3.3.1.13,7)decane",322.0499999999999,le15,1
6632,CC12C=CC(CC1)C2(C)C,"4,7,7-trimethylbicyclo[2.2.1]hept-2-ene",298.0499999999999,le15,1
6633,C=C1CC2CC1CC2(C)C,"2,2-dimethyl-5-methylidenebicyclo[2.2.1]heptane",308.0499999999999,le15,1
6634,CC1=CC2C(CC1)C2(C)C,"4,7,7-trimethylbicyclo[4.1.0]hept-4-ene",311.45,le15,1
6635,CC(C)=C1C=CC(C)CC1,"Cyclohexene, 3-methyl-6-(1-methylethylidene)- (9CI)",337.5499999999999,le15,1
6636,CC1=CCC2(C(C)C)CC12,2-methyl-5-propan-2-ylbicyclo[3.1.0]hex-2-ene,306.75,le15,1
6637,C/C=C(C)/C=C/C=C(C)C,"2,4,6-Octatriene, 2,6-dimethyl-, (4E,6E)-",324.95,le15,1
6638,C[C@H]1C=C[C@@H]2C(C1)C2(C)C,"(1R,4R)-4,7,7-TRIMETHYLBICYCLO[4.1.0]HEPT-2-ENE",303.25,le15,1
6639,C=C1[C@H]2CC[C@H](C2)C1(C)C,"(1S,4R)-3,3-dimethyl-2-methylidenebicyclo[2.2.1]heptane",308.0499999999999,le15,1
6640,C=C1CC[C@H]2C[C@@H]1C2(C)C,"Bicyclo(3.1.1)heptane, 6,6-dimethyl-2-methylene-, (1S,5S)-",308.0499999999999,le15,1