,smiles,compound,flashpoint,source,pure substance
11011,O=C(C=Cc1ccc(Br)cc1)c1ccccc1,4-Bromochalcone,352.75,le15,1
11012,O=C(C=Cc1ccccc1)c1ccc(Br)cc1,"2-Propen-1-one, 1-(4-bromophenyl)-3-phenyl-",355.54999999999984,le15,1
11013,O=S(=O)(c1ccc(Cl)cc1)c1ccc(Cl)cc1,"Benzene, 1,1'-sulfonylbis(4-chloro-",484.35,le15,1
11014,Oc1ccc(Cl)cc1Sc1cc(Cl)ccc1O,Bis(2-hydroxy-5-chlorophenyl)sulfide,478.95,le15,1
11015,CN(c1c([N+](=O)[O-])cc([N+](=O)[O-])cc1[N+](=O)[O-])[N+](=O)[O-],"Benzenamine, N-methyl-N,2,4,6-tetranitro-",531.55,le15,1
11016,FC(F)(F)C(F)(Cl)C(Cl)(Cl)C(F)(F)F,"2,2,3-trichloro-1,1,1,3,4,4,4-heptafluorobutane",295.95,le15,1
11017,CN1CCC(=C2c3ccccc3C=Cc3ccccc32)CC1,"Piperidine, 4-(5H-dibenzo(a,d)cyclohepten-5-ylidene)-1-methyl-",467.65,le15,1
11018,c1ccc(CN(Cc2ccccc2)Cc2ccccc2)cc1,"N,N-dibenzyl-1-phenylmethanamine",476.15,le15,1
11019,c1ccc(CN(Cc2ccccc2)Cc2ccccc2)cc1,Tribenzylamine,476.0,le15,1
11020,OCc1c2ccccc2c(CO)c2c1ccc1ccccc12,"7,12-Dihydroxymethylbenz(a)anthracene",556.65,le15,1
11021,C[C@]12CC[C@@H]3c4ccc(O)cc4CC[C@H]3[C@@H]1C[C@@H](O)[C@@H]2O,"Estra-1,3,5(10)-triene-3,16,17-triol, (16alpha,17beta)-",493.95,le15,1
11022,CCP(=S)(OC)Sc1ccc(C(C)(C)C)cc1,"Phosphonodithioic acid, ethyl-, S-(p-tert-butylphenyl) O-methyl ester",444.35,le15,1
11023,O=C1C(Cl)=C(Cl)C(Cl)(Cl)C1(Cl)Cl,"2-Cyclopenten-1-one, 2,3,4,4,5,5-hexachloro-",375.35,le15,1
11024,CCCCCCCCCCCCCCCCCCCl,1-chlorooctadecane,457.15,le15,1
11025,CCCCNP(=S)(OCC)Sc1ccccc1,"Phosphoramidodithioic acid, butyl-, O-ethyl S-phenyl ester",451.75,le15,1
11026,CCN(CC)CCOC(=O)C1(c2ccccc2)CCCC1,"Cyclopentanecarboxylic acid, 1-phenyl-, 2-(diethylamino)ethyl ester",397.95,le15,1
11027,FC(F)(F)c1nc2cc(Cl)c(Cl)c(Cl)c2[nH]1,"Benzimidazole, 4,5,6-trichloro-2-(trifluoromethyl)-",451.45,le15,1
11028,N#Cc1cc(I)c(O)c([N+](=O)[O-])c1,"Benzonitrile, 4-hydroxy-3-iodo-5-nitro-",396.35,le15,1
11029,CCOP(=O)(OCC)OP(=O)(OCC)OCC,"Pyrophosphoric acid, tetraethyl ester",398.75,le15,1
11030,COc1cc(Cc2cnc(N)nc2N)cc(OC)c1OC,"2,4-Pyrimidinediamine, 5-((3,4,5-trimethoxyphenyl)methyl)-",545.05,le15,1
11031,CC(=O)Nc1ccc(S(=O)(=O)c2ccc(N)cc2)cc1,"Acetamide, N-(4-((4-aminophenyl)sulfonyl)phenyl)- (9CI)",583.45,le15,1
11032,CCOP(=O)(OCC)SCCS(=O)(=O)CC,"Phosphorothioic acid, O,O-diethyl S-(2-(ethylsulfonyl)ethyl) ester",478.75,le15,1
11033,CCOP(=S)(OCC)SCCS(=O)CC,"Phosphorodithioic acid, O,O-diethyl S-((ethylsulfinyl)ethyl) ester",474.15,le15,1
11034,C=CC(C)(O)CC/C=C(\C)CC/C=C(\C)CCC=C(C)C,"1,6,10,14-Hexadecatetraen-3-ol, 3,7,11,15-tetramethyl-, (6E,10E)-",433.15,le15,1
11035,CN(C)C(=O)Nc1ccc(Oc2ccc(Cl)cc2)cc1,"Urea, 3-(p-(p-chlorophenoxy)phenyl)-1,1-dimethyl-",504.75,le15,1
11036,CCOP(=S)(OCC)Oc1ccc([N+](=O)[O-])cc1,"Phosphorothioic acid, O,O-diethyl O-(4-nitrophenyl) ester",446.65,le15,1
11037,CCOP(=O)(Oc1ccc([N+](=O)[O-])cc1)SCC,"Phosphorothioic acid, O,S-diethyl O-(4-nitrophenyl) ester (9CI)",466.25,le15,1
11038,O=C(O)c1ccccc1C(=O)Nc1cccc2ccccc12,"Benzoic acid, 2-((1-naphthalenylamino)carbonyl)- (9CI)",499.55,le15,1
11039,CCCCCCCCCCCCCCCBr,1-bromopentadecane,406.85,le15,1
11040,CN(C)C=C1C(=O)N(c2ccccc2)N=C1c1ccccc1,"2-Pyrazolin-5-one, 4-dimethylaminomethylene-1,3-diphenyl-",467.65,le15,1
11041,CN1CCN(C2=Nc3ccccc3Cc3ccccc32)CC1,"11H-Dibenz(b,e)azepine, 6-(4-methyl-1-piperazinyl)-",491.25,le15,1
11042,COP(=O)(OC)OC(Cl)C(Cl)(Cl)Cl,"Phosphoric acid, dimethyl 1,2,2,2-tetrachloroethyl ester",384.35,le15,1
11043,Clc1ccc(-c2ccc(Cl)cc2Cl)c(Cl)c1,"1,1'-Biphenyl, 2,2',4,4'-tetrachloro-",433.45,le15,1
11044,O=C(O)CN(CCN(CC(=O)O)CC(=O)O)CC(=O)O,"Glycine, N,N'-1,2-ethanediylbis(N-(carboxymethyl)-",598.3499999999998,le15,1
11045,Nc1ccc2ccccc2c1N=Nc1ccc([N+](=O)[O-])cc1,"2-Naphthalenamine, 1-(2-(4-nitrophenyl)diazenyl)-",558.95,le15,1
11046,Nc1ccc(Oc2cccc(Oc3ccc(N)cc3)c2)cc1,"Benzenamine, 4,4'-(1,3-phenylenebis(oxy))bis-",544.05,le15,1
11047,CCOP(=S)(OCC)SCS(=O)(=O)CC,"Phosphorodithioic acid, O,O-diethyl S-((ethylsulfonyl)methyl) ester",467.25,le15,1
11048,CC(C1=C(CCN(C)C)Cc2ccccc21)c1ccccn1,"1H-Indene-2-ethanamine, N,N-dimethyl-3-(1-(2-pyridinyl)ethyl)- (9CI)",478.75,le15,1
11049,CC(O)CN(CCN(CC(C)O)CC(C)O)CC(C)O,"2-Propanol, 1,1',1'',1'''-(1,2-ethanediyldinitrilo)tetrakis-",373.15,le15,1
11050,C[Si]1(C)N[Si](C)(C)N[Si](C)(C)N[Si](C)(C)N1,"Cyclotetrasilazane, 2,2,4,4,6,6,8,8-octamethyl-",339.15,le15,1
11051,CC(C)(Oc1ccccc1)C(=O)OCCN1CCOCC1,"Propionic acid, 2-methyl-2-phenoxy-, 2-morpholinoethyl ester (8CI)",473.75,le15,1
11052,CN1CCC(=C2c3ccccc3Sc3ccccc32)CC1,"Piperidine, 1-methyl-4-(9H-thioxanthen-9-ylidene)- (9CI)",492.85,le15,1
11053,Fc1c(F)c(F)c(I)c(F)c1F,"1,2,3,4,5-pentafluoro-6-iodobenzene",334.45,le15,1
11054,O=[N+]([O-])c1ccc(I)c([N+](=O)[O-])c1,"1-Iodo-2,4-dinitrobenzene",439.75,le15,1
11055,CC(=O)c1c(C)c([N+](=O)[O-])c(C(C)(C)C)c([N+](=O)[O-])c1C,"Ethanone, 1-(4-(1,1-dimethylethyl)-2,6-dimethyl-3,5-dinitrophenyl)-",426.35,le15,1
11056,CCCC1C(=O)N(c2ccccc2)N(c2ccccc2)C1=O,"3,5-Pyrazolidinedione, 1,2-diphenyl-4-propyl-",444.45,le15,1
11057,N=C(N)c1ccc2cc(-c3ccc(C=NN)cc3)sc2c1,"Benzo(b)thiophene-6-carboximidamide, 2-(4-(aminoiminomethyl)phenyl)-",541.65,le15,1
11058,CCCCC/C=C\C/C=C\CCCCCCCC(=O)OC,"Linoleic acid, methyl ester (8CI)",370.15,le15,1
11059,CCC(Br)(Br)CBr,"1,2,2-tribromobutane",357.04999999999984,le15,1
11060,CC(Br)C(C)(Br)Br,"2,2,3-tribromobutane",350.35,le15,1
11061,FC1(F)C(Cl)=C(Cl)C(F)(F)C(F)(F)C1(F)F,"1,2-dichloro-3,3,4,4,5,5,6,6-octafluorocyclohexene",306.75,le15,1
11062,N#CC(O[C@@H]1O[C@H](CO)[C@@H](O)[C@H](O)[C@H]1O)c1ccccc1,"Benzeneacetonitrile, alpha-(beta-D-glucopyranosyloxy)- (9CI)",545.65,le15,1
11063,CN1C(=O)CN=C(c2ccccc2)c2cc([N+](=O)[O-])ccc21,"2H-1,4-Benzodiazepin-2-one, 1,3-dihydro-1-methyl-7-nitro-5-phenyl-",553.8499999999998,le15,1
11064,[O-][n+]1c2ccc3ccccc3c2cc2c3ccccc3ccc21,"Dibenz(a,j)acridine, 7-oxide",572.8499999999998,le15,1
11065,COc1cc2c3c(c1OC)-c1ccccc1CC3N(C)CC2,"4H-Dibenzo(de,g)quinoline, 5,6,6a,7-tetrahydro-1,2-dimethoxy-6-methyl-",425.05,le15,1
11066,CCCCCCCCCCCCCCCCCCN=C=O,1-isocyanatooctadecane,418.05,le15,1
11067,NS(=O)(=O)c1cc2c(cc1Cl)N=CNS2(=O)=O,"2H-1,2,4-Benzothiadiazine-7-sulfonamide, 6-chloro-, 1,1-dioxide",595.15,le15,1
11068,Nc1c(Br)cc(Br)cc1[N+](=O)[O-],"Benzenamine, 2,4-dibromo-6-nitro-",425.65,le15,1
11069,FC(F)(F)C(F)(F)C(F)(F)I,"1,1,1,2,2,3,3-heptafluoro-3-iodopropane",276.54999999999995,le15,1
11070,FC(F)(F)C(F)(I)C(F)(F)F,"1,1,1,2,3,3,3-heptafluoro-2-iodopropane",277.85,le15,1
11071,CCOC(=O)C(F)(F)C(F)(F)C(F)(F)C(=O)OCC,"Pentanedioic acid, hexafluoro-, diethyl ester",360.04999999999984,le15,1
11072,O=[N+]([O-])N1CN([N+](=O)[O-])CN([N+](=O)[O-])CN([N+](=O)[O-])C1,"1,3,5,7-Tetrazocine, octahydro-1,3,5,7-tetranitro-",774.95,le15,1
11073,CCCCCCCCCCCCI,1-iodododecane,386.65,le15,1
11074,c1ccc(-c2nc(-c3ccccc3)c(-c3ccccc3)[nH]2)cc1,"1H-Imidazole, 2,4,5-triphenyl-",545.75,le15,1
11075,CN(C)CCCN1c2ccccc2CCc2cc(O)ccc21,"5H-Dibenz(b,f)azepin-2-ol, 10,11-dihydro-5-(3-(dimethylamino)propyl)-",512.65,le15,1
11076,CN1CCC(CN2c3ccccc3Sc3ccccc32)C1,"10H-Phenothiazine, 10-((1-methyl-3-pyrrolidinyl)methyl)-",487.25,le15,1
11077,O=C1c2ccccc2C(=O)N1SC(Cl)(Cl)Cl,"1H-Isoindole-1,3(2H)-dione, 2-((trichloromethyl)thio)-",428.85,le15,1
11078,CCCCCCCCCCCCCCCCCCCCC,henicosane,386.15,le15,1
11079,C[Si]1(C)O[Si](C)(C)O[Si](C)(C)O[Si](C)(C)O1,"Cyclotetrasiloxane, octamethyl-",336.35,le15,1
11080,O=C(O)C(Br)(Br)Br,"Acetic acid, 2,2,2-tribromo-",370.15,le15,1
11081,O=C(OC(Cl)(Cl)Cl)OC(Cl)(Cl)Cl,bis(trichloromethyl) carbonate,326.45,le15,1
11082,O=[N+]([O-])c1cc(Br)c(O)c(Br)c1,"Phenol, 2,6-dibromo-4-nitro-",407.05,le15,1
11083,O=C1c2ccccc2C(=O)c2c1ccc(C(=O)O)c2[N+](=O)[O-],"2-Anthracenecarboxylic acid, 9,10-dihydro-1-nitro-9,10-dioxo- (9CI)",525.45,le15,1
11084,Cc1c([N+](=O)[O-])c(C)c([N+](=O)[O-])c(C(C)(C)C)c1[N+](=O)[O-],"Benzene, 1-(1,1-dimethylethyl)-3,5-dimethyl-2,4,6-trinitro-",447.35,le15,1
11085,O=c1n(CC2CO2)c(=O)n(CC2CO2)c(=O)n1CC1CO1,"1,3,5-Triazine-2,4,6(1H,3H,5H)-trione, 1,3,5-tris(oxiranylmethyl)-",530.05,le15,1
11086,C(Oc1nc(OCC2CO2)nc(OCC2CO2)n1)C1CO1,"1,3,5-Triazine, 2,4,6-tris(oxiranylmethoxy)- (9CI)",453.05,le15,1
11087,CC(C)(C)c1nnc(NS(=O)(=O)c2ccccc2)s1,"Benzenesulfonamide, N-(5-tert-butyl-1,3,4-thiadiazol-2-yl)-",498.75,le15,1
11088,COP(=S)(OC)Oc1ccc([N+](=O)[O-])c(Cl)c1,"Phosphorothioic acid, O-(3-chloro-4-nitrophenyl) O,O-dimethyl ester",448.65,le15,1
11089,COP(=S)(OC)Oc1ccc([N+](=O)[O-])cc1Cl,"Phosphorothioic acid, O-(2-chloro-4-nitrophenyl) O,O-dimethyl ester",442.15,le15,1
11090,COP(=S)(OC)Oc1ccc(Cl)c([N+](=O)[O-])c1,"Phosphorothioic acid, O-(4-chloro-3-nitrophenyl) O,O-dimethyl ester",438.95,le15,1
11091,O=[N+]([O-])C(Br)(Br)Br,"Methane, nitrotribromo-",321.25,le15,1
11092,CC(=O)CC(c1ccco1)c1c(O)c2ccccc2oc1=O,"2H-1-Benzopyran-2-one, 3-(1-(2-furanyl)-3-oxobutyl)-4-hydroxy-",487.35,le15,1
11093,CCN(CC)c1ccc(N=Nc2ccc([N+](=O)[O-])cc2)cc1,"Benzenamine, N,N-diethyl-4-((4-nitrophenyl)azo)-",510.95,le15,1
11094,c1ccc(C2=NN(c3ccccc3)C(c3ccccc3)C2)cc1,"1H-Pyrazole, 4,5-dihydro-1,3,5-triphenyl-",501.45,le15,1
11095,CCCC(c1cc(C)cc(C)c1O)c1cc(C)cc(C)c1O,"2,4-Xylenol, 6,6'-butylidenebis-",475.05,le15,1
11096,CN(C)CCC(C)(C)NC(=O)Cc1cccc2ccccc12,"1-Naphthaleneacetamide, alpha-(2-(dimethylamino)ethyl)-alpha-isopropyl",518.8499999999998,le15,1
11097,CC(CN(C)C)CN1c2ccccc2Sc2ccccc21,"10H-Phenothiazine-10-propanamine, N,N,beta-trimethyl-",481.15,le15,1
11098,CCCCCCCCC1OC1CCCCCCCC(=O)O,"Oxiraneoctanoic acid, 3-octyl- (9CI)",414.25,le15,1
11099,CCCCCCCCCCCCCCCCCC(=O)OC,methyl octadecanoate,383.15,le15,1
11100,CCCCSP(SCCCC)SCCCC,"Phosphorotrithious acid, tributyl ester",456.95,le15,1
11101,CCCCCCCCCCCCCCCC(=O)OC(C)C,"Hexadecanoic acid, 1-methylethyl ester",435.35,le15,1
11102,ClC1=C(Cl)C2(Cl)C=CC1(Cl)C2(Cl)Cl,"2,5-Norbornadiene, 1,2,3,4,7,7-hexachloro- (8CI)",407.75,le15,1
11103,CCCCC(OC(=O)CCC(=O)[O-])c1ccc(Cl)cc1,"Succinic acid, alpha-butyl-p-chlorobenzyl ester",507.65,le15,1
11104,CCOP(=O)(OCC)Oc1ccc(Cl)cc1Cl,"Phosphoric acid, 2,4-dichlorophenyl diethyl ester",481.65,le15,1
11105,CCOP(=S)(CC)Oc1ccc(Cl)cc1Cl,"Phosphonothioic acid, ethyl-, O-(2,4-dichlorophenyl) O-ethyl ester",434.55,le15,1
11106,Cn1c(=O)c2c(nc(Cc3ccc(N)cc3)n2C)n(C)c1=O,"Caffeine, 8-(p-aminobenzyl)-",576.15,le15,1
11107,COc1ccc2c3c1O[C@H]1C(=O)CC[C@H]4[C@@H](C2)N(C)CC[C@]314,"Morphinan-6-one, 4,5alpha-epoxy-3-methoxy-17-methyl- (8CI)",506.05,le15,1
11108,CNC1=Nc2ccc(Cl)cc2C(c2ccccc2)=[N+]([O-])C1,"3H-1,4-Benzodiazepine, 7-chloro-2-(methylamino)-5-phenyl-, 4-oxide",559.0,le15,1
11109,CCN(CC)CCNC(=O)c1cc(Cl)c(N)cc1OC,"Benzamide, 4-amino-5-chloro-N-(2-(diethylamino)ethyl)-2-methoxy- (9CI)",480.15,le15,1
11110,O=[N+]([O-])c1c(Cl)c(Cl)cc2nc(C(F)(F)F)[nH]c12,"Benzimidazole, 5,6-dichloro-4-nitro-2-(trifluoromethyl)-",477.35,le15,1
11111,O=[N+]([O-])c1cc2nc(C(F)(F)F)[nH]c2c(Cl)c1Cl,"Benzimidazole, 4,5-dichloro-6-nitro-2-(trifluoromethyl)-",477.35,le15,1
11112,BrCCCCCCCCCCBr,"Decane, 1,10-dibromo-",426.55,le15,1
11113,O=C(O)c1cc(O)c2c(c1)C(=O)c1cc(O)cc(O)c1C2=O,"2-Anthracenecarboxylic acid, 9,10-dihydro-4,5,7-trihydroxy-9,10-dioxo-",657.8499999999998,le15,1
11114,COP(=O)(OC)OC(C)=CC(=O)OCc1ccccc1,"2-Butenoic acid, 3-((dimethoxyphosphinyl)oxy)-, phenylmethyl ester",458.55,le15,1
11115,COc1cc(O)c2c(c1)C(=O)c1c(O)c(C)cc(O)c1C2=O,"9,10-Anthracenedione, 1,4,5-trihydroxy-7-methoxy-2-methyl- (9CI)",502.75,le15,1
11116,CC(=O)Oc1ccccc1C(=O)Oc1ccccc1C(=O)O,"Benzoic acid, 2-(acetyloxy)-, 2-carboxyphenyl ester",477.05,le15,1
11117,COc1c(O)cc2oc(-c3ccc(O)cc3)cc(=O)c2c1O,"4H-1-Benzopyran-4-one, 5,7-dihydroxy-2-(4-hydroxyphenyl)-6-methoxy-",503.25,le15,1
11118,COc1cc2c(c(O)c1O)C(=O)c1c(O)cc(C)cc1C2=O,"Anthraquinone, 3-methoxy-6-methyl-1,2,8-trihydroxy-",486.65,le15,1
11119,Oc1ccc2ccccc2c1Cc1c(O)ccc2ccccc12,"2-Naphthalenol, 1,1'-methylenebis- (9CI)",531.75,le15,1
11120,Nc1ccc(S(=O)(=O)Nc2cnc3ccccc3n2)cc1,"Benzenesulfonamide, 4-amino-N-2-quinoxalinyl-",560.25,le15,1
11121,CCCCCCC1=CC(=O)CC(c2ccc3c(c2)OCO3)C1,"2-Cyclohexen-1-one, 3-hexyl-5-(3,4-(methylenedioxy)phenyl)-",474.65,le15,1
11122,O=S(=O)(C(Cl)(Cl)Cl)C(Cl)(Cl)Cl,"Methane, sulfonylbis(trichloro-",398.85,le15,1
11123,O=C1c2ccc(Br)cc2C(=O)C1c1ccccc1,"5-Bromo-2-phenyl-1H-indene-1,3(2H)-dione",434.95,le15,1
11124,O=C1c2cccc(Br)c2C(=O)C1c1ccccc1,"1,3-Indandione, 4-bromo-2-phenyl-",434.95,le15,1
11125,O=C(c1ccccc1)N(O)c1ccc2c(c1)Cc1ccccc1-2,"Benzohydroxamic acid, N-fluoren-2-yl-",547.55,le15,1
11126,CN1CC[C@]23c4c5ccc(O)c4O[C@H]2C(=O)CC[C@@]3(O)[C@H]1C5,"Morphinan-6-one, 4,5alpha-epoxy-3,14-dihydroxy-17-methyl- (8CI)",540.606,le15,1
11127,COc1ccc2c3c1O[C@H]1[C@@H](O)CC[C@H]4[C@@H](C2)N(C)CC[C@]314,"Morphinan-6-ol, 4,5-epoxy-3-methoxy-17-methyl-, (5alpha,6alpha)-",506.35,le15,1
11128,O=c1c(O)c(-c2ccc(O)c(O)c2)oc2cc(O)cc(O)c12,"4H-1-Benzopyran-4-one, 2-(3,4-dihydroxyphenyl)-3,5,7-trihydroxy-",521.25,le15,1
11129,COc1cc(OC)c2c(=O)c3c(O)ccc(OC)c3oc2c1,"Xanthen-9-one, 8-hydroxy-1,3,5-trimethoxy-",466.75,le15,1
11130,c1ccc2c(c1)cc1c3ccccc3c3cccc4ccc2c1c43,"Naphtho(1,2,3,4-def)chrysene",555.15,le15,1
11131,CC(Cc1ccc(O)c(O)c1)C(C)Cc1ccc(O)c(O)c1,"1,2-Benzenediol, 4,4'-(2,3-dimethyl-1,4-butanediyl)bis-",520.95,le15,1
11132,CCC=CCC=CCC=CCC=CCC=CCCCC(=O)O,"5,8,11,14,17-Eicosapentaenoic acid",609.15,le15,1
11133,C[C@]1(O)CC[C@H]2[C@@H]3CCC4=CC(=O)CC[C@]4(C)[C@H]3CC[C@@]21C,"Androst-4-en-3-one, 17-hydroxy-17-methyl-, (17beta)-",458.45,le15,1
11134,CCCCCCCCCCCCCCCCCC(=O)Cl,Octadecanoyl chloride,438.15,le15,1
11135,C=C(CC)C(=O)c1ccc(OCC(=O)O)c(Cl)c1Cl,"Acetic acid, (2,3-dichloro-4-(2-methylene-1-oxobutyl)phenoxy)-",517.25,le15,1
11136,O=S(=O)(Oc1ccc(Cl)cc1Cl)c1ccccc1,"Phenol, 2,4-dichloro-, benzenesulfonate",490.15,le15,1
11137,FC(Cl)(C(Cl)(Cl)Cl)C(Cl)(Cl)Cl,"Propane, 1,1,1,2,3,3,3-heptachloro-2-fluoro-",379.35,le15,1
11138,COc1ccc2c(=O)c(C)c(C)oc2c1CN1CCOCC1,"4H-1-Benzopyran-4-one, 7-methoxy-2,3-dimethyl-8-(4-morpholinylmethyl)-",494.95,le15,1
11139,FC(F)(F)C(Cl)(Cl)C(Cl)(Cl)C(F)(F)F,"Butane, 2,2,3,3-tetrachloro-1,1,1,4,4,4-hexafluoro-",318.25,le15,1
11140,CC(COc1ccccc1)N(CCCl)Cc1ccccc1,"Benzenemethanamine, N-(2-chloroethyl)-N-(1-methyl-2-phenoxyethyl)-",457.65,le15,1
11141,CCCCN(CCCC)S(=O)(=O)c1ccc(Cl)cc1,"Benzenesulfonamide, N,N-dibutyl-4-chloro-",467.15,le15,1
11142,O=C(O)c1c(Cl)c(Cl)c(C(=O)O)c(Cl)c1Cl,"1,4-Benzenedicarboxylic acid, 2,3,5,6-tetrachloro-",484.05,le15,1
11143,O=C(O)c1ccc(C(=O)O)c2c(C(=O)O)ccc(C(=O)O)c12,"1,4,5,8-Naphthalenetetracarboxylic acid",687.15,le15,1
11144,O=C(O)CCCc1ccc(N(CCCl)CCCl)cc1,"Benzenebutanoic acid, 4-(bis(2-chloroethyl)amino)-",505.25,le15,1
11145,c1ccc2c(c1)-c1nc3ccccc3c3c1c-2nc1ccccc13,"Dibenz(c,f)indeno(1,2,3-ij)(2,7)naphthyridine",537.65,le15,1
11146,CCCCOC(=O)c1ccccc1C(=O)OC1CCCCC1,"Phthalic acid, butyl cyclohexyl ester (8CI)",457.55,le15,1
11147,CCO[Si](c1ccccc1)(c1ccccc1)c1ccccc1,ethoxy(triphenyl)silane,436.65,le15,1
11148,C[C@@H]1C[C@@]2(C)[C@@H](CC[C@H]3[C@@H]4CC[C@H](O)[C@@]4(C)CC[C@@H]32)CC1=O,"Androstan-3-one, 17-hydroxy-2-methyl-, (2alpha,5alpha,17beta)- (9CI)",452.55,le15,1
11149,CC(C)CCC(C)Nc1ccc(NC(C)CCC(C)C)cc1,"1,4-Benzenediamine, N,N'-bis(1,4-dimethylpentyl)-",507.95,le15,1
11150,Brc1nc(Br)c(Br)[nH]1,"1H-Imidazole, 2,4,5-tribromo-",469.65,le15,1
11151,NS(=O)(=O)c1cc(Cl)c(Cl)c(S(N)(=O)=O)c1,"1,3-Benzenedisulfonamide, 4,5-dichloro-",584.05,le15,1
11152,NC(Cc1ccc(N(CCCl)CCCl)cc1)C(=O)O,"Alanine, 3-(p-(bis(2-chloroethyl)amino)phenyl)-, DL-",513.05,le15,1
11153,N[C@@H](Cc1ccc(N(CCCl)CCCl)cc1)C(=O)O,"Alanine, 3-(p-(bis(2-chloroethyl)amino)phenyl)-, L-",513.05,le15,1
11154,COP(=S)(Oc1cc(C)ccc1[N+](=O)[O-])OC(C)C,"Phosphorothioic acid, O-isopropyl O-methyl O-(4-nitro-m-tolyl) ester",452.15,le15,1
11155,CCCCCCCCCCCCCCCCBr,1-bromohexadecane,412.95,le15,1
11156,COc1cc(CNC(=O)CCCC/C=C/C(C)C)ccc1O,"6-Nonenamide, 8-methyl-N-vanillyl-, (E)- (8CI)",536.25,le15,1
11157,Oc1c(I)cc(Cl)c2cccnc12,"8-Quinolinol, 5-chloro-7-iodo-",438.85,le15,1
11158,c1ccc([As](c2ccccc2)c2ccccc2)cc1,triphenylarsane,447.783,le15,1
11159,O=C(O)CN(CCCN(CC(=O)O)CC(=O)O)CC(=O)O,"Glycine, N,N'-1,3-propanediylbis(N-(carboxymethyl)-",602.25,le15,1
11160,c1ccc(-c2cc(-c3ccccc3)cc(-c3ccccc3)c2)cc1,"1,3,5-triphenylbenzene",511.15,le15,1
11161,Cc1ccc2ccc3c(ccc4c5cccc(C)c5ccc43)c2c1,"2,9-Dimethylpicene",552.25,le15,1
11162,CCCCCOC(=O)c1ccccc1C(=O)OCCCCC,"dipentyl benzene-1,2-dicarboxylate",461.95,le15,1
11163,COP(=O)(OC)Oc1nc(Cl)c(Cl)cc1Cl,"Phosphoric acid, dimethyl 3,5,6-trichloro-2-pyridinyl ester",425.45,le15,1
11164,CCCCC(CC)CO[PH](=O)OCC(CC)CCCC,"Phosphonic acid, bis(2-ethylhexyl) ester",465.95,le15,1
11165,CCCCOCCOCCOCCOCCOCCCC,"5,8,11,14,17-Pentaoxaheneicosane",410.35,le15,1
11166,CC/C=C\C/C=C\C/C=C\CCCCCCCC(=O)OCC,"9,12,15-Octadecatrienoic acid, ethyl ester, (9Z,12Z,15Z)-",373.85,le15,1
11167,COP(N)(=S)Oc1cc(Cl)c(Cl)cc1Cl,"Phosphoramidothioic acid, O-methyl O-(2,4,5-trichlorophenyl) ester",454.45,le15,1
11168,CCOC(=S)SSSSC(=S)OCC,"Methanethioic acid, tetrathiobis-, O,O-diethyl ester (9CI)",458.95,le15,1
11169,CCc1ccc(C(c2ccc(CC)cc2)C(Cl)Cl)cc1,"Benzene, 1,1'-(2,2-dichloroethylidene)bis(4-ethyl-",485.25,le15,1
11170,Cc1cccc(N(C)C(=S)Oc2ccc3ccccc3c2)c1,"Carbamothioic acid, methyl(3-methylphenyl)-, O-2-naphthalenyl ester",501.15,le15,1
11171,Fc1c(F)c(F)c(Br)c(Br)c1F,"1,2-dibromo-3,4,5,6-tetrafluorobenzene",371.15,le15,1
11172,O[C@H](CBr)[C@@H](O)[C@H](O)[C@H](O)CBr,"Mannitol, 1,6-dibromo-1,6-dideoxy-, D-",536.15,le15,1
11173,CCOP(=O)(OCC)Oc1ccc(S(C)(=O)=O)cc1,"Phosphoric acid, diethyl p-(methylsulfonyl)phenyl ester",473.95,le15,1
11174,CC(=O)CC(c1ccccc1)c1c(O)c2ccccc2oc1=O,"2H-1-Benzopyran-2-one, 4-hydroxy-3-(3-oxo-1-phenylbutyl)-",461.978,le15,1
11175,O=[N+]([O-])c1ccc(SSc2ccc([N+](=O)[O-])cc2)cc1,Bis(4-nitrophenyl) disulphide,516.509,le15,1
11176,CCOP(=S)(OCC)Oc1ccc(S(C)=O)cc1,"Phosphorothioic acid, O,O-diethyl O-(4-(methylsulfinyl)phenyl) ester",471.35,le15,1
11177,CCCCC1C(=O)N(c2ccccc2)N(c2ccccc2)C1=O,"3,5-Pyrazolidinedione, 4-butyl-1,2-diphenyl-",447.45,le15,1
11178,CCCCCOP(=O)(OCCCCC)OCCCCC,"Phosphoric acid, tripentyl ester (8CI)(9CI)",435.45,le15,1
11179,CCCCCCCCCCCCCCCCCC1=NCCN1,"1H-Imidazole, 2-heptadecyl-4,5-dihydro-",492.65,le15,1
11180,C=CCCCCCCCCCCCCCCCCCCCC,docos-1-ene,469.45,le15,1
11181,CP(=S)(Oc1ccccc1)Oc1ccc([N+](=O)[O-])cc1,"Phosphonothioic acid, methyl-, O-(4-nitrophenyl) O-phenyl ester",482.65,le15,1
11182,COCCOc1cnc(NS(=O)(=O)c2ccccc2)nc1,"Benzenesulfonamide, N-(5-(2-methoxyethoxy)-2-pyrimidinyl)-",538.55,le15,1
11183,c1ccc(CNc2ncnc3c2ncn3C2CCCCO2)cc1,"Adenine, N-benzyl-9-(tetrahydro-2H-pyran-2-yl)- (8CI)",554.25,le15,1
11184,CCC(=O)C(CC(C)N(C)C)(c1ccccc1)c1ccccc1,"3-Heptanone, 6-(dimethylamino)-4,4-diphenyl-",399.602,le15,1
11185,OC(CCCN1CCCCC1)(c1ccccc1)c1ccccc1,"1-Piperidinebutanol, alpha,alpha-diphenyl-",506.65,le15,1
11186,O=C(COc1ccc(Cl)cc1Cl)OCC=CCCl,"Acetic acid, 2,4-dichlorophenoxy-, 4-chloro-2-butenyl ester",439.05,le15,1
11187,CCOP(=S)(CC)Oc1ccc([N+](=O)[O-])cc1Cl,"Phosphonothioic acid, ethyl-, O-(2-chloro-4-nitrophenyl) O-ethyl ester",457.95,le15,1
11188,O=[N+]([O-])c1cc(Br)cc2nc(C(F)(F)F)[nH]c12,"Benzimidazole, 6-bromo-4-nitro-2-(trifluoromethyl)-",470.85,le15,1
11189,O=[N+]([O-])c1cc(Br)c2[nH]c(C(F)(F)F)nc2c1,"Benzimidazole, 4-bromo-6-nitro-2-(trifluoromethyl)-",470.85,le15,1
11190,CC(C(c1ccc(Cl)cc1)c1ccc(Cl)cc1)[N+](=O)[O-],"Benzene, 1,1'-(2-nitropropylidene)bis(4-chloro-",488.95,le15,1
11191,COc1ncnc(NS(=O)(=O)c2ccc(N)cc2)c1OC,"Benzenesulfonamide, 4-amino-N-(5,6-dimethoxy-4-pyrimidinyl)-",543.15,le15,1
11192,O=C(O)CCC1(CCC(=O)O)c2ccccc2-c2ccccc21,"Fluorene-9,9-dipropionic acid",583.95,le15,1
11193,O=C(CN1CC1)NCCCCCCCCNC(=O)CN1CC1,"1-Aziridineacetamide, N,N'-1,8-octanediylbis- (9CI)",560.45,le15,1
11194,C=C(C)C(=O)OCCCCCCCCCCCCCCCC,hexadecyl 2-methylprop-2-enoate,441.95,le15,1
11195,C[Si](C)(C)O[Si](C)(C)O[Si](C)(C)O[Si](C)(C)C,[dimethyl(trimethylsilyloxy)silyl]oxy-dimethyl-trimethylsilyloxysilane,361.25,le15,1
11196,O=C(OCCOc1ccc(Cl)cc1Cl)c1ccccc1,"Ethanol, 2-(2,4-dichlorophenoxy)-, benzoate",443.95,le15,1
11197,CCOCC(O)(c1ccc(Cl)cc1)c1ccc(Cl)cc1,"Benzenemethanol, 4-chloro-alpha-(4-chlorophenyl)-alpha-(ethoxymethyl)-",486.15,le15,1