,smiles,compound,flashpoint,source,pure substance
9432,O=C(C(F)(F)Cl)C(F)(F)Cl,"2-Propanone, 1,3-dichloro-1,1,3,3-tetrafluoro-",275.15,le15,1
9433,Clc1nc2ccccc2nc1Cl,"Quinoxaline, 2,3-dichloro-",416.05,le15,1
9434,O=C(CBr)c1ccccc1,"Acetophenone, 2-bromo- (8CI)",351.54999999999984,le15,1
9435,Cc1cc(C)c(Br)c(C)c1,"2-bromo-1,3,5-trimethylbenzene",369.25,le15,1
9436,CC(C)c1ccc(Br)cc1,1-bromo-4-propan-2-ylbenzene,360.45,le15,1
9437,CC(CBr)c1ccccc1,1-bromopropan-2-ylbenzene,359.04999999999984,le15,1
9438,Cc1cc(C)c(Br)cc1C,"1-bromo-2,4,5-trimethylbenzene",386.15,le15,1
9439,BrCCCc1ccccc1,3-bromopropylbenzene,374.85,le15,1
9440,Nc1cc([N+](=O)[O-])cc([N+](=O)[O-])c1O,"Phenol, 2-amino-4,6-dinitro-",460.65,le15,1
9441,O=[N+]([O-])c1ccccc1-c1ccccc1,"1,1'-Biphenyl, 2-nitro- (9CI)",452.15,le15,1
9442,O=[N+]([O-])c1ccc(-c2ccccc2)cc1,"1,1'-Biphenyl, 4-nitro-",316.15,le15,1
9443,O=[N+]([O-])c1ccc2c3c(cccc13)CC2,"Acenaphthylene, 1,2-dihydro-5-nitro-",464.95,le15,1
9444,O=[N+]([O-])c1cccc(-c2ccccc2)c1,"1,1'-Biphenyl, 3-nitro- (9CI)",434.55,le15,1
9445,COc1c2ccccc2nc2occc12,"Furo(2,3-b)quinoline, 4-methoxy-",434.537,le15,1
9446,O=[N+]([O-])c1ccc2cccc3c2c1CC3,"Acenaphthylene, 1,2-dihydro-3-nitro- (9CI)",473.45,le15,1
9447,Nc1cccc(OCc2ccccc2)c1,"Benzenamine, 3-(phenylmethoxy)-",457.55,le15,1
9448,c1ccc2c(c1)Nc1ccccc1S2,10H-Phenothiazine,451.35,le15,1
9449,CCN(CC)c1cccc2ccccc12,"N,N-diethylnaphthalen-1-amine",394.25,le15,1
9450,CCCCCCCCCCCCCN,1-Tridecanamine,383.75,le15,1
9451,O=c1oc2cc(Cl)ccc2n1CO,"2(3H)-Benzoxazolone, 6-chloro-3-(hydroxymethyl)-",436.65,le15,1
9452,CC(=O)c1ccc(Cl)c([N+](=O)[O-])c1,4'-Chloro-3'-nitroacetophenone,401.15,le15,1
9453,CC=C(Br)Br,"1,1-dibromoprop-1-ene",283.0499999999999,le15,1
9454,C=C(Br)CBr,"Propene, 2,3-dibromo- (8CI)",354.15,le15,1
9455,O=[N+]([O-])C(Br)(CO)CO,"1,3-Propanediol, 2-bromo-2-nitro-",443.45,le15,1
9456,O=CNc1ccc(Br)cc1,"Formamide, N-(4-bromophenyl)- (9CI)",429.15,le15,1
9457,OCC(F)(F)C(F)(F)C(F)(F)F,"1-Butanol, 2,2,3,3,4,4,4-heptafluoro-",298.15,le15,1
9458,FCOC(C(F)(F)F)C(F)(F)F,"Ether, fluoromethyl 2,2,2-trifluoro-1-(trifluoromethyl)ethyl-",331.15,le15,1
9459,CN(C)c1ccc(Br)cc1,"4-bromo-N,N-dimethylaniline",377.85,le15,1
9460,N#Cc1c(F)c(F)c(C#N)c(F)c1F,"Terephthalonitrile, tetrafluoro- (8CI)",374.05,le15,1
9461,Fc1c(F)c(F)c(S)c(F)c1F,"2,3,4,5,6-pentafluorobenzenethiol",324.85,le15,1
9462,C=C(C)C(=O)OCC(F)(F)C(F)F,"2,2,3,3-tetrafluoropropyl 2-methylprop-2-enoate",323.75,le15,1
9463,Cc1ccc2nc(C(F)(F)F)[nH]c2c1,"Benzimidazole, 5-methyl-2-(trifluoromethyl)-",397.55,le15,1
9464,Oc1ccc(OCc2ccccc2)cc1,"Phenol, 4-(phenylmethoxy)-",486.55,le15,1
9465,Oc1ccc(Cc2ccc(O)cc2)cc1,"Phenol, 4,4'-methylenedi- (8CI)",466.05,le15,1
9466,COc1ccccc1Oc1ccccc1,o-Methoxyphenyl phenylether,385.15,le15,1
9467,c1ccc2c(OCC3CO3)cccc2c1,"Naphthalene, 1-(2,3-epoxypropoxy)-",425.15,le15,1
9468,Oc1ccc(Cc2ccccc2O)cc1,"Phenol, 2,4'-methylenedi- (8CI)",458.05,le15,1
9469,CCOC(=O)c1ccc2ccccc2c1,ethyl naphthalene-2-carboxylate,421.85,le15,1
9470,c1ccc2cc(OCC3CO3)ccc2c1,"Oxirane, ((2-naphthalenyloxy)methyl)- (9CI)",425.15,le15,1
9471,CCOC(=O)c1cccc2ccccc12,ethyl naphthalene-1-carboxylate,421.85,le15,1
9472,COC(=O)C1CCC(C(=O)OC)CC1,"dimethyl cyclohexane-1,4-dicarboxylate",367.15,le15,1
9473,CC=CC(C(=O)OCC)C(=O)OCC,"Propanedioic acid, 2-propenyl-, diethyl ester",365.15,le15,1
9474,CCCOC(=O)/C=C/C(=O)OCCC,dipropyl (E)-but-2-enedioate,392.75,le15,1
9475,CCOC(=O)C1(C(=O)OCC)CCC1,"diethyl cyclobutane-1,1-dicarboxylate",362.15,le15,1
9476,CCOC(=O)C(C(=O)OCC)=C(C)C,"Propanedioic acid, (1-methylethylidene)-, diethyl ester",382.55,le15,1
9477,c1ccc2c(c1)OSc1ccccc1-2,Dibenzooxathiane,415.85,le15,1
9478,O=S1c2ccccc2-c2ccccc21,"Dibenzothiophene, 5-oxide (8CI)(9CI)",469.35,le15,1
9479,CCOS(=O)(=O)c1ccc(C)cc1,"Benzenesulfonic acid, 4-methyl-, ethyl ester",430.15,le15,1
9480,CCN1C(=O)CC(=O)N(CC)C1=S,"Barbituric acid, 1,3-diethyl-2-thio- (8CI)",392.35,le15,1
9481,CN1CCC(c2c[nH]c3ccccc23)C1,"1H-Indole, 3-(1-methyl-3-pyrrolidinyl)- (9CI)",445.65,le15,1
9482,C1CN(CCN2CCOCC2)CCO1,4-(2-morpholin-4-ylethyl)morpholine,352.75,le15,1
9483,CCCCCCCCCC(=O)OCC,"Decanoic acid, ethyl ester",375.15,le15,1
9484,CCCCCCCCOC(=O)CCC,octyl butanoate,376.45,le15,1
9485,CCCCCCCCCCOC(C)=O,"Acetic acid, decyl ester",374.45,le15,1
9486,CCCCCCCCCCC(=O)OC,"Undecanoic acid, methyl ester",382.55,le15,1
9487,CCCCCCCOC(=O)CCCC,heptyl pentanoate,372.15,le15,1
9488,CCCCCCOC(=O)CCCCC,hexyl hexanoate,372.55,le15,1
9489,CCCCCCC(=O)OCCCCC,pentyl heptanoate,372.15,le15,1
9490,CCCCCCCCOC(=O)C(C)C,"Isobutyric acid, octyl ester (6CI,7CI,8CI)",367.15,le15,1
9491,CCCCCCCC(=O)OCCCC,butyl octanoate,372.15,le15,1
9492,NCCCN1CCN(CCCN)CC1,"N,N'-Bis(3-aminopropyl)piperazine",436.15,le15,1
9493,O=[N+]([O-])OCC(CCl)O[N+](=O)[O-],(1-chloro-3-nitrooxypropan-2-yl) nitrate,378.75,le15,1
9494,CC(Oc1cccc(Cl)c1)C(=O)O,"Propanoic acid, 2-(3-chlorophenoxy)-",419.55,le15,1
9495,Cc1cc(Cl)ccc1OCC(=O)O,"Acetic acid, (4-chloro-2-methylphenoxy)-",424.75,le15,1
9496,Cc1cc(OCCO)cc(C)c1Cl,"Ethanol, 2-(4-chloro-3,5-dimethylphenoxy)- (9CI)",421.95,le15,1
9497,O=Cc1ccc(O)c(Br)c1,"Benzaldehyde, 3-bromo-4-hydroxy-",384.95,le15,1
9498,O=C(O)c1cccc(Br)c1,3-bromobenzoic acid,413.35,le15,1
9499,O=Cc1cc(Br)ccc1O,"Benzaldehyde, 5-bromo-2-hydroxy-",376.55,le15,1
9500,CCOc1ccc(Br)cc1,1-bromo-4-ethoxybenzene,375.95,le15,1
9501,Cc1cc(Br)cc(C)c1O,"Phenol, 4-bromo-2,6-dimethyl-",379.95,le15,1
9502,Nc1cc(F)c([N+](=O)[O-])cc1[N+](=O)[O-],"Benzenamine, 5-fluoro-2,4-dinitro-",483.95,le15,1
9503,Nc1n[nH]c2ccc(C(F)(F)F)cc12,"1H-Indazol-3-amine, 5-(trifluoromethyl)- (9CI)",443.75,le15,1
9504,Nc1ccc2nc(C(F)(F)F)[nH]c2c1,"Benzimidazole, 5-amino-2-(trifluoromethyl)-",440.45,le15,1
9505,CNC(=O)Oc1cccc2ccccc12,"Carbamic acid, methyl-, 1-naphthyl ester",426.15,le15,1
9506,CC(=O)N(O)c1ccc2ccccc2c1,"Acetamide, N-hydroxy-N-2-naphthalenyl- (9CI)",456.95,le15,1
9507,Cc1c(O)nc(N)nc1-c1ccccc1,"4-Pyrimidinol, 2-amino-5-methyl-6-phenyl-",455.35,le15,1
9508,c1ccc2[nH]c(-c3cscn3)nc2c1,"1H-Benzimidazole, 2-(4-thiazolyl)-",499.35,le15,1
9509,C=C(C)c1cccc(C(C)(C)N=C=O)c1,"Benzene, 1-(1-isocyanato-1-methylethyl)-3-(1-methylethenyl)-",406.45,le15,1
9510,C=C(C)c1ccc(C(C)(C)N=C=O)cc1,"Isocyanic acid, p-isopropenyl-alpha,alpha-dimethylbenzyl ester",357.15,le15,1
9511,NCCCCCCCCCCC(=O)O,"Undecanoic acid, 11-amino-",429.45,le15,1
9512,CCO[Si](C)(CCCC#N)OCC,"Silane, (3-cyanopropyl)diethoxy(methyl)-",377.25,le15,1
9513,O=C(O)c1ccc(Cl)c([N+](=O)[O-])c1,"Benzoic acid, 4-chloro-3-nitro-",451.65,le15,1
9514,CCNc1nc(Cl)nc(NCC)n1,"1,3,5-Triazine-2,4-diamine, 6-chloro-N,N'-diethyl-",448.15,le15,1
9515,CNc1nc(Cl)nc(NC(C)C)n1,"1,3,5-Triazine-2,4-diamine, 6-chloro-N-methyl-N'-(1-methylethyl)-",443.25,le15,1
9516,S=c1[nH]c2cc(Cl)ccc2s1,"2(3H)-Benzothiazolethione, 5-chloro- (9CI)",428.45,le15,1
9517,O=C(Br)CBr,2-bromoacetyl bromide,345.15,le15,1
9518,CC(C)(Br)Br,"2,2-dibromopropane",274.85,le15,1
9519,CC(Br)CBr,"Propane, 1,2-dibromo-",308.15,le15,1
9520,BrCCCBr,"Propane, 1,3-dibromo-",327.5499999999999,le15,1
9521,O=[N+]([O-])c1ccccc1Br,"Benzene, 1-bromo-2-nitro-",360.95,le15,1
9522,O=[N+]([O-])c1cccc(Br)c1,"Benzene, 1-bromo-3-nitro-",376.75,le15,1
9523,O=[N+]([O-])c1ccc(Br)cc1,"Benzene, 1-bromo-4-nitro-",528.15,le15,1
9524,N#CC(F)(F)C(F)(F)C(F)(F)C#N,"Pentanedinitrile, hexafluoro- (9CI)",293.75,le15,1
9525,C=CCOP(OCC=C)OCC=C,"Phosphorous acid, tri-2-propenyl ester",359.85,le15,1
9526,Oc1ccc(Oc2ccc(O)cc2)cc1,"Phenol, 4,4'-oxybis-",456.35,le15,1
9527,O=C(O)COc1ccc2ccccc2c1,"Acetic acid, (2-naphthalenyloxy)-",428.95,le15,1
9528,COC(=O)c1cc2ccccc2cc1O,methyl 3-hydroxynaphthalene-2-carboxylate,415.65,le15,1
9529,CCOC(=O)CC(=O)CC(=O)OCC,diethyl 3-oxopentanedioate,359.25,le15,1
9530,CCOC(=O)C(C(C)=O)C(=O)OCC,diethyl 2-acetylpropanedioate,372.15,le15,1
9531,c1cc2ccc3cccc4ccc(c1)c2c34,Pyrene,441.95,le15,1
9532,C1=Cc2cc3ccccc3c3cccc1c23,Acephenanthrylene,461.75,le15,1
9533,C1=Cc2c3ccccc3cc3cccc1c23,Aceanthrylene,461.75,le15,1
9534,c1ccc2c(c1)-c1cccc3cccc-2c13,Fluoranthene,282.0499999999999,le15,1
9535,O=C(O)CCCCCCCCC(=O)O,Decanedioic acid,471.45,le15,1
9536,CCOC(=O)C(C(=O)OCC)C(C)C,diethyl 2-propan-2-ylpropanedioate,369.45,le15,1
9537,CCCOC(=O)CCC(=O)OCCC,"Butanedioic acid, dipropyl ester",384.55,le15,1
9538,COC(=O)CCCCCCC(=O)OC,"Octanedioic acid, dimethyl ester",384.55,le15,1
9539,CCCCOC(=O)C(=O)OCCCC,dibutyl oxalate,381.15,le15,1
9540,C(CCOCC1CO1)COCC1CO1,"Oxirane, 2,2'-(1,4-butanediylbis(oxymethylene))bis-",395.25,le15,1
9541,CCCC(=O)OCCOC(=O)CCC,2-butanoyloxyethyl butanoate,389.85,le15,1
9542,CCOC(=O)CCCCC(=O)OCC,"Hexanedioic acid, diethyl ester",384.55,le15,1
9543,CCCC(C(=O)OCC)C(=O)OCC,Diethyl propylmalonate,364.15,le15,1
9544,CC1(COCCOCC2(C)CO2)CO1,"Oxirane, 2,2'-(1,2-ethanediylbis(oxymethylene))bis(2-methyl- (9CI)",378.85,le15,1
9545,O=S(c1ccccc1)c1ccccc1,Phenyl sulfoxide (8CI),443.25,le15,1
9546,NC(=S)Nc1cccc2ccccc12,"Urea, 1-(1-naphthyl)-2-thio-",455.25,le15,1
9547,CC(C)CCOC(=O)OCCC(C)C,bis(3-methylbutyl) carbonate,361.35,le15,1
9548,CCCCP(CCCC)CCCC,"Phosphine, tributyl-",385.35,le15,1
9549,CC(C)(C)c1ccc2c(c1)C(C)(C)CC2,"1H-Indene, 2,3-dihydro-1,1-dimethyl-6-(1,1-dimethylethyl)-",367.25,le15,1
9550,CCCCCCSCCCCCC,1-hexylsulfanylhexane,386.15,le15,1
9551,Fc1c(F)c(F)c(Cl)c(F)c1F,"Benzene, chloropentafluoro-",302.65,le15,1
9552,N#CCCC[Si](Cl)(Cl)Cl,"Butanenitrile, 4-(trichlorosilyl)-",365.25,le15,1
9553,O=[N+]([O-])c1ccc(Cl)c([N+](=O)[O-])c1,"Benzene, 1-chloro-2,4-dinitro-",459.15,le15,1
9554,O=[N+]([O-])c1cccc([N+](=O)[O-])c1Cl,"2-chloro-1,3-dinitrobenzene",415.55,le15,1
9555,Clc1ccc(Cc2ccccc2)cc1,1-benzyl-4-chlorobenzene,395.15,le15,1
9556,O=C(Cl)c1ccccc1C(=O)Cl,Phthaloyl chloride (8CI),408.55,le15,1
9557,O=C(Cl)c1cccc(C(=O)Cl)c1,"1,3-Benzenedicarbonyl dichloride",453.15,le15,1
9558,O=C(Cl)c1ccc(C(=O)Cl)cc1,"1,4-Benzenedicarbonyl dichloride",416.25,le15,1
9559,O=CC=CC=Cc1ccc([N+](=O)[O-])cc1,"2,4-Pentadienal, 5-(4-nitrophenyl)-",448.35,le15,1
9560,O=C1c2ccccc2C(=O)N1CC1CO1,"1H-Isoindole-1,3(2H)-dione, 2-(oxiranylmethyl)-",437.05,le15,1
9561,C[Si](C)(Cl)O[Si](C)(C)Cl,chloro-[chloro(dimethyl)silyl]oxy-dimethylsilane,306.15,le15,1
9562,c1cc2ccc3cncc4ccc(c1)c2c34,"Naphth(2,1,8-def)isoquinoline",456.35,le15,1
9563,c1cc2ccc3ccnc4ccc(c1)c2c34,"Naphtho(2,1,8-def)quinoline",446.15,le15,1
9564,O=C(O)CCCc1c[nH]c2ccccc12,4-(Indol-3-yl)butyric acid,484.95,le15,1
9565,CC(=NO)C(C)(O)C#Cc1ccccc1,"4-Pentyn-2-one, 3-hydroxy-3-methyl-5-phenyl-, oxime",502.35,le15,1
9566,CCCC1OCC(CC)([N+](=O)[O-])CO1,"1,3-Dioxane, 5-ethyl-5-nitro-2-propyl- (9CI)",389.75,le15,1
9567,CC=CC(=O)N(CC)c1ccccc1C,"2-Butenamide, N-ethyl-N-(2-methylphenyl)-",388.65,le15,1
9568,CCCCN(CC)C(=O)SCCC,"Carbamothioic acid, butylethyl-, S-propyl ester (9CI)",391.95,le15,1
9569,CCCSC(=O)N(CCC)CCC,"Carbamothioic acid, dipropyl-, S-propyl ester (9CI)",391.95,le15,1
9570,O=[N+]([O-])c1cnc(Cl)c([N+](=O)[O-])c1,"Pyridine, 2-chloro-3,5-dinitro-",421.05,le15,1
9571,Clc1cccc(Nc2ccccc2)c1,3-chloro-N-phenylaniline,420.55,le15,1
9572,Nc1ccc(-c2ccc(Cl)cc2)cc1,4'-Chlorobiphenyl-4-ylamine,431.05,le15,1
9573,Clc1ccc(Nc2ccccc2)cc1,4-chloro-N-phenylaniline,422.85,le15,1
9574,FC(F)(Cl)C(Cl)(Cl)Cl,"Ethane, 1,1,1,2-tetrachloro-2,2-difluoro-",284.95,le15,1
9575,CC(=O)Nc1cc(Cl)ccc1Cl,"Acetamide, N-(2,5-dichlorophenyl)-",436.35,le15,1
9576,O=[N+]([O-])c1cc([N+](=O)[O-])c(F)cc1F,"Benzene, 1,5-difluoro-2,4-dinitro-",412.55,le15,1
9577,Fc1ccc2nc(C(F)(F)F)[nH]c2c1,"Benzimidazole, 5-fluoro-2-(trifluoromethyl)-",388.85,le15,1
9578,O=c1c2cccc3ccc4cccc1c4c32,4H-Cyclopenta(def)phenanthren-4-one,459.05,le15,1
9579,CN(C)C1=NC(=O)C(c2ccccc2)O1,"2-Oxazolin-4-one, 2-(dimethylamino)-5-phenyl-",405.25,le15,1
9580,C1CN1c1nc(N2CC2)nc(N2CC2)n1,"1,3,5-Triazine, 2,4,6-tris(1-aziridinyl)-",487.15,le15,1
9581,c1ccc(-c2cccc3ccccc23)cc1,"Naphthalene, 1-phenyl- (8CI)(9CI)",421.35,le15,1
9582,CCCCOC(=O)C=Cc1ccccc1,"2-Propenoic acid, 3-phenyl-, butyl ester",363.15,le15,1
9583,O=C(OC1CCCCC1)c1ccccc1,cyclohexyl benzoate,405.85,le15,1
9584,O=CC12CC=CCC1C1CC=CCC1O2,"4a(4H)-Dibenzofurancarboxaldehyde, 1,5a,6,9,9a,9b-hexahydro-",409.35,le15,1
9585,CCCCOCCOCCOC(C)=O,"Ethanol, 2-(2-butoxyethoxy)-, acetate",378.15,le15,1
9586,CC(C)(CO)COC(=O)C(C)(C)CO,"(3-hydroxy-2,2-dimethylpropyl) 3-hydroxy-2,2-dimethylpropanoate",376.35,le15,1
9587,CC(C=O)Cc1ccc(C(C)(C)C)cc1,"Benzenepropanal, 4-(1,1-dimethylethyl)-alpha-methyl-",381.15,le15,1
9588,CCCCCCCC(=O)c1ccccc1,"1-Octanone, 1-phenyl-",389.85,le15,1
9589,CCCCCC(=Cc1ccccc1)CO,"1-Heptanol, 2-(phenylmethylene)-",407.25,le15,1
9590,CCCC(=O)C(CC)Cc1ccccc1,"4-Heptanone, 3-(phenylmethyl)-",381.05,le15,1
9591,NCCCOCCCCOCCCN,"1-Propanamine, 3,3'-(1,4-butanediylbis(oxy))bis-",411.75,le15,1
9592,CN(C)CCOCCOCCN(C)C,"Ethanamine, 2,2'-(1,2-ethanediylbis(oxy))bis(N,N-dimethyl-",337.45,le15,1
9593,CCCCC(CC)COC(=O)CS,"Acetic acid, mercapto-, 2-ethylhexyl ester",410.55,le15,1
9594,CC(C)c1cc(C(C)C)cc(C(C)C)c1,"1,3,5-tri(propan-2-yl)benzene",359.85,le15,1
9595,CC(C)c1ccc(C(C)C)c(C(C)C)c1,"1,2,4-tri(propan-2-yl)benzene",369.55,le15,1
9596,ClCCCI,1-chloro-3-iodopropane,327.85,le15,1
9597,CN(C)[Si](N(C)C)(N(C)C)N(C)C,"Silanetetramine, octamethyl-",348.45,le15,1
9598,ClCCN(CCCl)CCCl,"Ethanamine, 2-chloro-N,N-bis(2-chloroethyl)-",321.45,le15,1
9599,Clc1ccc(Oc2ccccc2)cc1,1-chloro-4-phenoxybenzene,386.15,le15,1
9600,CCCCCCCCCCCCCl,"Dodecane, 1-chloro-",377.65,le15,1
9601,COC(=O)c1cc(Cl)ccc1Cl,"Benzoic acid, 2,5-dichloro-, methyl ester",386.35,le15,1
9602,NC(=O)Nc1ccc(Cl)c(Cl)c1,"Urea, (3,4-dichlorophenyl)-",409.65,le15,1
9603,O=C(O)c1cc(O)c2cccc(O)c2n1,"2-Quinolinecarboxylic acid, 4,8-dihydroxy- (9CI)",478.95,le15,1
9604,C#CCOc1cccc(OC(=O)NC)c1,"Carbamic acid, methyl-, m-(2-propynyloxy)phenyl ester",418.75,le15,1
9605,CC(=O)CC(=O)Nc1ccc(C)cc1C,"Butanamide, N-(2,4-dimethylphenyl)-3-oxo-",444.15,le15,1
9606,c1ccc(N(CC2CO2)CC2CO2)cc1,"Oxiranemethanamine, N-(oxiranylmethyl)-N-phenyl-",413.25,le15,1
9607,N=C(N)NC(=N)NCCc1ccccc1,"Imidodicarbonimidic diamide, N-(2-phenylethyl)-",477.15,le15,1
9608,CC(C)(C)c1cc(N)cc(C(C)(C)C)c1,"3,5-Di-tert-butylaniline",388.75,le15,1
9609,CCCCCCCCc1ccc(N)cc1,4-Octylaniline,409.35,le15,1
9610,NC(=O)CCCCC1CCSS1,"1,2-Dithiolane-3-pentanamide (9CI)",468.35,le15,1
9611,CCOC(OCC)[SiH2]CCCCN,"1-Butanamine, 4-(diethoxymethylsilyl)-",366.55,le15,1
9612,CC(C)OC(=O)C(Cl)(Cl)Cl,"Acetic acid, trichloro-, isopropyl ester (6CI,7CI,8CI)",336.25,le15,1
9613,CC1COC(C(Cl)(Cl)Cl)O1,"1,3-Dioxolane, 4-methyl-2-(trichloromethyl)-",351.85,le15,1
9614,ClCc1ccc(Br)cc1,1-Bromo-4-(chloromethyl)benzene,384.85,le15,1
9615,CCCCC[Si](Cl)(Cl)Cl,"Silane, pentyltrichloro-",340.25,le15,1
9616,Nc1cc(Cl)cc(C(=O)O)c1Cl,"Benzoic acid, 3-amino-2,5-dichloro-",452.65,le15,1
9617,Nc1c(Cl)cc(Cl)cc1C(=O)O,"Benzoic acid, 2-amino-3,5-dichloro- (9CI)",435.25,le15,1
9618,NC(=S)c1c(Cl)cccc1Cl,"Benzenecarbothioamide, 2,6-dichloro- (9CI)",420.85,le15,1
9619,CN1C(=O)c2ccc([N+](=O)[O-])cc2C1=O,"1H-Isoindole-1,3(2H)-dione, 2-methyl-5-nitro-",445.35,le15,1
9620,Fc1ccc(Oc2ccc(F)cc2)cc1,"Benzene, 1,1'-oxybis(4-fluoro- (9CI)",384.05,le15,1
9621,COc1cc2ccc(=O)oc2cc1OC,"Benzopyran-2-one, 6,7-dimethoxy- (9CI)",439.95,le15,1
9622,CCOC(=O)C(O)C(O)C(=O)OCC,"Tartaric acid, diethyl ester (8CI)",366.15,le15,1
9623,CC(C)OC(=O)OOC(=O)OC(C)C,"Peroxydicarbonic acid, bis(1-methylethyl) ester",352.25,le15,1
9624,O=Cc1cc2ccccc2c2ccccc12,Phenanthrene-9-carbaldehyde,542.3499999999998,le15,1
9625,CC=Cc1ccc(OC(C)=O)c(OC)c1,"Phenol, 2-methoxy-4-(1-propenyl)-, acetate",387.05,le15,1
9626,C=CCc1ccc(OC(C)=O)c(OC)c1,"Phenol, 2-methoxy-4-(2-propenyl)-, acetate",383.15,le15,1
9627,COCCOCCOCCOC(C)=O,"Acetic acid, 2-(2-(2-methoxyethoxy)ethoxy)ethyl ester",378.95,le15,1
9628,CC(=O)O.CC(=O)O.OCCSCCO,"Ethanol, 2,2'-thiobis-, diacetate",400.35,le15,1
9629,C(/C=C/c1ccccc1)=C\c1ccccc1,"[(1E,3E)-4-phenylbuta-1,3-dienyl]benzene",463.15,le15,1
9630,Cc1ccc2ccc3ccc(C)cc3c2c1,"Phenanthrene, 3,6-dimethyl- (8CI)(9CI)",441.55,le15,1
9631,CCc1cc2ccccc2c2ccccc12,"Phenanthrene, 9-ethyl- (8CI)(9CI)",438.25,le15,1
9632,CC(=O)OC(C)(C)CCc1ccccc1,"Acetic acid, (1,1-dimethyl-3-phenylpropyl) ester",383.85,le15,1
9633,CC(C)CC(=O)OCCc1ccccc1,"Butanoic acid, 3-methyl-, 2-phenylethyl ester",381.15,le15,1
9634,CCCCOCCOCCOCCO,"Ethanol, 2-(2-(2-butoxyethoxy)ethoxy)-",401.05,le15,1
9635,COCC(C)OCC(C)OCC(C)O,"2-Propanol, 1-(2-(2-methoxy-1-methylethoxy)-1-methylethoxy)-",390.75,le15,1
9636,CN1CN(CC(=O)O)CSC1=S,"2H-1,3,5-Thiadiazine-3(4H)-acetic acid, dihydro-5-methyl-6-thioxo-",445.85,le15,1
9637,CC(C)(C)c1ccc(O)c(C(C)(C)C)c1,"Phenol, 2,4-bis(1,1-dimethylethyl)-",388.15,le15,1
9638,CC(C)(C)CC(C)(C)c1ccc(O)cc1,"Phenol, 4-(1,1,3,3-tetramethylbutyl)-",421.45,le15,1
9639,CCCCCCCCc1ccccc1O,"Phenol, 2-octyl- (9CI)",438.65,le15,1
9640,CC(C)(C)c1cc(O)cc(C(C)(C)C)c1,"Phenol, 3,5-di-tert-butyl- (8CI)",400.35,le15,1
9641,CCCCCCCCOc1ccccc1,octoxybenzene,382.15,le15,1
9642,CC(C)(C)c1cccc(C(C)(C)C)c1O,"Phenol, 2,6-bis(1,1-dimethylethyl)-",391.15,le15,1
9643,CCCCCCCCc1ccc(O)cc1,"Phenol, 4-octyl-",383.15,le15,1
9644,CC(C)CCSSCCC(C)C,3-methyl-1-(3-methylbutyldisulfanyl)butane,354.35,le15,1
9645,OCCCl.OCCCl.OP(O)O,"Ethanol, 2-chloro-, phosphite (2:1)",415.35,le15,1
9646,O=C(O)c1c(Cl)ccc(Cl)c1O,"Benzoic acid, 3,6-dichloro-2-hydroxy-",412.45,le15,1
9647,Nc1c(Cl)cc([N+](=O)[O-])cc1Cl,"Benzenamine, 2,6-dichloro-4-nitro-",422.25,le15,1
9648,Nc1cc(Cl)c(Cl)cc1[N+](=O)[O-],"4,5-Dichloro-2-nitroaniline",436.85,le15,1
9649,COc1cc(Cl)c(OC)cc1Cl,"Benzene, 1,4-dichloro-2,5-dimethoxy-",378.85,le15,1
9650,Brc1ccc2ccccc2c1,2-bromonaphthalene,400.95,le15,1
9651,O=c1[nH][nH]c(=O)c2cc([N+](=O)[O-])ccc12,"1,4-Phthalazinedione, 2,3-dihydro-6-nitro-",606.05,le15,1
9652,CCCCCCCCCBr,1-bromononane,363.15,le15,1
9653,COc1ccccc1NC(=O)CC(C)=O,"Butanamide, N-(2-methoxyphenyl)-3-oxo-",430.15,le15,1
9654,COc1ccc(NC(=O)CC(C)=O)cc1,"Butanamide, N-(4-methoxyphenyl)-3-oxo-",474.85,le15,1
9655,CCCCN1C(=O)C2CC=CCC2C1=O,"1H-Isoindole-1,3(2H)-dione, 2-butyl-3a,4,7,7a-tetrahydro- (9CI)",421.95,le15,1
9656,CNC(=O)Oc1cc(C)cc(C(C)C)c1,"Phenol, 3-methyl-5-(1-methylethyl)-, methylcarbamate (9CI)",397.45,le15,1
9657,CNC(=O)Oc1cc(C(C)C)ccc1C,"Carbamic acid, methyl-, carvacryl ester",397.35,le15,1
9658,CCC(C)c1ccccc1OC(=O)NC,"Carbamic acid, methyl-, o-sec-butylphenyl ester",397.85,le15,1
9659,CC(C)c1cccc(OC(=O)N(C)C)c1,"Carbamic acid, N,N-dimethyl-, m-isopropylphenyl ester",395.55,le15,1
9660,ClC=C[As](Cl)Cl,"Arsonous dichloride, (2-chloroethenyl)-",357.54999999999984,le15,1
9661,O=C1C=CC(=O)N1c1ccc(Cl)cc1,"1H-Pyrrole-2,5-dione, 1-(4-chlorophenyl)- (9CI)",439.05,le15,1
9662,NC1=C(Cl)C(=O)c2ccccc2C1=O,"1,4-Naphthalenedione, 2-amino-3-chloro- (9CI)",414.55,le15,1
9663,O=C1C=CC(=O)N1c1ccccc1Cl,"1H-Pyrrole-2,5-dione, 1-(2-chlorophenyl)-",426.25,le15,1
9664,O=[N+]([O-])c1cc(Cl)c(O)c(Cl)c1,"Phenol, 2,6-dichloro-4-nitro-",399.45,le15,1
9665,O=[N+]([O-])c1cc(Cl)cc(Cl)c1O,"Phenol, 2,4-dichloro-6-nitro-",373.75,le15,1
9666,Brc1cnc2ccccc2c1,3-bromoquinoline,393.75,le15,1
9667,Brc1ccc2ncccc2c1,6-bromoquinoline,405.95,le15,1
9668,Brc1ccc2cccnc2c1,7-Bromoquinoline,405.95,le15,1
9669,O=C(CC(=O)C(F)(F)F)C(F)(F)F,"1,1,1,5,5,5-hexafluoropentane-2,4-dione",295.95,le15,1
9670,O=C1C(=O)c2ccccc2-c2ccccc21,"9,10-Phenanthrenequinone",518.15,le15,1
9671,CC(=O)OC(OC(C)=O)c1ccccc1,[acetyloxy(phenyl)methyl] acetate,378.85,le15,1
9672,CC(C)OP(OC(C)C)OC(C)C,"Phosphorous acid, tris(1-methylethyl) ester",335.15,le15,1
9673,CCCOP(OCCC)OCCC,tripropyl phosphite,363.15,le15,1
9674,OCc1c2ccccc2cc2ccccc12,9-(Hydroxymethyl)anthracene,469.45,le15,1
9675,C#CC(O)(c1ccccc1)c1ccccc1,"2-Propyn-1-ol, 1,1-diphenyl- (8CI)",428.05,le15,1
9676,O=C1c2ccccc2CCc2ccccc21,"5H-Dibenzo(a,d)cyclohepten-5-one, 10,11-dihydro-",431.45,le15,1
9677,CC(C)CCOC(=O)c1ccccc1O,"Benzoic acid, 2-hydroxy-, 3-methylbutyl ester",383.05,le15,1
9678,CCCCCOC(=O)c1ccccc1O,pentyl 2-hydroxybenzoate,386.45,le15,1
9679,C/C=C/c1cc(OC)c(OC)cc1OC,"Benzene, 1,2,4-trimethoxy-5-(1-propenyl)-, (E)-",380.85,le15,1
9680,COc1ccc(C2OCOCC2C)cc1,"1,3-Dioxane, 4-(4-methoxyphenyl)-5-methyl- (9CI)",375.95,le15,1
9681,CCCC(=O)OCCOc1ccccc1,2-phenoxyethyl butanoate,385.45,le15,1