,smiles,compound,flashpoint,source,pure substance
8099,CC1=C(C)C(=O)C(C)=C(C)C1=O,"p-Benzoquinone, 2,3,5,6-tetramethyl- (8CI)",356.75,le15,1
8100,C=CCc1c(O)cccc1OC,3-methoxy-2-prop-2-enylphenol,377.05,le15,1
8101,CC(C)OC(=O)c1ccccc1,"Benzoic acid, 1-methylethyl ester",366.15,le15,1
8102,CC=Cc1cccc(OC)c1O,2-methoxy-6-prop-1-enylphenol,397.95,le15,1
8103,O=C(O)CCCc1ccccc1,4-phenylbutanoic acid,461.05,le15,1
8104,CC(=O)OCc1ccc(C)cc1,"Benzyl alcohol, p-methyl-, acetate (6CI,7CI,8CI)",371.15,le15,1
8105,CCCOC(=O)c1ccccc1,propyl benzoate,371.45,le15,1
8106,CC(C)(C)C1=CC(=O)C=CC1=O,"2,5-Cyclohexadiene-1,4-dione, 2-(1,1-dimethylethyl)- (9CI)",355.75,le15,1
8107,CCCC(=O)Oc1ccccc1,phenyl butanoate,363.45,le15,1
8108,CC(=O)CCc1ccc(O)cc1,"2-Butanone, 4-(4-hydroxyphenyl)-",396.05,le15,1
8109,CCCOc1ccc(C=O)cc1,"Benzaldehyde, 4-propoxy-",391.45,le15,1
8110,CC(C)(O)C(=O)c1ccccc1,"1-Propanone, 2-hydroxy-2-methyl-1-phenyl-",381.35,le15,1
8111,COC(=O)c1ccc(C)cc1C,"methyl 2,4-dimethylbenzoate",470.85,le15,1
8112,CCC(=O)c1cccc(OC)c1,"1-propanone, 1-(3-methoxyphenyl)-",372.05,le15,1
8113,CCC(C(=O)O)c1ccccc1,2-phenylbutanoic acid,443.35,le15,1
8114,CC=Cc1ccc(O)c(OC)c1,"Phenol, 2-methoxy-4-(1-propenyl)-",385.15,le15,1
8115,CC(=O)OCCc1ccccc1,"Acetic acid, 2-phenylethyl ester",374.85,le15,1
8116,CCC(=O)OCc1ccccc1,"Propionic acid, benzyl ester (6CI,7CI,8CI)",369.25,le15,1
8117,CC(=O)Oc1ccc(C)cc1C,"(2,4-dimethylphenyl) acetate",362.35,le15,1
8118,Cc1ccccc1OCC1CO1,"Oxirane, ((2-methylphenoxy)methyl)-",372.25,le15,1
8119,CC(=O)Oc1ccc(C)c(C)c1,"(3,4-dimethylphenyl) acetate",364.65,le15,1
8120,CN(C)C(=O)Nc1ccccc1,"Urea, N,N-dimethyl-N'-phenyl-",426.45,le15,1
8121,COC(CC(OC)OC)OC,"1,1,3,3-tetramethoxypropane",327.5499999999999,le15,1
8122,COCCOCCOCCO,"Ethanol, 2-(2-(2-methoxyethoxy)ethoxy)-",391.15,le15,1
8123,CC(C)(C#N)N=NC(C)(C)C#N,"2,2'-Dimethyl-2,2'-azodipropiononitrile",369.75,le15,1
8124,CNc1snc2ccccc12,"2,1-Benzisothiazole, 3-(methylamino)-",413.65,le15,1
8125,Cc1cccc2sc(N)nc12,"Benzothiazole, 2-amino-4-methyl-",421.75,le15,1
8126,CCC(C)(C)c1ccc(O)cc1,"Phenol, 4-(1,1-dimethylpropyl)-",384.15,le15,1
8127,Cc1cc(C(C)(C)C)ccc1O,4-tert-butyl-2-methylphenol,383.05,le15,1
8128,CC(C)(O)CCc1ccccc1,"1-Propanol, 1,1-dimethyl-3-phenyl- (8CI)",379.85,le15,1
8129,CCCCCc1ccccc1O,"Phenol, 2-pentyl-",399.45,le15,1
8130,CC/C=C\CC1=C(C)CCC1=O,"2-Cyclopenten-1-one, 3-methyl-2-(2-pentenyl)-, (Z)-",380.35,le15,1
8131,CCCCC(O)c1ccccc1,"Benzenemethanol, alpha-butyl-",383.85,le15,1
8132,CC(C)(C)c1ccc(CO)cc1,"Benzenemethanol, 4-(1,1-dimethylethyl)-",377.95,le15,1
8133,CCCCCOc1ccccc1,"Benzene, (pentyloxy)-",356.75,le15,1
8134,Cc1ccc(O)c(C(C)(C)C)c1,"Phenol, 2-(1,1-dimethylethyl)-4-methyl-",375.65,le15,1
8135,COc1ccc(C(C)(C)C)cc1,1-tert-butyl-4-methoxybenzene,361.35,le15,1
8136,CCCCc1ccc(C)cc1O,"Phenol, 2-butyl-5-methyl- (9CI)",388.95,le15,1
8137,CCCCCc1ccc(O)cc1,4-pentylphenol,406.15,le15,1
8138,CCCCOCc1ccccc1,butoxymethylbenzene,356.54999999999984,le15,1
8139,CCC(C)(O)Cc1ccccc1,"Phenethyl alcohol, alpha-ethyl-alpha-methyl-",371.75,le15,1
8140,CC(c1ccccc1)C(C)(C)O,2-methyl-3-phenylbutan-2-ol,353.15,le15,1
8141,CCCCOc1ccc(C)cc1,1-butoxy-4-methylbenzene,368.95,le15,1
8142,Cc1ccc(O)c(C(C)(C)C)c1,2tertbutyl4methylphenol,373.0,le15,1
8143,Cc1cccc(C(C)(C)C)c1O,2tertbutyl6methylphenol,380.0,le15,1
8144,CCN(CC)c1ccc(N)cc1,"1,4-Benzenediamine, N,N-diethyl-",412.15,le15,1
8145,Cc1c(C)c(N)c(C)c(C)c1N,"2,3,5,6-Tetramethyl-p-phenylenediamine",440.95,le15,1
8146,CC12CC3CC(C1)CC(C)(C3)C2,"1,3-dimethyladamantane",325.15,le15,1
8147,O=[N+]([O-])C(Cl)(Cl)Cl,"Methane, trichloronitro-",346.15,le15,1
8148,CCOC(=O)C(Cl)C(C)=O,"Acetoacetic acid, 2-chloro-, ethyl ester (8CI)",323.15,le15,1
8149,CCOC(=O)CC(=O)CCl,"Butanoic acid, 4-chloro-3-oxo-, ethyl ester",369.15,le15,1
8150,Clc1nncc2ccccc12,1-Chlorophthalazine,478.75,le15,1
8151,CC(=O)CC(=O)OCCCl,2-chloroethyl 3-oxobutanoate,376.55,le15,1
8152,O=C(O)CCCCCCCl,"Heptanoic acid, 7-chloro-",390.15,le15,1
8153,COC(F)(F)C(Cl)Cl,"Ethane, 2,2-dichloro-1,1-difluoro-1-methoxy-",336.15,le15,1
8154,COP(=S)(Cl)Cl,"Phosphorodichloridothioic acid, methyl ester",323.0499999999999,le15,1
8155,BrCC1CCCO1,2-(bromomethyl)oxolane,343.85,le15,1
8156,CC(C)CCCBr,1-bromo-4-methylpentane,313.25,le15,1
8157,CCCCC(C)Br,2-bromohexane,313.25,le15,1
8158,CCCC(Br)CC,3-Bromohexane,313.25,le15,1
8159,CCCC(C)(C)Br,2-bromo-2-methylpentane,306.25,le15,1
8160,CCCC(C)CBr,1-bromo-2-methylpentane,313.25,le15,1
8161,CCC(C)CCBr,1-bromo-3-methylpentane,313.25,le15,1
8162,CCC(C)(Br)CC,3-bromo-3-methylpentane,306.25,le15,1
8163,Nc1c(F)c(F)cc(F)c1F,"2,3,5,6-tetrafluoroaniline",335.15,le15,1
8164,CC(=O)c1ccc([N+](=O)[O-])cc1,"Ethanone, 1-(4-nitrophenyl)- (9CI)",349.85,le15,1
8165,CC(=O)c1cccc([N+](=O)[O-])c1,"Ethanone, 1-(3-nitrophenyl)-",373.05,le15,1
8166,C=COc1ccc([N+](=O)[O-])cc1,"Benzene, 1-(ethenyloxy)-4-nitro-",397.95,le15,1
8167,CC(=O)c1ccccc1[N+](=O)[O-],"Ethanone, 1-(2-nitrophenyl)-",410.95,le15,1
8168,Cn1cnc2c(NO)ncnc21,N-Hydroxy-9-methyladenine,481.65,le15,1
8169,CCOC(=O)c1ccccc1N,"Anthranilic acid, ethyl ester (6CI,7CI,8CI)",399.65,le15,1
8170,CCOC(=O)Nc1ccccc1,ethyl N-phenylcarbamate,352.35,le15,1
8171,CCOC(=O)c1cccc(N)c1,ethyl 3-aminobenzoate,384.55,le15,1
8172,CCOc1ccccc1C(N)=O,"Benzamide, 2-ethoxy-",426.85,le15,1
8173,CNC(=O)Oc1cccc(C)c1,"Carbamic acid, methyl-, 3-methylphenyl ester",373.05,le15,1
8174,CN(C)C(=O)c1ccccc1O,"Benzamide, 2-hydroxy-N,N-dimethyl- (9CI)",417.45,le15,1
8175,N[C@@H](Cc1ccccc1)C(=O)O,(2S)-2-amino-3-phenylpropanoic acid,412.95,le15,1
8176,Cc1cc(C)c([N+](=O)[O-])cc1C,"1,2,4-trimethyl-5-nitrobenzene",395.05,le15,1
8177,COc1ccc(N=C=S)cc1,1-isothiocyanato-4-methoxybenzene,392.65,le15,1
8178,CCN(CC)c1cccc(O)c1,"Phenol, 3-(diethylamino)-",412.25,le15,1
8179,CCN(CCO)c1ccccc1,"Ethanol, 2-(N-ethylanilino)- (8CI)",404.15,le15,1
8180,CN[C@@H](C)[C@H](O)c1ccccc1,"Benzenemethanol, alpha-((1S)-1-(methylamino)ethyl)-, (alphaR)-",358.15,le15,1
8181,CN[C@H](C)[C@@H](O)c1ccccc1,"(1S,2R)-2-(methylamino)-1-phenylpropan-1-ol",358.75,le15,1
8182,CC(C)(C)c1ccc(O)c(N)c1,2-Amino-4-tert-butylphenol,393.25,le15,1
8183,OCCNCCc1ccccc1,"Ethanol, 2-((2-phenylethyl)amino)- (9CI)",401.55,le15,1
8184,CCCCOc1ccc(N)cc1,"Benzenamine, 4-butoxy-",396.75,le15,1
8185,OC(O)C(Cl)(Cl)Cl,"1,1-Ethanediol, 2,2,2-trichloro-",330.45,le15,1
8186,ClC(Cl)=C(Cl)Cl,Tetrachloroethylene,318.0,le15,1
8187,O=C1NC(=O)C(Cl)=C1Cl,"1H-Pyrrole-2,5-dione, 3,4-dichloro-",367.75,le15,1
8188,Oc1c(F)c(F)cc(F)c1F,"2,3,5,6-tetrafluorophenol",352.54999999999984,le15,1
8189,O=C(O)c1cccc(C(=O)O)c1,"1,3-Benzenedicarboxylic acid",469.899,le15,1
8190,NC(=O)c1ccccc1[N+](=O)[O-],"Benzamide, 2-nitro- (9CI)",419.189,le15,1
8191,NC(=O)c1ccc([N+](=O)[O-])cc1,"Benzamide, 4-nitro-",449.45,le15,1
8192,O=[N+]([O-])c1ccc(C=NO)cc1,"Benzaldehyde, 4-nitro-, oxime (9CI)",410.95,le15,1
8193,O=C(O)/C(F)=C/c1ccccc1,(Z)-2-fluoro-3-phenylprop-2-enoic acid,401.85,le15,1
8194,CCOP(=O)(CC)OCC,"Phosphonic acid, ethyl-, diethyl ester",365.85,le15,1
8195,CCOP(OCC)OCC,"Phosphorous acid, triethyl ester",327.25,le15,1
8196,CC(C)O[PH](=O)OC(C)C,"Phosphonic acid, bis(1-methylethyl) ester",365.95,le15,1
8197,COc1ccc(OC)c(C=O)c1,"Benzaldehyde, 2,5-dimethoxy-",393.794,le15,1
8198,COc1ccc(CC(=O)O)cc1,"Benzeneacetic acid, 4-methoxy-",397.45,le15,1
8199,COc1ccc(C=O)cc1OC,"Benzaldehyde, 3,4-dimethoxy-",383.55,le15,1
8200,CCOC(=O)c1ccc(O)cc1,ethyl 4-hydroxybenzoate,393.45,le15,1
8201,CCOc1cc(C=O)ccc1O,"Benzaldehyde, 3-ethoxy-4-hydroxy-",392.15,le15,1
8202,COC(=O)c1ccc(OC)cc1,"Benzoic acid, 4-methoxy-, methyl ester",371.25,le15,1
8203,CCOc1cccc(C=O)c1O,"Salicylaldehyde, 3-ethoxy- (8CI)",371.05,le15,1
8204,COc1cc(C(C)=O)ccc1O,"Ethanone, 1-(4-hydroxy-3-methoxyphenyl)-",398.65,le15,1
8205,COc1ccc(C(C)=O)c(O)c1,"Ethanone, 1-(2-hydroxy-4-methoxyphenyl)- (9CI)",395.45,le15,1
8206,COc1ccc(C=O)c(OC)c1,"Benzaldehyde, 2,4-dimethoxy-",397.85,le15,1
8207,CC(Oc1ccccc1)C(=O)O,2-phenoxypropanoic acid,359.15,le15,1
8208,COC(C(=O)O)c1ccccc1,alpha-methoxy-alpha-phenylacetic acid,389.25,le15,1
8209,COC(=O)COc1ccccc1,"Acetic acid, phenoxy-, methyl ester",361.85,le15,1
8210,COC(=O)c1ccc(C)cc1O,methyl 2-hydroxy-4-methylbenzoate,370.95,le15,1
8211,COC(=O)c1cccc(OC)c1,methyl 3-methoxybenzoate,366.95,le15,1
8212,CC(=O)Oc1ccc(CO)cc1,"Benzenemethanol, 4-(acetyloxy)-",399.25,le15,1
8213,COC(=O)c1cc(C)ccc1O,methyl 2-hydroxy-5-methylbenzoate,371.65,le15,1
8214,COC(=O)c1cccc(C)c1O,"Benzoic acid, 2-hydroxy-3-methyl-, methyl ester",368.65,le15,1
8215,CCOC(=O)c1ccccc1O,"Benzoic acid, 2-hydroxy-, ethyl ester",380.15,le15,1
8216,O=C(O)CCOc1ccccc1,3-phenoxypropanoic acid,357.15,le15,1
8217,CN(C)c1cccc([N+](=O)[O-])c1,"N,N-dimethyl-3-nitroaniline",390.15,le15,1
8218,O=S1(=O)C=Cc2ccccc21,"Benzo(b)thiophene 1,1-dioxide",517.15,le15,1
8219,CC1(C)COS(=O)(=O)OC1,"1,3,2-Dioxathiane, 5,5-dimethyl-, 2,2-dioxide",368.15,le15,1
8220,CC(C)(C)c1ccc(O)c(O)c1,"1,2-Benzenediol, 4-(1,1-dimethylethyl)-",408.65,le15,1
8221,CCCCOc1ccc(O)cc1,"Phenol, p-butoxy- (8CI)",405.55,le15,1
8222,CCOc1ccc(OCC)cc1,"1,4-diethoxybenzene",361.35,le15,1
8223,CC(C)(C)c1cc(O)ccc1O,"1,4-Benzenediol, 2-(1,1-dimethylethyl)-",411.85,le15,1
8224,CCOc1cccc(OCC)c1,"1,3-diethoxybenzene",360.25,le15,1
8225,CCOc1ccccc1OCC,"1,2-diethoxybenzene",346.95,le15,1
8226,CCCc1ccc(O)c(OC)c1,"Phenol, 2-methoxy-4-propyl-",386.15,le15,1
8227,CC(C)CCC(=O)c1ccoc1,1-(furan-3-yl)-4-methylpentan-1-one,369.95,le15,1
8228,CN(C(N)=S)c1ccccc1,1-Methyl-1-phenylthiourea,388.45,le15,1
8229,CCc1cc(C(=N)S)ccn1,"Isonicotinimidic acid, 2-ethylthio-",406.35,le15,1
8230,CC1(C)C2CC=C(CCO)C1C2,"Bicyclo(3.1.1)hept-2-ene-2-ethanol, 6,6-dimethyl-",372.05,le15,1
8231,CCCCCC1=C(C)CCC1=O,"2-Cyclopenten-1-one, 3-methyl-2-pentyl-",383.15,le15,1
8232,NC1CCC2C3CCC(C3N)C12,"4,7-Methanoindan, hexahydro-1,8-diamino-",399.75,le15,1
8233,C[Si](C)(C)Oc1ccccc1,trimethyl(phenoxy)silane,315.90599999999995,le15,1
8234,C#CCCCCCCCCCC,dodec-1-yne,352.54999999999984,le15,1
8235,C=CCCCCCCCCC=C,"dodeca-1,11-diene",342.45,le15,1
8236,C1CCC(C2CCCCC2)CC1,cyclohexylcyclohexane,365.35,le15,1
8237,O=C(Cl)/C=C/c1ccccc1,(E)-3-phenylprop-2-enoyl chloride,385.65,le15,1
8238,Cc1nc2ccc(Cl)cc2[nH]1,"Benzimidazole, 5-chloro-2-methyl- (8CI)",485.35,le15,1
8239,N#CCI,2-iodoacetonitrile,359.25,le15,1
8240,CCC(Br)C(=O)O,"Butyric acid, 2-bromo- (8CI)",357.95,le15,1
8241,CC(=O)OCCBr,2-bromoethyl acetate,344.25,le15,1
8242,O=C(O)CCCBr,"Butanoic acid, 4-bromo-",384.45,le15,1
8243,COC(=O)CCBr,"Propionic acid, 3-bromo-, methyl ester (8CI)",348.15,le15,1
8244,CCOC(=O)CBr,"Acetic acid, 2-bromo-, ethyl ester",320.95,le15,1
8245,CC(C)(CO)CBr,"3-Bromo-2,2-dimethyl-1-propanol",348.75,le15,1
8246,O=C(O)c1ccc([N+](=O)[O-])cc1,"Benzoic acid, 4-nitro-",439.65,le15,1
8247,O=C(O)c1cccc([N+](=O)[O-])c1,"Benzoic acid, 3-nitro-",430.65,le15,1
8248,O=C(O)c1cccc(C(=O)O)n1,"2,6-Pyridinedicarboxylic acid",507.35,le15,1
8249,O=C(O)c1ccccc1[N+](=O)[O-],"Benzoic acid, 2-nitro-",430.65,le15,1
8250,O=Cc1ccc(O)c([N+](=O)[O-])c1,4-Hydroxy-3-nitrobenzaldehyde,397.45,le15,1
8251,O=Cc1cccc([N+](=O)[O-])c1O,"Benzaldehyde, 2-hydroxy-3-nitro-",372.35,le15,1
8252,O=Cc1cc([N+](=O)[O-])ccc1O,"Salicylaldehyde, 5-nitro- (6CI,7CI,8CI)",410.45,le15,1
8253,O=C(O)c1ccc(C(=O)O)nc1,"2,5-Pyridinedicarboxylic acid",493.65,le15,1
8254,O=CC=Cc1ccc([N+](=O)[O-])o1,5-Nitrofuran-2-acrylaldehyde,414.85,le15,1
8255,O=[N+]([O-])c1ccc(CCO)cc1,"Phenethyl alcohol, p-nitro-",417.65,le15,1
8256,CCOc1cccc([N+](=O)[O-])c1,"Phenetole, m-nitro- (8CI)",401.25,le15,1
8257,COc1ccc(C)c([N+](=O)[O-])c1,4-methoxy-1-methyl-2-nitrobenzene,400.35,le15,1
8258,c1ccc2c(c1)[nH]c1ccccc12,9H-Carbazole,433.15,le15,1
8259,Nc1nc2nc[nH]c2c(=S)[nH]1,"6H-Purine-6-thione, 2-amino-1,7-dihydro-",562.8499999999998,le15,1
8260,N#CCc1ccc2ccccc2c1,2-naphthalen-2-ylacetonitrile,453.45,le15,1
8261,C#CC1(OC(N)=O)CCCCC1,"Cyclohexanol, 1-ethynyl-, carbamate",404.15,le15,1
8262,CNC[C@H](O)c1cccc(O)c1,"Benzenemethanol, 3-hydroxy-alpha-((methylamino)methyl)-, (R)- (9CI)",436.55,le15,1
8263,O=C1CCCN1C1CCCCC1,"2-Pyrrolidinone, 1-cyclohexyl-",418.15,le15,1
8264,Nc1nc2cc(Cl)ccc2[nH]1,"1H-Benzimidazol-2-amine, 5-chloro-",470.45,le15,1
8265,C=CCI,3iodo1propene,291.0,le15,1
8266,CC(C)(Br)[N+](=O)[O-],2-bromo-2-nitropropane,334.25,le15,1
8267,OC(C(F)(F)F)C(F)(F)F,"2-Propanol, 1,1,1,3,3,3-hexafluoro-",277.54999999999995,le15,1
8268,Fc1cc(F)c(F)c(F)c1F,"Benzene, pentafluoro-",287.0499999999999,le15,1
8269,O=C(O)Cc1ccc(O)c(O)c1,"Benzeneacetic acid, 3,4-dihydroxy- (9CI)",494.15,le15,1
8270,COc1cc(C(=O)O)ccc1O,"Benzoic acid, 4-hydroxy-3-methoxy-",422.55,le15,1
8271,CC(=O)C1C(=O)C=C(C)OC1=O,"2H-Pyran-2,4(3H)-dione, 3-acetyl-6-methyl-",423.75,le15,1
8272,COC(=O)c1cc(O)cc(O)c1,"Benzoic acid, 3,5-dihydroxy-, methyl ester",420.75,le15,1
8273,COC(=O)c1ccc(O)cc1O,"Benzoic acid, 2,4-dihydroxy-, methyl ester",421.95,le15,1
8274,COc1ccc(N)c([N+](=O)[O-])c1,"Benzenamine, 4-methoxy-2-nitro-",431.55,le15,1
8275,COc1cc([N+](=O)[O-])ccc1N,"Benzenamine, 2-methoxy-4-nitro-",447.15,le15,1
8276,COc1ccc([N+](=O)[O-])cc1N,"Benzenamine, 2-methoxy-5-nitro-",439.75,le15,1
8277,CCOC(=O)c1ccc(F)cc1,ethyl 4-fluorobenzoate,354.15,le15,1
8278,O=c1oc2cc(O)ccc2s1,"6-Hydroxy-1,3-benzoxathiol-2-one",455.45,le15,1
8279,OC(CF)=NNc1ccccc1,"Acetic acid, fluoro-, phenylhydrazone (8CI)",362.75,le15,1
8280,c1ccc2c(c1)oc1ccccc12,Dibenzofuran,403.15,le15,1
8281,COc1ccc(CO)cc1OC,"(3,4-dimethoxyphenyl)methanol",394.85,le15,1
8282,c1ccc2c(c1)[nH]c1cnccc12,"9H-Pyrido(3,4-b)indole",455.25,le15,1
8283,OCC(O)COc1ccccc1,"3-phenoxypropane-1,2-diol",429.55,le15,1
8284,CCCCOC(=O)c1ccco1,butyl furan-2-carboxylate,367.05,le15,1
8285,COc1cc(OC)cc(OC)c1,"1,3,5-trimethoxybenzene",358.75,le15,1
8286,c1cnc2c(c1)ccc1cc[nH]c12,"1H-Pyrrolo(3,2-h)quinoline",454.05,le15,1
8287,COc1cccc(OC)c1OC,"1,2,3-trimethoxybenzene",343.5499999999999,le15,1
8288,O=C=NCCCCCCN=C=O,"Isocyanic acid, hexamethylene ester (8CI)",413.15,le15,1
8289,CCOP(C)(=O)SCC,"Phosphonothioic acid, methyl-, O,S-diethyl ester",352.75,le15,1
8290,CCOP(=O)(CC)SC,"Phosphonothioic acid, ethyl-, O-ethyl S-methyl ester",352.75,le15,1
8291,C=CS(=O)(=O)c1ccccc1,Phenyl vinyl sulphone,451.75,le15,1
8292,c1ccc(Cc2ccccc2)cc1,"Benzene, 1,1'-methylenebis-",378.05,le15,1
8293,Cc1ccccc1-c1ccccc1,1-methyl-2-phenylbenzene,380.15,le15,1
8294,Cc1cccc(-c2ccccc2)c1,1-methyl-3-phenylbenzene,386.95,le15,1
8295,C=CCc1cccc2ccccc12,1-prop-2-enylnaphthalene,392.65,le15,1
8296,Cc1ccc(-c2ccccc2)cc1,"1,1'-Biphenyl, 4-methyl-",383.15,le15,1
8297,c1ccc(Cc2ccccc2)cc1,Diphenylmethane,400.0,le15,1
8298,CC1(C2CCC3(C)OC3C2)CO1,"7-Oxabicyclo(4.1.0)heptane, 1-methyl-4-(2-methyloxiranyl)-",373.55,le15,1
8299,CCCCCCC#CC(=O)OC,"2-Nonynoic acid, methyl ester",373.75,le15,1
8300,CC(C)=CCCC(C)=CC(=O)O,"2,6-Octadienoic acid, 3,7-dimethyl-",474.25,le15,1
8301,CC(C)C12C=CC(C)(CC1)OO2,"2,3-Dioxabicyclo(2.2.2)oct-5-ene, 1-methyl-4-(1-methylethyl)- (9CI)",329.0499999999999,le15,1
8302,C=CCCCC=CCOC(C)=O,"2,7-Octadien-1-ol, acetate",360.85,le15,1
8303,C=C(C)C(=O)OC1CCCCC1,cyclohexyl 2-methylprop-2-enoate,355.15,le15,1
8304,CSc1c(C)cc(O)cc1C,"Phenol, 3,5-dimethyl-4-(methylthio)-",403.95,le15,1
8305,C=CCCCCCCCCC=O,10-Undecen-1-al,349.15,le15,1
8306,CCCCCCC1CCCCC1,"Hexane, 1-cyclohexyl- (8CI)",353.35,le15,1
8307,CC(=CC(C)(C)C)CC(C)(C)C,"3-Heptene, 2,2,4,6,6-pentamethyl-",320.25,le15,1
8308,C1CCCCCCCCCCC1,Cyclododecane,360.75,le15,1
8309,C=CCCCCCCCCCC,1dodecene,350.0,le15,1
8310,Nc1nc2cc(Cl)ccc2o1,"2-Benzoxazolamine, 5-chloro- (9CI)",418.55,le15,1
8311,O=C(Cl)CCc1ccccc1,3-Phenylpropionyl chloride,381.15,le15,1
8312,CC1(c2ccc(Cl)cc2)CO1,2-(4-Chlorophenyl)-2-methyloxirane,370.05,le15,1
8313,CC(C)(CCl)c1ccccc1,(1-chloro-2-methylpropan-2-yl)benzene,365.35,le15,1
8314,CC(C)(C)c1ccc(Cl)cc1,1-tert-butyl-4-chlorobenzene,358.15,le15,1
8315,Cc1ccc(C(C)C)cc1Cl,2-chloro-1-methyl-4-propan-2-ylbenzene,358.35,le15,1
8316,O=C/C(Cl)=C(/Cl)C(=O)O,"2-Butenoic acid, 2,3-dichloro-4-oxo-, (Z)- (9CI)",459.15,le15,1
8317,O=C1OC(O)C(Cl)=C1Cl,"3,4-Dichloro-5-hydroxyfuran-2(5H)-one",373.15,le15,1
8318,O=C(Cl)CCCC(=O)Cl,"Glutaryl chloride (7CI,8CI)",379.85,le15,1
8319,COC(CBr)OC,"2-bromo-1,1-dimethoxyethane",327.0499999999999,le15,1
8320,O=C(O)CNCP(=O)(O)O,"Glycine, N-(phosphonomethyl)-",508.65,le15,1
8321,CCCCCCC(Cl)Cl,"1,1-dichloroheptane",339.15,le15,1
8322,O=C=Nc1cccc2ccccc12,1-isocyanatonaphthalene,408.15,le15,1
8323,NCCc1cc(O)c(O)cc1O,"1,2,4-Benzenetriol, 5-(2-aminoethyl)-",472.45,le15,1
8324,c1ccc(Cc2ccccn2)cc1,"Pyridine, 2-(phenylmethyl)-",398.15,le15,1
8325,c1ccc(Nc2ccccc2)cc1,"Benzenamine, N-phenyl-",425.95,le15,1
8326,c1ccc(Cc2cccnc2)cc1,3-Benzylpyridine,391.75,le15,1
8327,Nc1cccc(-c2ccccc2)c1,"(1,1'-Biphenyl)-3-amine (9CI)",450.15,le15,1
8328,CCOC(=O)C(C#N)(CC)CC,ethyl 2-cyano-2-ethylbutanoate,363.35,le15,1
8329,OC[C@@H]1CCCN2CCCC[C@H]12,"[(1R,9aR)-2,3,4,6,7,8,9,9a-octahydro-1H-quinolizin-1-yl]methanol",372.25,le15,1
8330,C1CCC(N2CCOCC2)CC1,"Morpholine, 4-cyclohexyl-",342.75,le15,1
8331,O=c1[nH]c2cc(Cl)ccc2o1,"2(3H)-Benzoxazolone, 5-chloro-",430.65,le15,1
8332,CN(C(=O)Cl)c1ccccc1,N-methyl-N-phenylcarbamoyl chloride,396.25,le15,1
8333,S=C=Nc1ccc(Cl)cc1,1-chloro-4-isothiocyanatobenzene,378.25,le15,1
8334,S=C=Nc1cccc(Cl)c1,1-chloro-3-isothiocyanatobenzene,390.55,le15,1
8335,Clc1nc2ccccc2s1,"2-chloro-1,3-benzothiazole",376.95,le15,1
8336,CC(=O)I,acetyl iodide,290.75,le15,1
8337,CC(C)I,"Propane, 2-iodo-",315.15,le15,1
8338,CCCI,"Propane, 1-iodo-",307.15,le15,1
8339,O=C(O)c1cc(O)c(O)c(O)c1,"Benzoic acid, 3,4,5-trihydroxy-",544.15,le15,1
8340,C=C(C)C(=O)C(=CC(=O)O)OC,"2,5-Hexadienoic acid, 3-methoxy-5-methyl-4-oxo-",386.65,le15,1
8341,Oc1ccccc1-c1ccccc1,"(1,1'-Biphenyl)-2-ol",396.15,le15,1
8342,Oc1ccc(-c2ccccc2)cc1,"(1,1'-Biphenyl)-4-ol",420.35,le15,1
8343,CC(=O)c1ccc2ccccc2c1,"Ethanone, 1-(2-naphthalenyl)-",441.15,le15,1
8344,C=C(C)C(=O)OCC1CCCO1,"Methacrylic acid, tetrahydrofurfuryl ester (8CI)",364.15,le15,1
8345,CCOC(OCC)c1ccco1,2-(diethoxymethyl)furan,337.15,le15,1
8346,CC(C)C[C@@H]1NC(=O)CNC1=O,Cyclo(L-leucylglycyl),480.55,le15,1
8347,CCS(=O)(=O)c1ccccc1,(Ethylsulphonyl)benzene,448.25,le15,1
8348,CCCc1cc(=O)[nH]c(=S)[nH]1,"4(1H)-Pyrimidinone, 2,3-dihydro-6-propyl-2-thioxo-",441.75,le15,1
8349,CCCc1cccc2ccccc12,1-propylnaphthalene,392.05,le15,1
8350,CC(C)c1ccc2ccccc2c1,"Naphthalene, 2-(1-methylethyl)-",382.85,le15,1
8351,Cc1cc2cccc(C)c2cc1C,"Naphthalene, 1,6,7-trimethyl- (8CI)(9CI)",400.95,le15,1
8352,C=COC(=O)C(CC)CCCC,"Hexanoic acid, 2-ethyl-, ethenyl ester",338.15,le15,1
8353,C=C(C)C(=O)OCCCCCC,"Methacrylic acid, hexyl ester (8CI)",345.25,le15,1
8354,C=CCOC(=O)CCCCCC,"Heptanoic acid, 2-propenyl ester",355.35,le15,1
8355,CC(C)=CCCC(C)CC(=O)O,"6-Octenoic acid, 3,7-dimethyl-",436.35,le15,1
8356,CCCCCC1CCCC(=O)O1,"2H-Pyran-2-one, tetrahydro-6-pentyl-",379.25,le15,1
8357,CCCCCCC1CCC(=O)O1,"2(3H)-Furanone, 5-hexyldihydro-",419.15,le15,1
8358,CC(C)C(=O)OC1CCCCC1,cyclohexyl 2-methylpropanoate,348.04999999999984,le15,1
8359,CCCC(=O)OC1CCCCC1,"Butanoic acid, cyclohexyl ester",351.15,le15,1
8360,C=CC(CCCCC)OC(C)=O,"1-Octen-3-ol, acetate",347.04999999999984,le15,1
8361,C=CC(=O)OCCCCCCC,"2-Propenoic acid, heptyl ester",341.0499999999999,le15,1
8362,C=CCCCCCCCCCO,10-Undecen-1-ol,366.45,le15,1
8363,CCCCCCCCCCC=O,1-Undecanal,369.25,le15,1
8364,CCCCCCCCC(=O)CC,undecan-3-one,346.35,le15,1
8365,CCCCCCC(=O)CCCC,undecan-5-one,345.95,le15,1
8366,CCCCCCCC1CCCO1,"Furan, tetrahydro-2-heptyl-",347.04999999999984,le15,1
8367,CCCCCCCCCC(C)=O,2undecanone,362.0,le15,1
8368,CCCCCC(=O)CCCCC,6undecanone,361.0,le15,1
8369,CC1(N)CCC(C(C)(C)N)CC1,"Cyclohexanemethanamine, 4-amino-alpha,alpha,4-trimethyl-",366.45,le15,1
8370,CC1(C)CC(N)CC(C)(CN)C1,"Cyclohexanemethanamine, 5-amino-1,3,3-trimethyl-",371.85,le15,1
8371,CCCCCCCCC(C)CC,3-methylundecane,334.95,le15,1
8372,CC(CC(C)(C)C)CC(C)(C)C,"Heptane, 2,2,4,6,6-pentamethyl-",331.5499999999999,le15,1
8373,C[Si](C)(C)C#C[Si](C)(C)C,trimethyl(2-trimethylsilylethynyl)silane,290.25,le15,1
8374,COc1ccc(C(=O)Cl)cc1,4-methoxybenzoyl chloride,360.95,le15,1
8375,COC(=O)c1ccc(Cl)cc1,"Benzoic acid, p-chloro-, methyl ester (8CI)",379.85,le15,1