,smiles,compound,flashpoint,source,pure substance
12803,O=[N+]([O-])c1ccc(Cl)cc1,p-CHLORONITROBENZENE,400.1,didier14,1
12804,Nc1ccc([N+](=O)[O-])cc1,p-NITROANILINE,472.1,didier14,1
12805,O=[N+]([O-])c1ccc([N+](=O)[O-])cc1,p-DINITROBENZENE,433.0,didier14,1
12806,NC1CCCC1,CYCLOPENTYLAMINE,290.1,didier14,1
12807,CCc1ccccc1,ETHYLBENZENE,288.1,didier14,1
12808,CNC1CCCCC1,N-METHYLCYCLOHEXYLAMINE,302.1,didier14,1
12809,CNc1ccccc1,N-METHYLANILINE,351.0,didier14,1
12810,NNc1ccccc1,PHENYLHYDRAZINE,362.1,didier14,1
12811,,"1,3-DICHLORO-trans-2-BUTENE",300.1,didier14,1
12812,,p-AMINODIPHENYLAMINE,466.5,didier14,1
12813,C1CCC(NC2CCCCC2)CC1,DICYCLOHEXYLAMINE,377.0,didier14,1
12814,c1ccc(Oc2ccccc2)cc1,DIPHENYL ETHER,369.0,didier14,1
12815,,GLYCERYL TRIACETATE,411.0,didier14,1
12816,CCCCC(CC)COC(=O)CCCCC(=O)OCC(CC)CCCC,DI(2-ETHYLHEXYL)ADIPATE,466.0,didier14,1
12817,CCCc1ccccc1,n-PROPYLBENZENE,303.1,didier14,1
12818,CCNc1ccccc1,N-ETHYLANILINE,358.1,didier14,1
12819,CC(=O)Nc1ccccc1,ACETANILIDE,446.1,didier14,1
12820,COc1ccc(CC(=O)O)cc1,4-METHOXYPHENYLACETIC ACID,437.0,didier14,1
12821,CCCCC(CC)CO,2-ETHYL-1-HEXANOL,346.0,didier14,1
12822,CCc1ccc(CC)cc1,p-DIETHYLBENZENE,329.1,didier14,1
12823,OCC1CCC(CO)CC1,"1,4-CYCLOHEXANEDIMETHANOL",434.1,didier14,1
12824,CCCC(C)CO,2-METHYL-1-PENTANOL,319.0,didier14,1
12825,COC(=O)CC#N,METHYL CYANOACETATE,383.1,didier14,1
12826,CCOC(=O)CC,ETHYL PROPIONATE,285.0,didier14,1
12827,CCOC(=O)CCl,ETHYLCHLOROACETATE,311.0,didier14,1
12828,COC(=O)CC(C)=O,METHYL ACETOACETATE,343.0,didier14,1
12829,CCOC(=O)CC(=O)OCC,DIETHYL MALONATE,366.1,didier14,1
12830,CCCC(=O)OCC,ETHYL n-BUTYRATE,297.1,didier14,1
12831,CCOC(=O)CC#N,ETHYL CYANOACETATE,383.1,didier14,1
12832,,ACETAL,252.2,didier14,1
12833,CN(CCO)CCO,METHYL DIETHANOLAMINE,399.8,didier14,1
12834,CCCOC(=O)CCC,n-PROPYL n-BUTYRATE,305.0,didier14,1
12835,Cc1ccc(O)c(C)c1,"2,4-XYLENOL",368.1,didier14,1
12836,CCCCOC(=O)/C=C\C(=O)OCCCC,DIBUTYL MALEATE,413.0,didier14,1
12837,CCCCC(=O)CC,3-HEPTANONE,310.1,didier14,1
12838,CCCOC(=O)CC,n-PROPYL PROPIONATE,292.1,didier14,1
12839,Cc1ccc(C)cc1,p-XYLENE,298.1,didier14,1
12840,Cc1ccc(O)cc1,p-CRESOL,368.0,didier14,1
12841,Clc1ccc(Cl)cc1,p-DICHLOROBENZENE,339.0,didier14,1
12842,Nc1ccc(Cl)cc1,p-CHLOROANILINE,386.0,didier14,1
12843,Oc1ccc(Cl)cc1,p-CHLOROPHENOL,389.0,didier14,1
12844,Cc1ccc(N)cc1,p-TOLUIDINE,360.0,didier14,1
12845,Nc1ccc(N)cc1,p-PHENYLENEDIAMINE,428.7,didier14,1
12846,C=CC(=O)OCC(C)C,ISOBUTYL ACRYLATE,304.3,didier14,1
12847,COC(=O)CCC(=O)OC,DIMETHYL SUCCINATE,358.1,didier14,1
12848,CCC(C)(CC)CC,3-METHYL-3-ETHYLPENTANE,276.0,didier14,1
12849,CCC(CC)(CC)CC,"3,3-DIETHYLPENTANE",294.0,didier14,1
12850,CCC(C(C)C)C(C)C,"2,4-DIMETHYL-3-ETHYLPENTANE",288.0,didier14,1
12851,C=CC=C,"1,3-BUTADIENE",197.2,didier14,1
12852,CCCS,n-PROPYL MERCAPTAN,253.2,didier14,1
12853,ClCCCl,"1,2-DICHLOROETHANE",286.0,didier14,1
12854,OCCCl,2-CHLOROETHANOL,313.7,didier14,1
12855,CC(C)(C)CC(C)(C)C,"2,2,4,4-TETRAMETHYLPENTANE",276.0,didier14,1
12856,CCC#N,PROPIONITRILE,275.0,didier14,1
12857,CCCCCC(C)(C)C,"2,2-DIMETHYLHEPTANE",297.0,didier14,1
12858,NCCN,ETHYLENEDIAMINE,306.1,didier14,1
12859,OCCO,ETHYLENE GLYCOL,383.1,didier14,1
12860,CC(C)CCCCC(C)C,"2,7-DIMETHYLOCTANE",306.0,didier14,1
12861,O=CC=O,GLYOXAL,262.0,didier14,1
12862,COCCl,CHLOROMETHYL METHYL ETHER,255.0,didier14,1
12863,OCCCCCCO,HEXYLENE GLYCOL,366.0,didier14,1
12864,CCCCCCc1ccccc1,n-HEXYLBENZENE,353.1,didier14,1
12865,CCCCCCCc1ccccc1,n-HEPTYLBENZENE,368.1,didier14,1
12866,CCCC(C)=O,2-PENTANONE,280.0,didier14,1
12867,CC(O)CCO,"1,3-BUTANEDIOL",382.0,didier14,1
12868,,ACETALDOL,339.0,didier14,1
12869,CCCC(=O)O,n-BUTYRIC ACID,345.0,didier14,1
12870,COCC(C)O,PROPYLENE GLYCOL MONOMETHYL ETHER,305.0,didier14,1
12871,CCC[N+](=O)[O-],1-NITROPROPANE,306.1,didier14,1
12872,CC(=O)CC(C)C,METHYL ISOBUTYL KETONE,286.1,didier14,1
12873,CC(C)CC(C)O,4-METHYL-2-PENTANOL,314.0,didier14,1
12874,CC(C)NC(C)C,DIISOPROPYLAMINE,266.1,didier14,1
12875,CC(C)OC(C)C,DIISOPROPYL ETHER,245.0,didier14,1
12876,Cc1cccc(C)c1,m-XYLENE,298.1,didier14,1
12877,Cc1cccc(O)c1,m-CRESOL,368.0,didier14,1
12878,Nc1cccc(Cl)c1,m-CHLOROANILINE,378.0,didier14,1
12879,Oc1cccc(Cl)c1,m-CHLOROPHENOL,364.0,didier14,1
12880,Cc1cccc(N)c1,m-TOLUIDINE,359.1,didier14,1
12881,Nc1cccc(N)c1,m-PHENYLENEDIAMINE,411.1,didier14,1
12882,Oc1cccc(O)c1,"1,3-BENZENEDIOL",400.0,didier14,1
12883,Cc1cccc(C)n1,"2,6-DIMETHYLPYRIDINE",306.0,didier14,1
12884,CC(C)(C(=O)[O-])C(=O)[O-],DIMETHYLMALONATE,363.1,didier14,1
12885,COCC(C)OC(C)=O,PROPYLENE GLYCOL MONOMETHYL ETHER ACETATE,316.0,didier14,1
12886,Cc1cc(C)cc(C)c1,MESITYLENE,317.6,didier14,1
12887,CC(C)CC(=O)CC(C)C,DIISOBUTYL KETONE,322.1,didier14,1
12888,CC1CCCCC1,METHYLCYCLOHEXANE,267.1,didier14,1
12889,Cc1ccccc1,TOLUENE,277.1,didier14,1
12890,Cc1ccncc1,4-METHYLPYRIDINE,329.1,didier14,1
12891,NC1CCCCC1,CYCLOHEXYLAMINE,304.1,didier14,1
12892,OC1CCCCC1,CYCLOHEXANOL,341.0,didier14,1
12893,Oc1ccccc1,PHENOL,353.0,didier14,1
12894,Cc1cccnc1,3-METHYLPYRIDINE,309.1,didier14,1
12895,Cc1ccccn1,2-METHYLPYRIDINE,299.1,didier14,1
12896,CCCCOC(=O)CCC,n-BUTYL n-BUTYRATE,326.5,didier14,1
12897,CCCCOC(=O)CCCCCCCCC(=O)OCCCC,DIBUTYL SEBACATE,451.1,didier14,1
12898,CCCCC(=O)O,n-PENTANOIC ACID,358.1,didier14,1
12899,CCCOC(C)=O,n-PROPYL ACETATE,288.0,didier14,1
12900,CCCCC,n-PENTANE,233.2,didier14,1
12901,C=CCCC,1-PENTENE,219.0,didier14,1
12902,CCCCCl,n-BUTYL CHLORIDE,263.8,didier14,1
12903,CCCC#N,n-BUTYRONITRILE,289.1,didier14,1
12904,NCCCN,"1,3-PROPANEDIAMINE",321.1,didier14,1
12905,N#CCC#N,MALONONITRILE,385.1,didier14,1
12906,N#CCCO,HYDRACRYLONITRILE,383.1,didier14,1
12907,CCCCS,n-BUTYL MERCAPTAN,274.8,didier14,1
12908,CC(O)CN,METHYLETHANOLAMINE,345.1,didier14,1
12909,COCCO,2-METHOXYETHANOL,312.0,didier14,1
12910,COCOC,METHYLAL,255.0,didier14,1
12911,CCNCC,DIETHYLAMINE,234.2,didier14,1
12912,,"4,4'-DINITROTRIPHENYLAMINE",557.0,didier14,1
12913,CC(C)(C)OOC(C)(C)C,DI-t-BUTYL PEROXIDE,291.0,didier14,1
12914,CC(=O)CCC(C)C,5-METHYL-2-HEXANONE,309.1,didier14,1
12915,O=C(O)CCC(=O)O,SUCCINIC ACID,489.0,didier14,1
12916,O=C(O)/C=C/C(=O)O,FUMARIC ACID,471.0,didier14,1
12917,CC(=O)OCC(C)C,ISOBUTYL ACETATE,291.0,didier14,1
12918,CCCCCCOC(=O)CCCCC(=O)OCCCCCC,DIHEXYL ADIPATE,464.0,didier14,1
12919,CCCCCCCCCC(=O)OC,METHYL DECANOATE,367.1,didier14,1
12920,CCCCCC(C)=O,2-HEPTANONE,312.1,didier14,1
12921,CCCCCC,n-HEXANE,251.5,didier14,1
12922,ClCCCCCl,"1,4-DICHLOROBUTANE",313.1,didier14,1
12923,ClC/C=C/CCl,"1,4-DICHLORO-trans-2-BUTENE",326.1,didier14,1
12924,CCCCCN,n-PENTYLAMINE,272.1,didier14,1
12925,N#CCCC#N,SUCCINONITRILE,405.0,didier14,1
12926,CCCCC=O,PENTANAL,285.1,didier14,1
12927,OCCCCO,"1,4-BUTANEDIOL",407.1,didier14,1
12928,CCCCCS,n-PENTYL MERCAPTAN,291.0,didier14,1
12929,COCCC#N,3-METHOXYPROPIONITRILE,338.1,didier14,1
12930,COCCOC,"1,2-DIMETHOXYETHANE",271.5,didier14,1
12931,CCOCCO,2-ETHOXYETHANOL,316.0,didier14,1
12932,C1CCCCC1,CYCLOHEXANE,253.2,didier14,1
12933,c1ccncc1,PYRIDINE,293.1,didier14,1
12934,O=C(O)CCCC(=O)O,GLUTARIC ACID,482.0,didier14,1
12935,,DIISOPROPANOLAMINE,397.0,didier14,1
12936,O=C(O)COCC(=O)O,DIGLYCOLIC ACID,500.0,didier14,1
12937,CC(C)CCCC(C)CCCC(C)CCCCC(C)CCCC(C)CCCC(C)C,SQUALANE,490.0,didier14,1
12938,CCCCCCC(C)=O,2-OCTANONE,324.1,didier14,1
12939,CCCCCCC(=O)O,n-HEPTANOIC ACID,382.0,didier14,1
12940,CCOCCOC(C)=O,2-ETHOXYETHYL ACETATE,328.0,didier14,1
12941,O=C(O)CCCCCC(=O)O,PIMELIC ACID,488.0,didier14,1
12942,O=C(O)CCCCCCCCC(=O)O,SEBACIC ACID,496.0,didier14,1
12943,CCCCCCN,n-HEXYLAMINE,281.1,didier14,1
12944,CCCCCCO,1-HEXANOL,333.0,didier14,1
12945,OCCCCCO,"1,5-PENTANEDIOL",402.1,didier14,1
12946,O=CCCCC=O,GLUTARALDEHYDE,355.0,didier14,1
12947,CCCCCCS,n-HEXYL MERCAPTAN,293.1,didier14,1
12948,C=COCCCC,BUTYL VINYL ETHER,272.0,didier14,1
12949,NCCNCCN,DIETHYLENETRIAMINE,372.0,didier14,1
12950,NCCNCCO,N-AMINOETHYL ETHANOLAMINE,375.0,didier14,1
12951,OCCNCCO,DIETHANOLAMINE,425.0,didier14,1
12952,ClCCOCCCl,DI(2-CHLOROETHYL)ETHER,328.1,didier14,1
12953,OCCOCCO,DIETHYLENE GLYCOL,397.0,didier14,1
12954,,THIODIGLYCOL,433.1,didier14,1
12955,CC(C)(CO)C(=O)OC(=O)C(C)(C)CO,HYDROXYPIVALYL HYDROXYPIVALATE,426.0,didier14,1
12956,CC(=O)OCCOC(C)=O,ETHYLENE GLYCOL DIACETATE,361.1,didier14,1
12957,CCCCCCCC,n-OCTANE,286.0,didier14,1
12958,C=CCCCCCC,1-OCTENE,281.0,didier14,1
12959,CCCCCCC=O,HEPTANAL,308.1,didier14,1
12960,CCCCOCCO,2-BUTOXYETHANOL,333.1,didier14,1
12961,COCCOCCO,2-(2-METHOXYETHOXY)ETHANOL,357.0,didier14,1
12962,CCCCCCCCC,n-NONANE,304.0,didier14,1
12963,CCCCCCCCO,1-OCTANOL,357.0,didier14,1
12964,CCOCCOCCO,2-(2-ETHOXYETHOXY)ETHANOL,356.4,didier14,1
12965,ClCCOCOCCCl,DI-(2-CHLOROETHOXY)METHANE,383.1,didier14,1
12966,CCCCNCCCC,DI-n-BUTYLAMINE,312.1,didier14,1
12967,COCCOCCOC,DIETHYLENE GLYCOL DIMETHYL ETHER,335.9,didier14,1
12968,N#CCC=CCC#N,"1,4-DICYANO-2-BUTENE",418.0,didier14,1
12969,CCCCCCCCCCC,n-UNDECANE,338.1,didier14,1
12970,CCCCOCCOC(C)=O,ETHYLENE GLYCOL MONOBUTYL ETHER ACETATE,344.1,didier14,1
12971,CCCCCCCCOC(C)=O,n-OCTYL ACETATE,359.1,didier14,1
12972,CCOCCOCCOC(C)=O,DIETHYLENE GLYCOL ETHYL ETHER ACETATE,380.0,didier14,1
12973,CCCCCCCCCCOC(C)=O,n-DECYL ACETATE,377.0,didier14,1
12974,NCCNCCNCCN,TRIETHYLENETETRAMINE,408.1,didier14,1
12975,CCCCCCOCCO,2-HEXOXYETHANOL,355.0,didier14,1
12976,OCCOCCOCCO,TRIETHYLENE GLYCOL,429.1,didier14,1
12977,O=C(O)CC1CCCC1,CYCLOPENTYLACETIC ACID,382.1,didier14,1
12978,CCCCCCCCCCO,1-DECANOL,355.4,didier14,1
12979,CCCCCCCCCC=O,DECANAL,358.1,didier14,1
12980,CCCCCCCCOC=O,n-OCTYL FORMATE,337.0,didier14,1
12981,CCCCOCCOCCO,2-(2-BUTOXYETHOXY)ETHANOL,351.0,didier14,1
12982,COCCOCCOCCO,TRIETHYLENE GLYCOL MONOMETHYL ETHER,387.6,didier14,1
12983,CCOCCOCCOCC,DIETHYLENE GLYCOL DIETHYL ETHER,355.1,didier14,1
12984,C=CCCCCCCCCCC,1-DODECENE,340.0,didier14,1
12985,CCCCCCCCCCCO,1-UNDECANOL,388.0,didier14,1
12986,CCCCCCCCCCC=O,UNDECANAL,369.1,didier14,1
12987,OCCCCCCCCCCO,"DECAN-1,10-DIOL",425.1,didier14,1
12988,COCCOCCOCCOC,TRIETHYLENE GLYCOL DIMETHYL ETHER,383.1,didier14,1
12989,CCOCCOCCOCCO,TRIETHYLENE GLYCOL MONOETHYL ETHER,408.1,didier14,1
12990,CCCCCCCCCCCCO,1-DODECANOL,398.0,didier14,1
12991,CCCCCCCCCCCC=O,DODECANAL,374.1,didier14,1
12992,NCCNCCNCCNCCN,TETRAETHYLENEPENTAMINE,436.0,didier14,1
12993,CCCCCCOCCOCCO,2-(2-HEXOXYETHOXY)ETHANOL,408.1,didier14,1
12994,OCCOCCOCCOCCO,TETRAETHYLENE GLYCOL,469.0,didier14,1
12995,CCCCCCCCCCCCCCO,1-TETRADECANOL,416.0,didier14,1
12996,CCCCOCCOCCOCCCC,DIETHYLENE GLYCOL DI-n-BUTYL ETHER,391.1,didier14,1
12997,CCc1cccc2ccccc12,1-ETHYLNAPHTHALENE,384.1,didier14,1
12998,C=CCCCCCCCCCCCCCCCC,1-OCTADECENE,421.1,didier14,1
12999,O=C(O)c1ccc2cc(C(=O)O)ccc2c1,"2,6-NAPHTHALENEDICARBOXYLIC ACID",544.0,didier14,1
13000,C=CC,PROPYLENE,165.0,didier14,1
13001,OCC(CO)(CO)CO,PENTAERYTHRITOL,533.1,didier14,1
13002,,ACETOL,329.0,didier14,1
13003,CCCCCCCCOC(=O)c1ccccc1C(=O)OCCCCCCCC,DIOCTYL PHTHALATE,489.0,didier14,1
13004,CC(C)C(C)C(C)(C)C,"2,2,3,4-TETRAMETHYLPENTANE",284.0,didier14,1
13005,O=C(O)c1ccccc1Cl,o-CHLOROBENZOIC ACID,435.0,didier14,1
13006,O=C(CO)c1ccccc1,2-HYDROXYACETOPHENONE,371.1,didier14,1
13007,O=C(O)CCCCCO,6-HYDROXYHEXANOIC ACID,444.0,didier14,1
13008,COCCOCCOCCOCCOCCOC,PENTAETHYLENE GLYCOL DIMETHYL ETHER,468.0,didier14,1
13009,COC(=O)c1ccccc1O,METHYL SALICYLATE,369.0,didier14,1
13010,c1ccc2cnccc2c1,ISOQUINOLINE,380.1,didier14,1
13011,O=Cc1ccccc1C(=O)O,2-FORMYL BENZOIC ACID,436.0,didier14,1
13012,COC(=O)c1ccc(C(=O)OC)cc1,DIMETHYL TEREPHTHALATE,414.1,didier14,1
13013,Oc1ccccc1O,"1,2-BENZENEDIOL",400.0,didier14,1
13014,Clc1ccc(Cl)c(Cl)c1,"1,2,4-TRICHLOROBENZENE",378.7,didier14,1
13015,CCOc1cc(C=O)ccc1O,ETHYL VANILLIN,445.0,didier14,1
13016,COc1cc(C=O)ccc1O,VANILLIN,432.0,didier14,1
13017,CCN(CC)CC,TRIETHYLAMINE,258.1,didier14,1
13018,CN(C)c1ccccc1,"N,N-DIMETHYLANILINE",335.1,didier14,1
13019,O=[N+]([O-])c1cccc(Cl)c1,m-CHLORONITROBENZENE,400.1,didier14,1
13020,O=C(O)c1cccc(C(=O)O)c1,ISOPHTHALIC ACID,601.0,didier14,1
13021,c1ccc(NNc2ccccc2)cc1,HYDRAZOBENZENE,503.0,didier14,1
13022,CCc1ccc(O)cc1,p-ETHYLPHENOL,373.1,didier14,1
13023,O=Cc1ccc(O)cc1,p-HYDROXYBENZALDEHYDE,445.0,didier14,1
13024,CCCC(=O)CCC,4-HEPTANONE,321.1,didier14,1
13025,CCOC(=O)CCC(=O)OCC,DIETHYL SUCCINATE,363.0,didier14,1
13026,,p-HYDROQUINONE,438.0,didier14,1
13027,CCC=O,PROPANAL,243.2,didier14,1
13028,CNC=O,N-METHYLFORMAMIDE,376.0,didier14,1
13029,CC(=O)CC(C)(C)O,DIACETONE ALCOHOL,331.0,didier14,1
13030,CC(C)CCO,3-METHYL-1-BUTANOL,316.0,didier14,1
13031,CC(=O)CC(C)=O,ACETYLACETONE,307.1,didier14,1
13032,CCCC=O,BUTANAL,262.1,didier14,1
13033,CC(=O)CCC(=O)O,LEVULINIC ACID,410.0,didier14,1
13034,CCCCCCCCOC(=O)CCCCC(=O)OCCCCCCCC,DIOCTYL ADIPATE,500.1,didier14,1
13035,CCCCOC(C)=O,n-BUTYL ACETATE,295.0,didier14,1
13036,CCCCCCCCCCCCCCCCCC(=O)OCCCC,n-BUTYL STEARATE,433.1,didier14,1
13037,CCCCCCC(C)O,2-OCTANOL,344.3,didier14,1
13038,O=C(O)CCCCCCCC(=O)O,AZELAIC ACID,492.0,didier14,1
13039,CCCCCCCC(=O)O,n-OCTANOIC ACID,393.0,didier14,1
13040,NCCCCCCN,HEXAMETHYLENEDIAMINE,366.0,didier14,1
13041,C=CCCCCCCC,1-NONENE,295.0,didier14,1
13042,CCCCCCCC=O,OCTANAL,324.1,didier14,1
13043,CCCCOCCOCCOC(C)=O,DIETHYLENE GLYCOL MONOBUTYL ETHER ACETATE,375.1,didier14,1
13044,CCCCCCCCCC,n-DECANE,319.0,didier14,1
13045,CCCCCCCCC=O,NONANAL,336.1,didier14,1
13046,CNC,DIMETHYLAMINE,223.2,didier14,1
13047,CC(C)(CO)CO,NEOPENTYL GLYCOL,371.1,didier14,1
13048,CC(=O)C(=O)O,PYRUVIC ACID,355.1,didier14,1
13049,CC(=O)N(C)C,"N,N-DIMETHYLACETAMIDE",336.1,didier14,1
13050,c1cc2ccc3cccc4ccc(c1)c2c34,PYRENE,472.0,didier14,1
13051,COC(=O)c1ccccc1C(=O)OC,DIMETHYL PHTHALATE,419.0,didier14,1
13052,CCCOC(=O)c1ccccc1C(=O)OCCC,DI-n-PROPYL PHTHALATE,433.0,didier14,1
13053,CC/C=C/CC,trans-3-HEXENE,261.1,didier14,1
13054,CC(CO)OCC(C)OC(C)(C)C,DIPROPYLENE GLYCOL t-BUTYL ETHER,392.0,didier14,1
13055,C=CCCCCCCCCCCCCC,1-PENTADECENE,385.0,didier14,1
13056,C/C=C/CCCCC,trans-2-OCTENE,294.3,didier14,1
13057,CCc1ccccc1CC,o-DIETHYLBENZENE,330.4,didier14,1
13058,CCC(C)c1ccccc1,sec-BUTYLBENZENE,325.0,didier14,1
13059,CCC(C)CO,2-METHYL-1-BUTANOL,316.1,didier14,1
13060,CC(=O)OCC(=O)O,ACETOXYACETIC ACID,440.0,didier14,1
13061,,beta-TERPINEOL,360.0,didier14,1
13062,CCC(C)N,sec-BUTYLAMINE,244.3,didier14,1
13063,CC[C@H]1CC[C@H](CC)CC1,"trans-1,4-DIETHYLCYCLOHEXANE",320.0,didier14,1
13064,CCOC(=O)/C=C\C(=O)OCC,DIETHYL MALEATE,366.1,didier14,1
13065,NCCO,MONOETHANOLAMINE,358.1,didier14,1
13066,O=CCO,GLYCOL ALDEHYDE,360.0,didier14,1
13067,CCOC(C)=O,ETHYL ACETATE,269.0,didier14,1
13068,O=C(O)CC(=O)O,MALONIC ACID,496.0,didier14,1
13069,CCc1cccc(CC)c1,m-DIETHYLBENZENE,329.0,didier14,1
13070,CCOC(=O)CC(C)=O,ETHYL ACETOACETATE,330.4,didier14,1
13071,ClCCCCl,"1,3-DICHLOROPROPANE",294.1,didier14,1
13072,CCCCCC(=O)O,n-HEXANOIC ACID,375.0,didier14,1
13073,CCCCCCC,n-HEPTANE,269.0,didier14,1
13074,CCCNCCC,DI-n-PROPYLAMINE,290.1,didier14,1
13075,CCCCCCCCCCCC(=O)O,n-DODECANOIC ACID,430.0,didier14,1
13076,CCCCCCCCCO,1-NONANOL,368.0,didier14,1
13077,CCCCCCCCCOC(C)=O,n-NONYL ACETATE,372.1,didier14,1
13078,CCCCOCCOCCOCCO,TRIETHYLENE GLYCOL n-BUTYL ETHER,416.0,didier14,1
13079,COCCOCCOCCOCCOC,TETRAETHYLENE GLYCOL DIMETHYL ETHER,414.1,didier14,1
13080,CC(C)C(O)C(C)(C)CO,"2,2,4-TRIMETHYL-1,3-PENTANEDIOL",383.1,didier14,1
13081,COC(=O)c1cccc(C(=O)OC)c1,DIMETHYL ISOPHTHALATE,411.1,didier14,1
13082,C/C=C/CCCC,trans-2-HEPTENE,272.0,didier14,1
13083,CC/C=C/CCC,trans-3-HEPTENE,267.1,didier14,1
13084,ClC/C=C\CCl,"1,4-DICHLORO-cis-2-BUTENE",323.0,didier14,1
13085,Oc1cccc2cccnc12,8-HYDROXYQUINOLINE,404.0,didier14,1
13086,CC/C=C\CCCC,cis-3-OCTENE,290.0,didier14,1
13087,CCC/C=C/CCC,trans-4-OCTENE,281.0,didier14,1
13088,CC/C=C/CCCC,trans-3-OCTENE,282.0,didier14,1
13089,CCC(O)C(C)CO,"2-METHYL-1,3-PENTANEDIOL",394.0,didier14,1
13090,CCCCC(CC)C(=O)O,2-ETHYL HEXANOIC ACID,387.1,didier14,1
13091,COc1ccc(O)cc1,p-METHOXYPHENOL,398.0,didier14,1
13092,CCCCCCCOC(=O)c1ccc(C(=O)OCCCCCCC)c(C(=O)OCCCCCCC)c1,TRI-n-HEPTYL TRIMELLITATE,546.0,didier14,1
13093,CCCCOCCOCCOCCOCCO,TETRAETHYLENE GLYCOL MONOBUTYL ETHER,436.0,didier14,1
13094,CCCCC(CC)COCCO,ETHYLENE GLYCOL 2-ETHYLHEXYL ETHER,383.1,didier14,1
13095,Cl/C=C\Cl,"cis-1,2-DICHLOROETHYLENE",277.0,didier14,1
13096,Cl/C=C/Cl,"trans-1,2-DICHLOROETHYLENE",275.0,didier14,1
13097,NCCCO,3-AMINO-1-PROPANOL,352.6,didier14,1
13098,CCCOCC(C)O,PROPYLENE GLYCOL n-PROPYL ETHER,321.1,didier14,1
13099,CCOCC(C)O,1-ETHOXY-2-PROPANOL,315.1,didier14,1
13100,SC1CCCCC1,CYCLOHEXYL MERCAPTAN,316.1,didier14,1
13101,COC(=O)c1ccc(C=O)cc1,METHYL-4-FORMYLBENZOATE,403.0,didier14,1
13102,CCCCC(CC)CC,3-ETHYLHEPTANE,295.0,didier14,1
13103,CCCCC(C)CCCC,5-METHYLNONANE,311.0,didier14,1
13104,,2-METHOXY PROPANOL-1,309.0,didier14,1
13105,COC(C)(C)C,METHYL tert-BUTYL ETHER,240.2,didier14,1
13106,CCCCc1cccc2ccccc12,1-n-BUTYLNAPHTHALENE,401.0,didier14,1
13107,CC1(C)CCCC1,"1,1-DIMETHYLCYCLOPENTANE",257.0,didier14,1
13108,CCCCCCCS,n-HEPTYL MERCAPTAN,319.1,didier14,1
13109,CCC1CCCC1,ETHYLCYCLOPENTANE,269.0,didier14,1
13110,N#CCCOCCC#N,BIS(CYANOETHYL)ETHER,445.0,didier14,1
13111,CCC(C)(C)CC(C)C,"2,4,4-TRIMETHYLHEXANE",283.0,didier14,1
13112,CC(C)C(C)(C)C(C)C,"2,3,3,4-TETRAMETHYLPENTANE",304.0,didier14,1
13113,CCC1(C)CCCC1,1-METHYL-1-ETHYLCYCLOPENTANE,279.0,didier14,1
13114,CCC1CCCCC1,ETHYLCYCLOHEXANE,295.1,didier14,1
13115,CCCC1CCCCC1,n-PROPYLCYCLOHEXANE,304.0,didier14,1
13116,CCCCC1CCCCC1,n-BUTYLCYCLOHEXANE,321.0,didier14,1
13117,CCCCCC(C)CCC,4-METHYLNONANE,311.0,didier14,1
13118,CCCCCCCCCCC1CCCCC1,n-DECYLCYCLOHEXANE,404.0,didier14,1
13119,,"4,4'-DINITRODIPHENYLAMINE",544.0,didier14,1
13120,C=CCCCCCCCCCCCCCCCCCCCCCCCCCCCC,1-TRIACONTENE,517.0,didier14,1
13121,CCCCCOCCOCCO,2-(2-PENTOXYETHOXY)ETHANOL,383.0,didier14,1
13122,CCCCCCCCCOC(=O)c1ccccc1C(=O)OCCCCCCC,"1,2-BENZENEDICARBOXYLIC ACID, HEPTYL, NONYL ESTER",500.0,didier14,1
13123,CCCCC1CCCC1,n-BUTYLCYCLOPENTANE,305.0,didier14,1
13124,CCCC1CCCC1,n-PROPYLCYCLOPENTANE,288.0,didier14,1
13125,,2-ACETOACETOXY ETHYL METHACRYLATE,407.1,didier14,1
13126,,cis-DICYANO-1-BUTENE,440.0,didier14,1
13127,,trans-DICYANO-1-BUTENE,423.0,didier14,1
13128,SC(S)COCC(S)S,DIMERCAPTOETHYL ETHER,371.1,didier14,1
13129,CC(CO)CO,"2-METHYL-1,3-PROPANEDIOL",386.0,didier14,1
13130,c1ccc2c(c1)ccc1c3ccccc3ccc21,CHRYSENE,510.0,didier14,1
13131,COc1cc(/C=C/c2ccccc2)cc(OC)c1,"trans-3,5-DIMETHOXYSTILBENE",489.0,didier14,1
13132,CCCCCC(C)CC,3-METHYLOCTANE,297.0,didier14,1
13133,CCCCC(C)CCC,4-METHYLOCTANE,295.0,didier14,1
13134,C=CC(=O)OCCOC(=O)C=C,ETHYLENE GLYCOL DIACRYLATE,373.1,didier14,1
13135,,DIAMANTANE,351.0,didier14,1
13136,CC(C)(C)NC=O,tert-BUTYLFORMAMIDE,368.1,didier14,1
13137,CCCOC(=O)/C=C\C(=O)OCCC,DIPROPYL MALEATE,391.0,didier14,1
13138,CCCCC(N)C#N,AMINOCAPRONITRILE,378.0,didier14,1
13139,COC(=O)c1ccc(C(=O)OC)c(C(=O)OC)c1,"BENZENE-1,2,4-TRICARBOXYLIC ACID TRIMETHYL ESTER",468.0,didier14,1
13140,C=CC(=O)OC(C)C(=O)O,ACRYLOXY PROPIONIC ACID,419.0,didier14,1
13141,CC(O)COC(C)COC(C)CO,TRIPROPYLENE GLYCOL,413.1,didier14,1
13142,CC(O)COC(C)CO,DIPROPYLENE GLYCOL,391.0,didier14,1
13143,COC(C)COC(C)COC(C)CO,TRIPROPYLENE GLYCOL MONOMETHYL ETHER,384.0,didier14,1
13144,O=CCCCO,4-HYDROXYBUTYRALDEHYDE,346.0,didier14,1
13145,c1ccc2nc3ccccc3cc2c1,ACRIDINE,445.0,didier14,1
13146,CCCCCCCCCc1cccc2ccccc12,1-n-NONYLNAPHTHALENE,449.0,didier14,1
13147,CCCCCCCCCCc1cccc2ccccc12,1-n-DECYLNAPHTHALENE,458.0,didier14,1
13148,CC(C)CCCCCCCOC(=O)c1ccccc1C(=O)OCCCCCCCC(C)C,DIISODECYL PHTHALATE,505.4,didier14,1
13149,CC(C)CCCCCOC(=O)c1ccccc1C(=O)OCCCCCC(C)C,DIISOOCTYL PHTHALATE,504.0,didier14,1
13150,CCCc1cccc2ccccc12,1-n-PROPYLNAPHTHALENE,387.0,didier14,1
13151,CCCOCCO,ETHYLENE GLYCOL MONOPROPYL ETHER,322.1,didier14,1
13152,C1C2CC3CC1CC(C2)C3,ADAMANTANE,316.0,didier14,1
13153,CC(C)CCCCCCOC(=O)c1ccccc1C(=O)OCCCCCCC(C)C,DIISONONYL PHTHALATE,489.0,didier14,1
13154,CCCCCCc1cccc2ccccc12,1-n-HEXYLNAPHTHALENE,425.0,didier14,1
13155,C1CCCC1,CYCLOPENTANE,233.0,didier14,1
13156,c1ccnnc1,PYRIDAZINE,358.1,didier14,1
13157,CCCOC(C)COC(C)CO,DIPROPYLENE GLYCOL n-PROPYL ETHER,370.9,didier14,1
13158,CCOC(C)COC(C)CO,DIPROPYLENE GLYCOL MONOETHYL ETHER,364.0,didier14,1
13159,O=C(O)c1ccc(CO)cc1,4-HYDROXYMETHYL BENZOIC ACID,495.0,didier14,1
13160,NN,HYDRAZINE,311.0,didier14,1
13161,OCCC(O)CO,"1,2,4-BUTANETRIOL",440.0,didier14,1