,smiles,compound,flashpoint,source,pure substance
4653,CC(C)(C)CO,"1-Propanol, 2,2-dimethyl-",310.15,le15,1
4654,CC(C)CCO,Isopentyl alcohol (8CI),318.75,le15,1
4655,CCC(O)CC,3-Pentanol,313.15,le15,1
4656,COC(C)(C)C,"Propane, 2-methoxy-2-methyl-",245.15,le15,1
4657,CCCC(C)O,2-Pentanol,307.15,le15,1
4658,CCC(C)OC,2-methoxybutane,243.15,le15,1
4659,CCC(C)(C)O,"2-Butanol, 2-methyl-",294.25,le15,1
4660,CCCCOC,1methoxybutane,263.0,le15,1
4661,CCC(C)OC,2methoxybutane,243.0,le15,1
4662,CCC(C)CO,2methyl1butanol,316.0,le15,1
4663,CCC(C)(C)O,2methyl2butanol,294.0,le15,1
4664,CCCC(C)O,2pentanol,313.0,le15,1
4665,CC(C)CCO,3methyl1butanol,316.0,le15,1
4666,CC(C)C(C)O,3methyl2butanol,312.0,le15,1
4667,CCC(O)CC,3pentanol,313.0,le15,1
4668,CCCOCC,EthylPropylEther,253.0,le15,1
4669,CN(C)CCN,"Ethylenediamine, N,N-dimethyl- (8CI)",297.0499999999999,le15,1
4670,CCNCCN,"1,2-Ethanediamine, N1-ethyl-",283.15,le15,1
4671,CC(N)CCN,1-Methyltrimethylenediamine,309.65,le15,1
4672,CCN(N)CC,"Hydrazine, 1,1-diethyl-",295.95,le15,1
4673,NCCCCN,Tetramethylenediamine,324.85,le15,1
4674,CNCCCN,"1,3-Propanediamine, N-methyl-",313.15,le15,1
4675,C=CCSC,3-methylsulfanylprop-1-ene,291.45,le15,1
4676,C1CCSC1,"Thiophene, tetrahydro-",285.95,le15,1
4677,C1CCSC1,Thiacyclopentane,285.0,le15,1
4678,CC[Si]CC,diethylsilicon,244.25,le15,1
4679,C=C=CCCl,"4-chlorobuta-1,2-diene",273.65,le15,1
4680,CCOC(N)=O,"Carbamic acid, ethyl ester",370.35,le15,1
4681,CCC(N)CO,2-aminobutan-1-ol,355.35,le15,1
4682,CN(C)CCO,"Ethanol, 2-(dimethylamino)-",313.75,le15,1
4683,CC(C)(N)CO,"1-Propanol, 2-amino-2-methyl-",340.35,le15,1
4684,CCN(O)CC,"N,N-diethylhydroxylamine",318.15,le15,1
4685,COCCCN,"1-Propanamine, 3-methoxy-",295.95,le15,1
4686,NCCCCO,"1-Butanol, 4-amino-",380.95,le15,1
4687,CCC(O)CN,1-aminobutan-2-ol,334.15,le15,1
4688,CCNCCO,"Ethanol, 2-(ethylamino)-",351.15,le15,1
4689,CCOCCN,2-ethoxyethanamine,290.85,le15,1
4690,CN(C)CCO,2dimethylaminoethanol,313.0,le15,1
4691,C1CSCN1,Thiazolidine,329.25,le15,1
4692,N#CCCCl,"Propanenitrile, 3-chloro-",348.75,le15,1
4693,CC(Cl)C#N,2-Chloropropionitrile,306.45,le15,1
4694,CC(O)C(=O)O,"Propanoic acid, 2-hydroxy-",383.086,le15,1
4695,O=C(CO)CO,"2-Propanone, 1,3-dihydroxy-",370.45,le15,1
4696,COC(=O)OC,"Carbonic acid, dimethyl ester",291.15,le15,1
4697,COCC(=O)O,"Acetic acid, 2-methoxy-",394.15,le15,1
4698,C[C@H](O)C(=O)O,"Propanoic acid, 2-hydroxy-, (S)- (9CI)",383.05,le15,1
4699,COC(=O)CO,methyl 2-hydroxyacetate,340.35,le15,1
4700,COC(=O)OC,Dimethylcarbonate,291.0,le15,1
4701,COC(=O)NN,"Carbazic acid, methyl ester (8CI)",359.25,le15,1
4702,CC(C)(C)OO,"Hydroperoxide, 1,1-dimethylethyl",308.15,le15,1
4703,CC(O)CCO,"1,3-Butanediol",394.25,le15,1
4704,COCC(C)O,"2-Propanol, 1-methoxy-",344.95,le15,1
4705,COCCOC,"Ethane, 1,2-dimethoxy-",273.15,le15,1
4706,CCOCCO,"Ethanol, 2-ethoxy-",317.15,le15,1
4707,CC(C)(O)CO,"2-methylpropane-1,2-diol",346.85,le15,1
4708,CCC(O)CO,"1,2-Butanediol",366.45,le15,1
4709,COC(C)CO,2-methoxypropan-1-ol,315.0499999999999,le15,1
4710,COCCCO,"1-Propanol, 3-methoxy-",325.95,le15,1
4711,CC(CO)CO,"2-methylpropane-1,3-diol",375.65,le15,1
4712,COCC(C)O,1methoxy2propanol,311.0,le15,1
4713,NCC(O)CN,"2-Propanol, 1,3-diamino-",370.05,le15,1
4714,CNC(=N)S,"Pseudourea, 1-methyl-2-thio- (7CI)",312.25,le15,1
4715,CCSCC,"Ethane, 1,1'-thiobis-",263.15,le15,1
4716,CCCSC,1-methylsulfanylpropane,273.15,le15,1
4717,CC(C)(C)S,"2-Propanethiol, 2-methyl-",249.15,le15,1
4718,CCC(C)S,2butanethiol,250.0,le15,1
4719,CC(C)(C)S,2methyl2propanethiol,247.0,le15,1
4720,C=CC(=O)Cl,prop-2-enoyl chloride,289.25,le15,1
4721,C=C(C)CCl,"1-Propene, 3-chloro-2-methyl-",260.35,le15,1
4722,C/C=C(/C)Cl,(Z)-2-chlorobut-2-ene,254.15,le15,1
4723,C/C=C\CCl,(Z)-1-chlorobut-2-ene,378.55,le15,1
4724,C/C=C/CCl,(E)-1-chlorobut-2-ene,261.15,le15,1
4725,C/C=C/CCl,(E)-1-chlorobut-2-ene,258.15,le15,1
4726,ClCC1CC1,chloromethylcyclopropane,271.45,le15,1
4727,C=C(C)CCl,3chloro2methyl1propene,261.0,le15,1
4728,NC(CO)CO,"1,3-Propanediol, 2-amino-",388.25,le15,1
4729,NNC(N)=S,Hydrazinecarbothioamide,353.15,le15,1
4730,COC(=O)CF,"Acetic acid, fluoro-, methyl ester",290.75,le15,1
4731,OCC(O)CO,Glycerol,457.0,le15,1
4732,O=C(O)CS,"Acetic acid, mercapto-",372.95,le15,1
4733,Cc1ccccc1,"Benzene, methyl-",283.15,le15,1
4734,C1=CC2C=CC1C2,"Bicyclo(2.2.1)hepta-2,5-diene",262.04999999999995,le15,1
4735,C1=CC=CCC=C1,"1,3,5-Cycloheptatriene",299.85,le15,1
4736,CC(=O)CCl,"2-Propanone, 1-chloro-",300.95,le15,1
4737,ClCC1CO1,"Propane, 1-chloro-2,3-epoxy-",307.0499999999999,le15,1
4738,O=CCCCl,3-chloropropanal,299.5499999999999,le15,1
4739,CCC(=O)Cl,PropanoylChloride,285.0,le15,1
4740,CC(C)(C)Cl,2-chloro-2-methylpropane,291.45,le15,1
4741,[2H]C([2H])([2H])C(Cl)(C([2H])([2H])[2H])C([2H])([2H])[2H],"2-chloro-1,1,1,3,3,3-hexadeuterio-2-(trideuteriomethyl)propane",291.45,le15,1
4742,CC(C)CCl,1chloro2methylpropane,294.0,le15,1
4743,CCCCCl,1chlorobutane,267.0,le15,1
4744,CC(C)(C)Cl,2chloro2methylpropane,291.0,le15,1
4745,N#Cc1ccco1,furan-2-carbonitrile,308.15,le15,1
4746,Nc1ccccc1,Benzenamine,349.15,le15,1
4747,Cc1ccncc1,"Pyridine, 4-methyl-",313.15,le15,1
4748,Cc1cccnc1,"Pyridine, 3-methyl-",309.26099999999997,le15,1
4749,Cc1ccccn1,"Pyridine, 2-methyl-",299.26099999999997,le15,1
4750,Clc1ccccn1,2chloropyridine,339.0,le15,1
4751,Cc1cccnc1,3picoline,313.0,le15,1
4752,Cc1ccncc1,4methylpyridine,310.0,le15,1
4753,Cc1ccncc1,4picoline,313.0,le15,1
4754,NC(=O)CCl,"Acetamide, 2-chloro-",381.75,le15,1
4755,CP(C)(=O)O,dimethylphosphinic acid,410.85,le15,1
4756,C=Cc1ccco1,2-ethenylfuran,278.65,le15,1
4757,Cc1cnccn1,"Pyrazine, 2-methyl-",323.15,le15,1
4758,Nc1cccnc1,"Pyridine, 3-amino-",397.15,le15,1
4759,Nc1ccncc1,"Pyridine, 4-amino-",429.15,le15,1
4760,Cc1cccnn1,3-methylpyridazine,360.95,le15,1
4761,Cc1cncnc1,5-methylpyrimidine,316.40599999999995,le15,1
4762,Cc1ccncn1,4-methylpyrimidine,313.15,le15,1
4763,CC(C)(C#N)C#N,"2,2-dimethylpropanedinitrile",350.95,le15,1
4764,Cc1ncccn1,2-methylpyrimidine,293.45,le15,1
4765,CS(C)(=O)=O,"Methane, sulfonylbis-",416.15,le15,1
4766,CC1=CCCC=C1,"2-methylcyclohexa-1,3-diene",276.25,le15,1
4767,C=CC#CCCC,1-Hepten-3-yne,281.35,le15,1
4768,C1=CCCCC=C1,"cyclohepta-1,3-diene",284.25,le15,1
4769,C1=CC2CCC1C2,2norbornene,258.0,le15,1
4770,SCCS,"ethane-1,2-dithiol",317.5499999999999,le15,1
4771,CSSC,Methyl disulfide (8CI),297.5499999999999,le15,1
4772,CSSC,DimethylDisulfide,297.0,le15,1
4773,O=C(O)CCl,"Acetic acid, chloro-",399.15,le15,1
4774,COC(=O)Cl,"Carbonochloridic acid, methyl ester",280.95,le15,1
4775,CC(O)CCl,"2-Propanol, 1-chloro-",324.85,le15,1
4776,COCCCl,1-chloro-2-methoxyethane,288.15,le15,1
4777,CCOCCl,chloromethoxyethane,292.15,le15,1
4778,OCCCCl,3chloro1propanol,346.0,le15,1
4779,C[Si](C)Cl,chloro(dimethyl)silicon,245.15,le15,1
4780,ClC#CCl,"Ethyne, dichloro- (9CI)",280.45,le15,1
4781,O=Cc1ccc[nH]1,1H-pyrrole-2-carbaldehyde,379.85,le15,1
4782,O=c1cccc[nH]1,1H-pyridin-2-one,454.25,le15,1
4783,N#CCNCC#N,"Acetonitrile, 2,2'-iminobis-",431.05,le15,1
4784,CCn1cccc1,1-ethylpyrrole,298.65,le15,1
4785,Cc1c[nH]c(C)c1,"2,4-dimethyl-1H-pyrrole",329.75,le15,1
4786,CCc1ccc[nH]1,2-ethyl-1H-pyrrole,335.35,le15,1
4787,Cc1ccc(C)[nH]1,"Pyrrole, 2,5-dimethyl- (8CI)",327.15,le15,1
4788,O=[N+]([O-])CCl,Chloronitromethane,297.85,le15,1
4789,O=C(O)C(F)F,"Acetic acid, 2,2-difluoro-",351.15,le15,1
4790,O=Cc1ccco1,2-Furancarboxaldehyde,331.45,le15,1
4791,O=c1ccocc1,pyran-4-one,374.25,le15,1
4792,O=c1cccco1,pyran-2-one,362.35,le15,1
4793,O=Cc1ccoc1,furan-3-carbaldehyde,321.45,le15,1
4794,O=Cc1ccco1,Furfural,333.0,le15,1
4795,Fc1ccccc1,"Benzene, fluoro-",258.15,le15,1
4796,CS(=O)(=O)O,Methanesulphonic acid,462.15,le15,1
4797,C/C=C/C=C/C=O,"2,4-Hexadienal, (2E,4E)-",341.15,le15,1
4798,Cc1ccc(C)o1,"Furan, 2,5-dimethyl-",271.45,le15,1
4799,CC1=CCCC1=O,2-methylcyclopent-2-en-1-one,326.25,le15,1
4800,C#CCCC(C)=O,hex-5-yn-2-one,315.85,le15,1
4801,CC1=CC(=O)CC1,3-methylcyclopent-2-en-1-one,326.25,le15,1
4802,CCc1ccco1,"Furan, 2-ethyl-",274.15,le15,1
4803,Cc1coc(C)c1,"2,4-dimethylfuran",273.95,le15,1
4804,O=C1C=CCCC1,2-Cyclohexen-1-one,328.85,le15,1
4805,O=C1CC=CCC1,cyclohex-3-en-1-one,319.95,le15,1
4806,Cc1cc(C)[nH]n1,"3,5-dimethyl-1H-pyrazole",363.65,le15,1
4807,Cc1cnc(C)[nH]1,"2,5-dimethyl-1H-imidazole",415.45,le15,1
4808,CN(C)C=CC#N,"Acrylonitrile, 3-(dimethylamino)- (7CI,8CI)",405.05,le15,1
4809,CCn1ccnc1,1-ethylimidazole,352.04999999999984,le15,1
4810,Cc1nccn1C,"1,2-dimethylimidazole",365.15,le15,1
4811,CC1C=CCCC1,3-methylcyclohexene,270.15,le15,1
4812,CC#CCCCC,hept-2-yne,281.15,le15,1
4813,CC1=CCCCC1,1-methylcyclohexene,269.25,le15,1
4814,C#CCCCCC,hept-1-yne,271.15,le15,1
4815,C=C(C)C=C(C)C,"2,4-dimethylpenta-1,3-diene",283.15,le15,1
4816,C=C1CCCCC1,methylidenecyclohexane,266.45,le15,1
4817,CC=C1CCCC1,ethylidenecyclopentane,275.85,le15,1
4818,C=C=CCCCC,"hepta-1,2-diene",275.35,le15,1
4819,CCC#CCCC,hept-3-yne,278.45,le15,1
4820,C#CCCCCC,1heptyne,271.0,le15,1
4821,CC1=CCCCC1,1methylcyclohexene,270.0,le15,1
4822,C=C1CCCCC1,Methylenecyclohexane,267.0,le15,1
4823,CSCCl,"Methane, chloro(methylthio)- (9CI)",290.35,le15,1
4824,SCCCl,2-chloroethanethiol,304.0499999999999,le15,1
4825,C=C(Cl)Cl,"1,1-Dichloroethene (9CI)",248.15,le15,1
4826,Cl/C=C/Cl,"Ethene, 1,2-dichloro-, (E)- (9CI)",279.25,le15,1
4827,ClC=CCl,"Ethylene, 1,2-dichloro-",279.25,le15,1
4828,O=C1C=CC(=O)N1,"1H-Pyrrole-2,5-dione",409.75,le15,1
4829,Fc1cccnc1,"Pyridine, 3-fluoro- (8CI)(9CI)",286.483,le15,1
4830,Fc1ccccn1,"Pyridine, 2-fluoro-",301.483,le15,1
4831,Fc1ccncc1,4-fluoropyridine,295.95,le15,1
4832,Cc1cc(C)on1,"3,5-dimethyl-1,2-oxazole",304.25,le15,1
4833,NCc1ccco1,furan-2-ylmethanamine,319.85,le15,1
4834,Cc1coc(C)n1,"2,4-dimethyl-1,3-oxazole",307.65,le15,1
4835,Cc1cnc(C)o1,"2,5-dimethyl-1,3-oxazole",303.15,le15,1
4836,C=CCNCC=C,"2-Propen-1-amine, N-2-propenyl-",288.75,le15,1
4837,CC(C)CCC#N,"Pentanenitrile, 4-methyl-",318.75,le15,1
4838,CP(=O)(O)F,"Phosphonofluoridic acid, methyl-",318.75,le15,1
4839,O=C1C=CC(=O)O1,"furan-2,5-dione",376.45,le15,1
4840,OCc1ccco1,Furfuryl alcohol,338.15,le15,1
4841,CS(=O)(=O)F,Methanesulphonyl fluoride,301.65,le15,1
4842,CC1=CCC(=O)O1,"2(3H)-Furanone, 5-methyl-",341.15,le15,1
4843,C#CC(=O)OCC,ethyl prop-2-ynoate,296.15,le15,1
4844,C=COC(=O)C=C,"Acrylic acid, vinyl ester (6CI,7CI,8CI)",286.65,le15,1
4845,OCc1ccoc1,Furan-3-methanol,311.45,le15,1
4846,COc1ccco1,2-methoxyfuran,283.15,le15,1
4847,OCc1ccco1,Furfurylalcohol,338.0,le15,1
4848,Cc1nonc1C,"3,4-dimethyl-1,2,5-oxadiazole",308.65,le15,1
4849,COC(C)=NC#N,"Ethanimidic acid, N-cyano-, methyl ester",292.0499999999999,le15,1
4850,O=C1CCCCC1,Cyclohexanone,317.15,le15,1
4851,CCC#CC(C)O,3-Hexyn-2-ol,326.45,le15,1
4852,CC=CC=CCO,"2,4-Hexadien-1-ol",345.35,le15,1
4853,CC(=O)C=C(C)C,"3-Penten-2-one, 4-methyl-",303.75,le15,1
4854,C1CCC2OC2C1,7-Oxabicyclo(4.1.0)heptane,300.35,le15,1
4855,C=CCOCC=C,"1-Propene, 3,3'-oxybis-",266.15,le15,1
4856,C#CC(O)C(C)C,"1-Pentyn-3-ol, 4-methyl-",315.0499999999999,le15,1
4857,CCCC#CCO,Hex-2-yn-1-ol,340.95,le15,1
4858,OC1CC=CCC1,3-Cyclohexen-1-ol,326.5499999999999,le15,1
4859,O=CC1CCCC1,cyclopentanecarbaldehyde,309.15,le15,1
4860,C=CCC(O)C=C,"Hexa-1,5-dien-3-ol",302.5499999999999,le15,1
4861,CCC#CCCO,3-Hexyn-1-ol,336.45,le15,1
4862,CC1CCCC1=O,2-methylcyclopentan-1-one,305.85,le15,1
4863,C/C=C/C(=O)CC,(E)-hex-4-en-3-one,307.5499999999999,le15,1
4864,CCC/C=C/C=O,"2-Hexenal, (2E)-",308.15,le15,1
4865,CC/C=C\CC=O,"3-Hexenal, (3Z)-",333.15,le15,1
4866,CC1=CCOCC1,"4-methyl-3,6-dihydro-2H-pyran",287.45,le15,1
4867,C#CC(C)(O)CC,"1-Pentyn-3-ol, 3-methyl-",302.15,le15,1
4868,C=CCCC(C)=O,5-Hexen-2-one,297.0499999999999,le15,1
4869,C#CCCCCO,5-Hexyn-1-ol,343.15,le15,1
4870,C=C(C=O)CCC,"Pentanal, 2-methylene- (9CI)",302.25,le15,1
4871,CC(=O)C1CCC1,1-cyclobutylethanone,305.45,le15,1
4872,C1CCC2OC2C1,CyclohexeneOxide,297.0,le15,1
4873,Cc1cc(C)c(Oc2c(C)cc(C)cc2C)c(C)c1,Mesityloxide,305.0,le15,1
4874,CN(C)CCC#N,"Propanenitrile, 3-(dimethylamino)-",335.15,le15,1
4875,CCC(C)(N)C#N,"Butanenitrile, 2-amino-2-methyl-",343.85,le15,1
4876,CCN(C#N)CC,Diethylcyanamide,342.0,le15,1
4877,Cc1cccs1,2methylthiophene,280.0,le15,1
4878,C1CCCCCC1,cycloheptane,279.25,le15,1
4879,CC=C(CC)CC,3-ethylpent-2-ene,309.15,le15,1
4880,CCC1CCCC1,ethylcyclopentane,288.75,le15,1
4881,C=CCCCCC,1heptene,265.0,le15,1
4882,C=C(C)CCCC,2methyl1hexene,267.0,le15,1
4883,C1CCCCCC1,Cycloheptane,279.0,le15,1
4884,CCC1CCCC1,Ethylcyclopentane,288.0,le15,1
4885,NCC(F)(F)F,"2,2,2-trifluoroethanamine",257.15,le15,1
4886,COC(=O)CC#N,methyl 2-cyanoacetate,315.85,le15,1
4887,O=C1CCC(=O)N1,"2,5-Pyrrolidinedione",433.15,le15,1
4888,CCOC(=O)C#N,ethyl cyanoformate,297.5499999999999,le15,1
4889,CC1CCC(=O)N1,5-methylpyrrolidin-2-one,400.65,le15,1
4890,CCCCN=C=O,"Isocyanic acid, butyl ester",290.95,le15,1
4891,O=C1CCCCN1,piperidin-2-one,406.25,le15,1
4892,CC(C)CN=C=O,1-isocyanato-2-methylpropane,290.25,le15,1
4893,CCOCCC#N,"Propionitrile, 3-ethoxy- (8CI)",337.0499999999999,le15,1
4894,C=CN(C)C(C)=O,"Acetamide, N-ethenyl-N-methyl-",336.0499999999999,le15,1
4895,CC(C)=CC(N)=O,"Crotonamide, 3-methyl-",364.35,le15,1
4896,CN1CCCC1=O,"2-Pyrrolidinone, 1-methyl-",364.15,le15,1
4897,C=CC(=O)N(C)C,"2-Propenamide, N,N-dimethyl-",344.85,le15,1
4898,CN1CCCC1=O,1methyl2pyrrolidinone,359.0,le15,1
4899,CCC1=NCCO1,2ethyloxazoline,302.0,le15,1
4900,C=CCN=C=S,"Isothiocyanic acid, allyl ester",309.45,le15,1
4901,Cc1nccs1,"2-methyl-1,3-thiazole",302.0499999999999,le15,1
4902,Cc1cscn1,"4-methyl-1,3-thiazole",305.15,le15,1
4903,CC1CCCCN1,2-methylpiperidine,289.15,le15,1
4904,C1CCCNCC1,"1H-Azepine, hexahydro-",291.15,le15,1
4905,CC1CCNCC1,4-methylpiperidine,280.35,le15,1
4906,CN1CCCCC1,"Piperidine, 1-methyl-",276.45,le15,1
4907,CCN1CCCC1,1-ethylpyrrolidine,274.75,le15,1
4908,C=C(C)CNCC,"Allylamine, N-ethyl-2-methyl- (6CI,8CI)",280.35,le15,1
4909,CC1(N)CCCC1,"Cyclopentylamine, 1-methyl- (6CI)",282.35,le15,1
4910,NC1CCCCC1,Cyclohexylamine,300.0,le15,1
4911,OCC(F)(F)F,"Ethanol, 2,2,2-trifluoro-",302.5499999999999,le15,1
4912,C=C(C)C(=O)OC,"2-Propenoic acid, 2-methyl-, methyl ester",283.15,le15,1
4913,C=C(C)OC(C)=O,"1-Propen-2-ol, acetate",286.0499999999999,le15,1
4914,CC1CCC(=O)O1,"2(3H)-Furanone, dihydro-5-methyl-",348.13,le15,1
4915,O=CCCCC=O,Glutaraldehyde,339.15,le15,1
4916,CC(=O)CC(C)=O,"2,4-Pentanedione",316.25,le15,1
4917,C=CC(=O)OCC,"2-Propenoic acid, ethyl ester",288.70599999999996,le15,1
4918,CC(C)=CC(=O)O,"2-Butenoic acid, 3-methyl-",369.15,le15,1
4919,C/C=C(/C)C(=O)O,(Z)-2-methylbut-2-enoic acid,369.05,le15,1
4920,C=CCCC(=O)O,4-Pentenoic acid,362.15,le15,1
4921,C=CCOC(C)=O,"Acetic acid, 2-propenyl ester",279.85,le15,1
4922,CCC(=O)C(C)=O,"2,3-Pentanedione",292.85,le15,1
4923,C/C=C/C(=O)OC,"2-Butenoic acid, methyl ester, (2E)-",277.15,le15,1
4924,CC1CCOC1=O,alpha-Methyl-gamma-butyrolactone,348.15,le15,1
4925,O=C(O)C1CCC1,cyclobutanecarboxylic acid,356.15,le15,1
4926,C=CC1OCCO1,"2-Vinyl-1,3-dioxolane",294.15,le15,1
4927,CC1CC1C(=O)O,2-methylcyclopropane-1-carboxylic acid,360.95,le15,1
4928,O=C1CCCCO1,oxan-2-one,354.15,le15,1
4929,COC(=O)C1CC1,methyl cyclopropanecarboxylate,290.15,le15,1
4930,O=C1CCOCC1,oxan-4-one,336.75,le15,1
4931,C=CCCC(=O)[O-],Allylacetate,279.0,le15,1
4932,CC1CCC(=O)O1,gammaValerolactone,354.0,le15,1
4933,COC(=O)C1CC1,MethylCyclopropanecarboxylate,290.0,le15,1
4934,C=C(C)C(=O)OC,MethylMethacrylate,283.0,le15,1
4935,C=CCNC(N)=O,"Urea, N-2-propen-1-yl-",328.45,le15,1
4936,O=NN1CCCC1,"Pyrrolidine, 1-nitroso-",356.45,le15,1
4937,C=CCN(C)N=O,"2-Propen-1-amine, N-methyl-N-nitroso- (9CI)",338.95,le15,1
4938,CC(=O)C(C)(C)C,"2-Butanone, 3,3-dimethyl-",297.0499999999999,le15,1
4939,CC(=O)CC(C)C,"2-Pentanone, 4-methyl-",286.45,le15,1
4940,OC1CCCCC1,Cyclohexanol,340.92800000000005,le15,1
4941,CCCC(C)C=O,"Valeraldehyde, 2-methyl- (8CI)",289.85,le15,1
4942,CC/C=C/CCO,(E)-hex-3-en-1-ol,317.5499999999999,le15,1
4943,CCC(C)C(C)=O,3-methylpentan-2-one,285.15,le15,1
4944,CCC(=O)C(C)C,2-methylpentan-3-one,283.95,le15,1
4945,CCCC(=O)CC,3-Hexanone,296.15,le15,1
4946,CCCCC(C)=O,2-Hexanone,296.15,le15,1
4947,C1CCCOCC1,oxepane,287.35,le15,1
4948,C=CCCCCO,Hex-5-en-1-ol,320.35,le15,1
4949,C=CC(C)(O)CC,"1-Penten-3-ol, 3-methyl-",299.15,le15,1
4950,C/C=C/CCCO,"4-Hexen-1-ol, (4E)-",334.25,le15,1
4951,CCC/C=C\CO,(Z)-hex-2-en-1-ol,334.85,le15,1
4952,CC/C=C\CCO,"3-Hexen-1-ol, (3Z)-",317.15,le15,1
4953,CC/C=C/CCO,"3-Hexen-1-ol, (3E)-",317.5499999999999,le15,1
4954,CC(C)CCC=O,"Valeraldehyde, 4-methyl-",290.95,le15,1
4955,CC1(C)CCCO1,"Furan, tetrahydrodimethyl-",277.65,le15,1
4956,CCCCC1CO1,"Oxirane, butyl- (9CI)",294.95,le15,1
4957,CCC=C(C)CO,"2-Penten-1-ol, 2-methyl-",333.95,le15,1
4958,CC(C)(C)CC=O,"3,3-Dimethylbutyraldehyde",283.75,le15,1
4959,OCC1CCCC1,cyclopentylmethanol,335.35,le15,1
4960,C=CC(O)CCC,1-Hexen-3-ol,308.15,le15,1
4961,CCC(C)CC=O,3-methylpentanal,290.95,le15,1
4962,CC1CCC(O)C1,3-methylcyclopentan-1-ol,328.15,le15,1
4963,C[C@H]1CCC[C@H]1O,"(1R,2S)-2-methylcyclopentan-1-ol",320.35,le15,1
4964,CC=CC(C)(C)O,2-methylpent-3-en-2-ol,297.35,le15,1
4965,CCCCCC=O,Hexaldehyde,305.15,le15,1
4966,CCC(C=O)CC,"Butyraldehyde, 2-ethyl-",294.25,le15,1
4967,CCC/C=C/CO,"2-Hexen-1-ol, (2E)-",327.15,le15,1
4968,CCC1OC1(C)C,"Oxirane, 3-ethyl-2,2-dimethyl-",277.45,le15,1
4969,CC1(O)CCCC1,1-methylcyclopentan-1-ol,313.75,le15,1
4970,CCC(C=O)CC,2ethylbutanal,294.0,le15,1
4971,CCC(=O)C(C)C,2methyl3pentanone,286.0,le15,1
4972,CCCC(=O)CC,3hexanone,287.0,le15,1
4973,CCC(C)C(C)=O,3methyl2pentanone,285.0,le15,1
4974,C=CCCCCO,5hexen1ol,320.0,le15,1
4975,C=COCCCC,Butylvinylether,264.0,le15,1
4976,CCCCCC=O,Hexanal,305.0,le15,1
4977,CC(=O)CC(C)C,MethylIsobutylKetone,287.0,le15,1
4978,CC(=O)C(C)(C)C,Pinacolone,278.0,le15,1
4979,CN1CCNCC1,"Piperazine, 1-methyl-",315.35,le15,1
4980,C1CNCCNC1,"1H-1,4-Diazepine, hexahydro-",337.5499999999999,le15,1
4981,NN1CCCCC1,piperidin-1-amine,309.25,le15,1
4982,CCN1CN1CC,"1,2-Diethyldiaziridine",275.75,le15,1
4983,CC1CNCCN1,"Piperazine, 2-methyl-",318.25,le15,1
4984,CC(C)CC(C)C,"2,4-dimethylpentane",260.95,le15,1
4985,CCCCCCC,Heptane,272.04999999999995,le15,1
4986,CCCCC(C)C,2methylhexane,270.0,le15,1
4987,CCCC(C)CC,3methylhexane,270.0,le15,1
4988,CC(=O)C(C)=NO,"2,3-Butanedione, monooxime",458.65,le15,1
4989,CC(=O)NC(C)=O,N-acetylacetamide,374.95,le15,1
4990,C=CC(=O)NCO,"2-Propenamide, N-(hydroxymethyl)-",419.35,le15,1
4991,Nc1nncs1,"1,3,4-Thiadiazole, 2-amino-",371.45,le15,1
4992,CC(C)CC(N)=O,3-methylbutanamide,367.25,le15,1
4993,CCN(C=O)CC,"Formamide, N,N-diethyl-",333.15,le15,1
4994,CCC/C(C)=N\O,(NZ)-N-pentan-2-ylidenehydroxylamine,351.15,le15,1
4995,CCCCC(N)=O,pentanamide,367.45,le15,1
4996,CCC(=O)N(C)C,"N,N-dimethylpropanamide",338.95,le15,1
4997,CC(C)(C)NC=O,N-tert-butylformamide,368.85,le15,1
4998,CCCN=C=S,"Propane, 1-isothiocyanato-",258.15,le15,1
4999,CC1=NCCS1,"2-methyl-4,5-dihydro-1,3-thiazole",310.35,le15,1
5000,CC(C)CC(C)N,4-methylpentan-2-amine,285.15,le15,1
5001,CCCCCCN,1-Hexanamine,300.15,le15,1
5002,CCCCN(C)C,"N,N-dimethylbutan-1-amine",278.15,le15,1
5003,CC(C)CCCN,Isohexylamine,298.85,le15,1
5004,CCCNC(C)C,N-propan-2-ylpropan-1-amine,274.25,le15,1
5005,CC(C)NC(C)C,"2-Propanamine, N-(1-methylethyl)-",266.15,le15,1
5006,CCCNCCC,"1-Propanamine, N-propyl-",276.15,le15,1
5007,CC(C)(C)CCN,"3,3-dimethylbutan-1-amine",274.25,le15,1
5008,CCCCNCC,"1-Butanamine, N-ethyl-",291.15,le15,1
5009,CC(C)(C)CCN,"3,3-Dimethylbutylamine",278.75,le15,1
5010,CC(=O)CC(=O)O,3-oxobutanoic acid,384.95,le15,1
5011,COC(=O)C(C)=O,methyl 2-oxopropanoate,312.15,le15,1
5012,CC(=O)OC(C)=O,Aceticanhydride,322.0,le15,1
5013,CC(C)(C)C(=O)O,"Propanoic acid, 2,2-dimethyl-",341.45,le15,1
5014,CCOC(=O)CC,"Propanoic acid, ethyl ester",285.35,le15,1
5015,CC(=O)OC(C)C,"Acetic acid, 1-methylethyl ester",289.85,le15,1
5016,CCCOC(C)=O,"Acetic acid, propyl ester",285.95,le15,1
5017,C=CCOCCO,"Ethanol, 2-(2-propenyloxy)-",328.15,le15,1
5018,CC(=O)C(C)(C)O,3-hydroxy-3-methylbutan-2-one,315.35,le15,1
5019,CCC(C)C(=O)O,"Butyric acid, 2-methyl- (6CI,8CI)",346.54999999999984,le15,1
5020,CC(C)CC(=O)O,"Butanoic acid, 3-methyl-",346.54999999999984,le15,1
5021,CC(C)COC=O,"Formic acid, 2-methylpropyl ester",283.15,le15,1