,smiles,compound,flashpoint,source,pure substance
12064,,"2-Pentanone,4-methyl-",286.1,didier14,1
12065,CC(C)CC(C)O,"2-Pentanol, 4-methyl-",314.0,didier14,1
12066,CC(C)NC(C)C,Diisopropylamine,266.1,didier14,1
12067,CC(C)OC(C)C,Isopropyl ether,245.0,didier14,1
12068,Cc1cccc(C)c1,"1,3-Dimethylbenzene",298.1,didier14,1
12069,Cc1cccc(O)c1,"Phenol, 3-methyl-",359.1,didier14,1
12070,Cc1cccc(N)c1,m-Toluidine,359.0,didier14,1
12071,Cc1cccc(C)n1,"Pyridine, 2,6-dimethyl-",306.0,didier14,1
12072,Cc1cc(C)cc(C)c1,Mesitylene,317.6,didier14,1
12073,,"4-Heptanone,2,6-dimethyl-",322.1,didier14,1
12074,CC1CCCCC1,"Cyclohexane, methyl-",269.1,didier14,1
12075,Cc1ccccc1,Toluene,279.1,didier14,1
12076,Cc1ccncc1,"Pyridine, 4-methyl-",312.1,didier14,1
12077,NC1CCCCC1,Cyclohexanamine,299.6,didier14,1
12078,Oc1ccccc1,Phenol,352.1,didier14,1
12079,Cc1cccnc1,"Pyridine, 3-methyl-",309.1,didier14,1
12080,Cc1ccccn1,"Pyridine, 2-methyl-",299.1,didier14,1
12081,CCCCOC(=O)CCC,"Butanoic acid, butyl ester",323.1,didier14,1
12082,CCCCC(=O)O,Valeric acid,359.1,didier14,1
12083,CCCOC(C)=O,Propyl acetate,283.7,didier14,1
12084,CCCCC,Pentane,224.2,didier14,1
12085,C=CCCC,1-Pentene,222.0,didier14,1
12086,CCCCCl,1-Chlorobutane,263.8,didier14,1
12087,CCCC#N,Butanenitrile,291.1,didier14,1
12088,NCCCN,"1,3-Diaminopropane",322.1,didier14,1
12089,CCCCS,Butanethiol,274.1,didier14,1
12090,COCCO,"Ethanol, 2-methoxy-",312.1,didier14,1
12091,,"Ethanamine,N-ethyl-",245.2,didier14,1
12092,CC(=O)CCC(C)C,"2-Hexanone, 5-methyl-",308.1,didier14,1
12093,CC(=O)OCC(C)C,Isobutyl acetate,291.0,didier14,1
12094,,"Hexanedioic acid,1,6-dihexyl ester",464.0,didier14,1
12095,,"Decanoic acid, methylester",367.1,didier14,1
12096,CCCCCC(C)=O,2-Heptanone,312.1,didier14,1
12097,,N-hexane,250.2,didier14,1
12098,CCCCCN,Amylamine,280.1,didier14,1
12099,CCCCC=O,Valeraldehyde,285.1,didier14,1
12100,CCCCCS,1-Pentanethiol,291.1,didier14,1
12101,COCCOC,"1,2-Dimethoxyethane",271.5,didier14,1
12102,c1ccncc1,Pyridine,293.1,didier14,1
12103,CCCCCCC(C)=O,2-Octanone,329.1,didier14,1
12104,CCCCCCC(=O)O,Heptanoic acid,388.1,didier14,1
12105,O=C(O)CCCCCC(=O)O,Pimelic acid,423.1,didier14,1
12106,CCCCCCN,1-Hexanamine,300.1,didier14,1
12107,CCCCCCO,Hexyl alcohol,333.1,didier14,1
12108,CCCCCCS,1-Hexanethiol,305.6,didier14,1
12109,C=COCCCC,n-Butylvinylether,272.0,didier14,1
12110,CCCCCCCC,Octane,287.1,didier14,1
12111,C=CCCCCCC,1-Octene,284.6,didier14,1
12112,CCCCCCC=O,Heptaldehyde,308.1,didier14,1
12113,,"Ethanol,2-butoxy-",334.1,didier14,1
12114,,"Ethanol,2-",360.1,didier14,1
12115,CCCCCCCCC,Nonane,304.1,didier14,1
12116,CCCCCCCCO,1-Octanol,359.7,didier14,1
12117,CCOCCOCCO,"Ethanol, 2-(2-ethoxyethoxy)-",363.1,didier14,1
12118,CCCCNCCCC,"1-Butanamine, N-butyl-",315.0,didier14,1
12119,CCCCCCCCCCC,Undecane,339.1,didier14,1
12120,CCCCCCCCOC(C)=O,Acetic acid octyl ester,356.1,didier14,1
12121,,"Acetic acid, decylester",386.5,didier14,1
12122,CCCCCCCCCCO,Decyl alcohol,377.1,didier14,1
12123,CCCCCCCCCC=O,Decanal,358.1,didier14,1
12124,,"Formic acid, octylester",349.5,didier14,1
12125,,"Ethanol,2-",378.1,didier14,1
12126,C=CCCCCCCCCCC,1-Dodecene,346.1,didier14,1
12127,CCCCCCCCCCCO,1-Undecanol,386.1,didier14,1
12128,CCCCCCCCCCC=O,Undecanal,369.1,didier14,1
12129,CCCCCCCCCCCCO,1-Dodecanol,400.0,didier14,1
12130,,Dodecyl aldehyde,374.1,didier14,1
12131,CCCCCCCCCCCCCCO,1-Tetradecanol,421.1,didier14,1
12132,C=CCCCCCCCCCCCCCCCC,1-Octadecene,421.1,didier14,1
12133,,"Pentane,2,2,3,4-tetramethyl-",284.0,didier14,1
12134,CCN(CC)CC,Triethylamine,262.1,didier14,1
12135,CN(C)c1ccccc1,"N,N-Dimethylaniline",348.1,didier14,1
12136,,"Phenol,4-ethyl-",373.1,didier14,1
12137,CCCC(=O)CCC,4-Heptanone,307.1,didier14,1
12138,CCC=O,Propionaldehyde,243.2,didier14,1
12139,CC(C)CCO,"1-Butanol, 3-methyl-",316.0,didier14,1
12140,CCCC=O,Butyraldehyde,262.1,didier14,1
12141,CCCCOC(C)=O,Butyl acetate,298.1,didier14,1
12142,,"Octadecanoicacid, butyl ester",433.1,didier14,1
12143,CCCCCCC(C)O,2-Octanol,344.1,didier14,1
12144,CCCCCCCC(=O)O,Octanoic acid,400.1,didier14,1
12145,NCCCCCCN,"1,6-Hexanediamine",354.1,didier14,1
12146,C=CCCCCCCC,1-Nonene,299.1,didier14,1
12147,CCCCCCCC=O,Octanal,324.1,didier14,1
12148,CCCCCCCCCC,Decane,322.9,didier14,1
12149,CCCCCCCCC=O,1-Nonanal,336.1,didier14,1
12150,CNC,Dimethylamine,223.2,didier14,1
12151,,"3-Hexene,",248.2,didier14,1
12152,C=CCCCCCCCCCCCCC,1-Pentadecene,385.1,didier14,1
12153,,"2-Octene,",287.1,didier14,1
12154,CCc1ccccc1CC,"1,2-Diethylbenzene",330.4,didier14,1
12155,,"Benzene,",325.0,didier14,1
12156,CCC(C)CO,"1-Butanol, 2-methyl-",316.1,didier14,1
12157,CCC(C)N,sec-Butylamine,254.2,didier14,1
12158,CCOC(C)=O,Ethyl acetate,269.0,didier14,1
12159,CCc1cccc(CC)c1,"1,3-Diethylbenzene",329.0,didier14,1
12160,CCCCCC(=O)O,Hexanoic acid,375.1,didier14,1
12161,,N-Heptane,269.0,didier14,1
12162,CCCNCCC,Dipropylamine,280.6,didier14,1
12163,CCCCCCCCCCCC(=O)O,Lauric acid,437.0,didier14,1
12164,CCCCCCCCCO,1-Nonanol,369.1,didier14,1
12165,CCCCCCCCCOC(C)=O,NONYL ACETATE,372.1,didier14,1
12166,,"2-Heptene,",272.0,didier14,1
12167,,"3-Heptene,",267.1,didier14,1
12168,,"3-Octene,",290.0,didier14,1
12169,,"4-Octene,",285.6,didier14,1
12170,,"3-Octene,",287.1,didier14,1
12171,CCCCC(CC)C(=O)O,"Hexanoicacid, 2-ethyl-",383.1,didier14,1
12172,CCCOCC(C)O,1-PROPOXY-2-PROPANOL,321.1,didier14,1
12173,CCCCC(CC)CC,"Heptane, 3-ethyl-",296.1,didier14,1
12174,CCCCC(C)CCCC,"Nonane, 5-methyl-",312.0,didier14,1
12175,,"Propane,2-methoxy-2-methyl-",244.2,didier14,1
12176,CCCCCCCS,1-Heptanethiol,323.6,didier14,1
12177,CCC1CCCC1,"Cyclopentane, ethyl-",273.1,didier14,1
12178,,"Hexane,2,4,4-trimethyl-",283.1,didier14,1
12179,,"Pentane,2,3,3,4-tetramethyl-",294.1,didier14,1
12180,CCC1CCCCC1,"Cyclohexane, ethyl-",291.1,didier14,1
12181,CCCCC1CCCCC1,"Cyclohexane, butyl-",325.6,didier14,1
12182,CCCCCC(C)CCC,"Nonane, 4-methyl-",317.1,didier14,1
12183,,"Cyclohexane,1,2-dimethyl-,",288.1,didier14,1
12184,,"Cyclohexane,1,4-dimethyl-, trans-",284.3,didier14,1
12185,CCCCCC(C)CC,"Octane, 3-methyl-",298.6,didier14,1
12186,CCCCC(C)CCC,"Octane, 4-methyl-",296.1,didier14,1
12187,CCCOCCO,"Ethanol, 2-propoxy-",322.1,didier14,1
12188,CCCCCCC(C)C,"Octane, 2-methyl-",299.1,didier14,1
12189,CCCCCCCCCC(=O)O,Decanoic acid,421.1,didier14,1
12190,C=CC(C)CCC,"1-Hexene, 3-methyl-",267.1,didier14,1
12191,,"Hexane,2,2,5-trimethyl-",282.1,didier14,1
12192,,"Ethane,1,1'-[methylenebis",268.1,didier14,1
12193,Cc1ccc(C)c(C)c1C,"1,2,3,4-Tetramethylbenzene",347.1,didier14,1
12194,CCCCC(=O)CCCC,5-Nonanone,338.1,didier14,1
12195,,"Butanoic acid,3-methyl-",351.1,didier14,1
12196,CCCCOCC(C)O,1-Butoxy-2-propanol,332.1,didier14,1
12197,CC=C(C)C,"2-Butene, 2-methyl-",228.2,didier14,1
12198,,"1-Propanethiol,2-methyl-",264.1,didier14,1
12199,Cc1cccc(C)c1C,"1,2,3-Trimethylbenzene",324.1,didier14,1
12200,Cc1cccc(O)c1C,"2,3-Dimethylphenol",368.1,didier14,1
12201,CCCCCc1ccccc1,"Benzene, pentyl-",339.1,didier14,1
12202,,"Formic acid,2-methylpropyl ester",283.1,didier14,1
12203,CCCCCC(C)O,2-Heptanol,332.1,didier14,1
12204,CCCCCCl,"Pentane, 1-chloro-",284.1,didier14,1
12205,CCCCCCCCCCCCCCCC,Hexadecane,407.1,didier14,1
12206,,"Propanoic acid,2-methyl-, methyl ester",276.1,didier14,1
12207,,"Propanoic acid, methylester",271.0,didier14,1
12208,C=CC(C)(C)C,"1-Butene, 3,3-dimethyl-",241.2,didier14,1
12209,,"Pentane,2,3,3-trimethyl-",275.6,didier14,1
12210,C=CC(C)C,"1-Butene, 3-methyl-",217.2,didier14,1
12211,CC(C)=C(C)C,"2-Butene, 2,3-dimethyl-",257.1,didier14,1
12212,CC(=O)C(C)C,3-Methyl-2-butanone,272.1,didier14,1
12213,,"Pentane,2,2,3-trimethyl-",272.6,didier14,1
12214,CCC(C)C(C)=O,"2-Pentanone, 3-methyl-",285.1,didier14,1
12215,CCC(=O)C(C)C,"3-Pentanone, 2-methyl-",286.1,didier14,1
12216,,"Pentane,2,3,4-trimethyl-",277.1,didier14,1
12217,,"3-Pentanone,2,4-dimethyl-",288.1,didier14,1
12218,CCCCCCCCCCCCCCCCCC(=O)O,Stearic acid,469.0,didier14,1
12219,Cc1cccc(C)c1O,"2,6-Dimethylphenol",358.1,didier14,1
12220,CCC(C)C(C)CC,"Hexane, 3,4-dimethyl-",280.6,didier14,1
12221,CCC(O)CC,3-Pentanol,303.1,didier14,1
12222,CCC(C)CCO,"1-Pentanol, 3-methyl-",331.1,didier14,1
12223,CCC(C)CC(C)C,"Hexane, 2,4-dimethyl-",276.1,didier14,1
12224,CCCC(C)CCC,"Heptane, 4-methyl-",279.1,didier14,1
12225,CCCCC(C)CC,"Heptane, 3-methyl-",279.1,didier14,1
12226,,"Propanoic acid, butylester",313.1,didier14,1
12227,,gem-Dimethylcyclohexane,280.1,didier14,1
12228,CCCCCCC(C)CC,"Nonane, 3-methyl-",319.1,didier14,1
12229,CCCCC(C)=O,2-Hexanone,296.1,didier14,1
12230,C=CCOC(C)=O,Allyl acetate,283.0,didier14,1
12231,CC(C)CCC(C)C,"Hexane, 2,5-dimethyl-",275.1,didier14,1
12232,CCCCCC(C)C,"Heptane, 2-methyl-",279.1,didier14,1
12233,C=CCCCC,1-Hexene,247.2,didier14,1
12234,C=CCCCCC,1-Heptene,265.1,didier14,1
12235,CCC(C)(C)C(=O)O,"2,2-Dimethylbutyric acid",352.1,didier14,1
12236,CC(C)C(C)O,"2-Butanol, 3-methyl-",299.1,didier14,1
12237,CCOCC,Diethyl ether,228.2,didier14,1
12238,CCCC(C)O,2-Pentanol,307.1,didier14,1
12239,C=C(C)CCCC,"1-Hexene, 2-methyl-",267.1,didier14,1
12240,,"Benzene,1-ethyl-2-methyl-",316.1,didier14,1
12241,,"2-Pentene, 3-methyl-,",246.2,didier14,1
12242,,"Propane,2-methyl-2-",270.1,didier14,1
12243,CCCC(CC)CC,"Hexane, 3-ethyl-",278.0,didier14,1
12244,CCc1cccc(C)c1,m-Ethyltoluene,311.1,didier14,1
12245,,"Benzene,1-ethyl-4-methyl-",312.1,didier14,1
12246,,"Butanoicacid, methyl ester",287.0,didier14,1
12247,C[C@H]1CC[C@@H](C)CC1,"Cyclohexane, 1,4-dimethyl-, cis-",284.3,didier14,1
12248,,"Ethane,",258.1,didier14,1
12249,Nc1ccccc1,Aniline,344.1,didier14,1
12250,CCCCC(C)O,2-Hexanol,318.1,didier14,1
12251,,"Butane, 1-",291.1,didier14,1
12252,CCCOCC,"Propane, 1-ethoxy-",253.2,didier14,1
12253,CCCCCOC(C)=O,Amyl acetate,310.1,didier14,1
12254,CCCCCC#N,Hexanenitrile,316.1,didier14,1
12255,CCCCCCCCCCCCC,Tridecane,363.1,didier14,1
12256,CCCCCCCCCCCCCC,Tetradecane,382.4,didier14,1
12257,C=CCCCCCCCCCCCCCC,1-Hexadecene,402.1,didier14,1
12258,CCCCCCCCCCCCCCCCC,Heptadecane,421.1,didier14,1
12259,CCCCCCCCCCCCCCCCCCC,Nonadecane,441.0,didier14,1
12260,,"Cyclohexane,1,3-dimethyl-,",283.1,didier14,1
12261,CCO,Ethanol,286.1,didier14,1
12262,,Acetic acid glacial,312.0,didier14,1
12263,,"2-Heptene,",270.9,didier14,1
12264,,"2-Pentene,",228.0,didier14,1
12265,O=C(O)c1ccccc1,Benzoic acid,394.3,didier14,1
12266,CCCCCC=O,1-HEXANAL,300.0,didier14,1
12267,CC(C)O,Isopropanol,285.1,didier14,1
12268,CCCO,1-Propanol,297.6,didier14,1
12269,CCCCO,1-Butanol,310.5,didier14,1
12270,CCCCCO,1-Pentanol,322.1,didier14,1
12271,c1ccccc1,Benzene,262.0,didier14,1
12272,CCC(C)(C)C(C)(C)C,"Pentane, 2,2,3,3-tetramethyl-",294.6,didier14,1
12273,CCC(C)CC(C)(C)CC,"3,3,5-Trimethylheptane",304.0,didier14,1
12274,CSC,Dimethyl sulfide,237.2,didier14,1
12275,CC(C)Cl,2-Chloropropane,238.2,didier14,1
12276,CC(C)N,Isopropylamine,236.2,didier14,1
12277,CC(C)S,2-Propanethiol,239.0,didier14,1
12278,CC(Cl)Cl,"Ethane, 1,1-dichloro-",263.1,didier14,1
12279,CC(C)(C)O,tert-Butanol,284.3,didier14,1
12280,,"2-Propanethiol,2-methyl-",249.2,didier14,1
12281,CCC(C)(C)O,"2-Butanol, 2-methyl-",292.1,didier14,1
12282,CC(=O)C(C)(C)C,Pinacolone,282.1,didier14,1
12283,C=CC(C)CC,"1-Pentene, 3-methyl-",245.2,didier14,1
12284,,"2-Octene,",290.6,didier14,1
12285,,"4-Octene,",285.6,didier14,1
12286,CCC(C)(O)CC,"3-Pentanol, 3-methyl-",297.1,didier14,1
12287,COCC(C)OC,"1,2-Dimethoxypropane",273.1,didier14,1
12288,,"1-Propanamine,2-methyl-",260.1,didier14,1
12289,,"Propanenitrile,2-methyl-",281.5,didier14,1
12290,CC(C)CO,2-Methyl-1-propanol,302.3,didier14,1
12291,CCC(C)Cl,"Butane, 2-chloro-",258.1,didier14,1
12292,CCC(C)O,sec-Butanol,296.1,didier14,1
12293,COC(C)=O,Methyl acetate,260.1,didier14,1
12294,,"Propanoic acid,2-methyl-",333.1,didier14,1
12295,CCCCCCCC(C)=O,2-Nonanone,345.5,didier14,1
12296,c1ccc(-c2ccccc2-c2ccccc2)cc1,"1,1':2',1''-Terphenyl",436.0,didier14,1
12297,CCCCCCCC(C)C,"Nonane, 2-methyl-",314.0,didier14,1
12298,C=CCCCCCCCC,1-Decene,320.1,didier14,1
12299,CCc1ccccc1O,"Phenol, 2-ethyl-",358.1,didier14,1
12300,,"Benzenamine,N,N-diethyl-",358.1,didier14,1
12301,CCCCCCC(=O)CC,3-Nonanone,339.1,didier14,1
12302,CCCCCC(=O)CCCCC,6-Undecanone,361.5,didier14,1
12303,c1ccc(-c2ccc(-c3ccccc3)cc2)cc1,p-Terphenyl,480.0,didier14,1
12304,Cc1ccccc1C,"1,2-Dimethylbenzene",305.1,didier14,1
12305,,"Phenol,2-methyl-",354.0,didier14,1
12306,Cc1ccccc1N,"Benzenamine, 2-methyl-",358.1,didier14,1
12307,Cc1ccc(C)c(C)c1,"1,2,4-TRIMETHYL BENZENE",318.6,didier14,1
12308,,"Phenol,2,5-dimethyl-",368.1,didier14,1
12309,Cc1cc(C)c(C)cc1C,"1,2,4,5-Tetramethylbenzene",346.1,didier14,1
12310,CCC(=O)CC,3-Pentanone,280.1,didier14,1
12311,,"Propanoic acid,2-methyl-, ethyl ester",287.0,didier14,1
12312,CCC(CC)CO,2-Ethyl-1-butanol,326.1,didier14,1
12313,,"Benzene,",317.1,didier14,1
12314,,"Butane,2-methoxy-2-methyl-",262.1,didier14,1
12315,CN(C)c1ccc(C=O)cc1,p-DIMETHYLAMINOBENZALDEHYDE,420.1,didier14,1
12316,CC(C)c1ccc(C(C)C)cc1,p-DIISOPROPYLBENZENE,354.1,didier14,1
12317,CCCCCCCCC(C)CC,3-METHYLUNDECANE,344.0,didier14,1
12318,CCCCCCCCCCCCCCC(=O)O,n-PENTADECANOIC ACID,454.0,didier14,1
12319,CCN(CC)CCO,DIETHYLETHANOLAMINE,321.1,didier14,1
12320,C=Cc1ccccc1,STYRENE,305.0,didier14,1
12321,ClCc1ccccc1,BENZYL CHLORIDE,333.1,didier14,1
12322,NCc1ccccc1,BENZYLAMINE,333.1,didier14,1
12323,N#Cc1ccccc1,BENZONITRILE,344.1,didier14,1
12324,OCc1ccccc1,BENZYL ALCOHOL,366.1,didier14,1
12325,,sec-BUTENYL GLYCOL ETHER,328.0,didier14,1
12326,O=Cc1ccccc1,BENZALDEHYDE,335.1,didier14,1
12327,SCc1ccccc1,BENZYL MERCAPTAN,343.1,didier14,1
12328,N#Cc1cccnc1,NICOTINONITRILE,357.1,didier14,1
12329,COc1ccccc1,ANISOLE,325.1,didier14,1
12330,CSc1ccccc1,METHYL PHENYL SULFIDE,342.0,didier14,1
12331,C=Cc1cccc(C)c1,m-METHYLSTYRENE,324.1,didier14,1
12332,CC(C)(C)c1ccc(C(C)(C)C)cc1,"1,4-DI-tert-BUTYLBENZENE",361.0,didier14,1
12333,c1ccc(Cc2ccccc2)cc1,DIPHENYLMETHANE,403.1,didier14,1
12334,CCc1cc(CC)cc(CC)c1,"1,3,5-TRIETHYLBENZENE",354.1,didier14,1
12335,CCCN(CCC)CCC,TRIPROPYLAMINE,302.0,didier14,1
12336,C=CCN(CC=C)CC=C,TRIALLYLAMINE,304.0,didier14,1
12337,CCCCN(CCCC)CCCC,TRI-n-BUTYLAMINE,359.3,didier14,1
12338,CCCCC(CC)COC(C)=O,2-ETHYLHEXYL ACETATE,344.1,didier14,1
12339,C=CC(=O)OCC(CC)CCCC,2-ETHYLHEXYL ACRYLATE,355.1,didier14,1
12340,c1ccc(CCc2ccccc2)cc1,"1,2-DIPHENYLETHANE",402.0,didier14,1
12341,C(=C/c1ccccc1)\c1ccccc1,trans-STILBENE,418.0,didier14,1
12342,c1ccc(COCc2ccccc2)cc1,DIBENZYL ETHER,408.1,didier14,1
12343,CCOc1ccccc1,PHENETOLE,325.0,didier14,1
12344,CC=Cc1ccc(OC)cc1,ANETHOLE,362.1,didier14,1
12345,CCCCc1ccccc1,n-BUTYLBENZENE,323.1,didier14,1
12346,O=COCc1ccccc1,BENZYL FORMATE,355.0,didier14,1
12347,CCCCCCCCCCc1ccccc1,n-DECYLBENZENE,380.0,didier14,1
12348,CCCCCCCCCCCCC=O,TRIDECANAL,390.0,didier14,1
12349,Cc1ccc(C=O)cc1,p-TOLUALDEHYDE,353.0,didier14,1
12350,CCCCCCCCCC(C)CO,2-METHYL-1-UNDECANOL,392.0,didier14,1
12351,C=COC(=O)CC,VINYL PROPIONATE,274.0,didier14,1
12352,CCOC(=O)OCC,DIETHYL CARBONATE,298.1,didier14,1
12353,,DI-2-ETHYLHEXYLAMINE,405.0,didier14,1
12354,CCCC(=O)OC(=O)CCC,BUTYRIC ANHYDRIDE,355.0,didier14,1
12355,Cc1ccc(Cl)cc1,p-CHLOROTOLUENE,325.0,didier14,1
12356,CCCCCC(=O)CC,3-OCTANONE,316.1,didier14,1
12357,CCCC,n-BUTANE,199.2,didier14,1
12358,C=CCC,1-BUTENE,193.2,didier14,1
12359,C=CC=O,ACROLEIN,247.2,didier14,1
12360,C=CCCl,3-CHLOROPROPENE,241.2,didier14,1
12361,CCCN,n-PROPYLAMINE,261.0,didier14,1
12362,C=CCN,ALLYLAMINE,244.3,didier14,1
12363,C=CC#N,ACRYLONITRILE,273.1,didier14,1
12364,CC(C)(C)CCC(C)(C)C,"2,2,5,5-TETRAMETHYLHEXANE",289.0,didier14,1
12365,C=CCO,ALLYL ALCOHOL,294.0,didier14,1
12366,CC(C)CCCC(C)C,"2,6-DIMETHYLHEPTANE",299.0,didier14,1
12367,C=COC,METHYL VINYL ETHER,217.2,didier14,1
12368,CC=NO,ACETALDOXIME,313.1,didier14,1
12369,COC=O,METHYL FORMATE,254.0,didier14,1
12370,C=C(C)CC(C)(C)C,"2,4,4-TRIMETHYL-1-PENTENE",267.1,didier14,1
12371,CC(C)=CC(C)(C)C,"2,4,4-TRIMETHYL-2-PENTENE",272.1,didier14,1
12372,CCCc1ccccc1C,1-METHYL-2-n-PROPYLBENZENE,326.0,didier14,1
12373,CCCc1cccc(C)c1,1-METHYL-3-n-PROPYLBENZENE,325.0,didier14,1
12374,CCCc1ccc(C)cc1,1-METHYL-4-n-PROPYLBENZENE,326.0,didier14,1
12375,CC(C)(C)SC(C)(C)C,DI-tert-BUTYL SULFIDE,300.0,didier14,1
12376,CCCC(C)C,2-METHYLPENTANE,238.0,didier14,1
12377,C/C=C/C(=O)O,trans-CROTONIC ACID,368.0,didier14,1
12378,CN(C)CCO,DIMETHYLETHANOLAMINE,314.1,didier14,1
12379,C=COC(C)=O,VINYL ACETATE,265.0,didier14,1
12380,CC(C)CC(C)C,"2,4-DIMETHYLPENTANE",261.0,didier14,1
12381,CCCCCCCCCc1ccccc1,n-NONYLBENZENE,372.0,didier14,1
12382,CC(=O)OC(C)C,ISOPROPYL ACETATE,275.0,didier14,1
12383,C=C(C)OC(C)=O,1-METHYLVINYL ACETATE,283.0,didier14,1
12384,CC(=O)OC(C)=O,ACETIC ANHYDRIDE,322.6,didier14,1
12385,C=Cc1cccc(C=C)c1,m-DIVINYLBENZENE,338.0,didier14,1
12386,CCOC(=O)CC(C)C,ETHYL ISOVALERATE,298.1,didier14,1
12387,Cc1cc(C)cc(O)c1,"3,5-XYLENOL",373.0,didier14,1
12388,Cc1cc(C)nc(C)c1,"2,4,6-TRIMETHYLPYRIDINE",330.1,didier14,1
12389,CC(C)CC(O)CC(C)C,"2,6-DIMETHYL-4-HEPTANOL",339.0,didier14,1
12390,Clc1ccccc1,MONOCHLOROBENZENE,305.0,didier14,1
12391,Sc1ccccc1,PHENYL MERCAPTAN,346.1,didier14,1
12392,C=CCCC(C)=O,5-HEXEN-2-ONE,296.1,didier14,1
12393,CCCCN,n-BUTYLAMINE,261.0,didier14,1
12394,C=CCC#N,VINYLACETONITRILE,296.1,didier14,1
12395,C=COC=C,DIVINYL ETHER,226.2,didier14,1
12396,CCOC=O,ETHYL FORMATE,253.2,didier14,1
12397,CC(C)(C)SSC(C)(C)C,DI-tert-BUTYL DISULFIDE,337.1,didier14,1
12398,CN(C)CCN(C)C,TETRAMETHYLETHYLENEDIAMINE,283.1,didier14,1
12399,CCCCCCCCCCCCCC(=O)OC(C)C,ISOPROPYL MYRISTATE,423.0,didier14,1
12400,CCCCC#N,VALERONITRILE,305.0,didier14,1
12401,CCCOC=O,n-PROPYL FORMATE,270.0,didier14,1
12402,CCSC(C)O,ETHYLTHIOETHANOL,350.1,didier14,1
12403,CCSSCC,DIETHYL DISULFIDE,313.1,didier14,1
12404,CC(C)CNCC(C)C,DIISOBUTYLAMINE,294.1,didier14,1
12405,CCCOCCC,DI-n-PROPYL ETHER,294.1,didier14,1
12406,CCCSCCC,DI-n-PROPYL SULFIDE,301.0,didier14,1
12407,C=CC(C)C=C,"3-METHYL-1,4-PENTADIENE",235.0,didier14,1
12408,CCCCCCCCN(CCCCCCCC)CCCCCCCC,TRI-n-OCTYLAMINE,457.0,didier14,1
12409,CCCCCCCN,n-HEPTYLAMINE,308.1,didier14,1
12410,CCCCCCCO,1-HEPTANOL,345.0,didier14,1
12411,CCCCCCCCCCCC(=O)OC,METHYL DODECANOATE,391.0,didier14,1
12412,CCCCCCCCN,n-OCTYLAMINE,333.0,didier14,1
12413,CCCCCCCCS,n-OCTYL MERCAPTAN,341.1,didier14,1
12414,C=CCCCCCCCCCCCC,1-TETRADECENE,370.0,didier14,1
12415,CCCCCCCCNCCCCCCCC,DI-n-OCTYLAMINE,383.1,didier14,1
12416,CCCCCCCCC(=O)O,n-NONANOIC ACID,401.0,didier14,1
12417,CCCCCCCOC(C)=O,n-HEPTYL ACETATE,340.0,didier14,1
12418,CCCCCCCCCN,n-NONYLAMINE,335.1,didier14,1
12419,CCCCCCCOC=O,n-HEPTYL FORMATE,327.0,didier14,1
12420,CCCCCCCCCCC(=O)O,n-UNDECANOIC ACID,421.1,didier14,1
12421,CC(CO)c1ccccc1,2-PHENYL-1-PROPANOL,366.1,didier14,1
12422,CCCCCCCCCCCC,n-DODECANE,347.0,didier14,1
12423,CCCCCCOCCCCCC,DI-n-HEXYL ETHER,350.1,didier14,1
12424,CCCCCCCC/C=C\CCCCCCCC(=O)OC,METHYL OLEATE,450.0,didier14,1
12425,CCCCCCCCCCCCCO,1-TRIDECANOL,394.0,didier14,1
12426,CCCCCCCC/C=C\CCCCCCCC(=O)O,OLEIC ACID,462.0,didier14,1
12427,CCCCCCCCCCCCCCCCCCO,1-OCTADECANOL,450.0,didier14,1
12428,CCCCCCCCCCCCCCCCCCCC,n-EICOSANE,440.0,didier14,1
12429,C=C(C)C,ISOBUTENE,197.0,didier14,1
12430,CCC(C)C(=O)O,2-METHYLBUTYRIC ACID,348.0,didier14,1
12431,CC(C)(C)CCC(=O)O,NEOHEPTANOIC ACID,366.0,didier14,1
12432,Cc1ccccc1C(=O)O,o-TOLUIC ACID,407.0,didier14,1
12433,,cis-CROTONITRILE,285.0,didier14,1
12434,O=C(c1ccccc1)c1ccccc1,BENZOPHENONE,419.0,didier14,1
12435,O=C(OCc1ccccc1)c1ccccc1,BENZYL BENZOATE,418.1,didier14,1
12436,c1ccc(Nc2ccccc2)cc1,DIPHENYLAMINE,426.0,didier14,1
12437,OCCCc1ccccc1,3-PHENYL-1-PROPANOL,373.1,didier14,1
12438,CCCCCCCCCCCCc1ccccc1,n-DODECYLBENZENE,414.0,didier14,1
12439,CCCCCCCCCCCCCc1ccccc1,n-TRIDECYLBENZENE,438.0,didier14,1
12440,CCCCC(C=O)CC,2-ETHYLHEXANAL,317.1,didier14,1
12441,CC(C)CC(=O)CC(C)CC(C)C,"2,6,8-TRIMETHYL-4-NONANONE",356.0,didier14,1
12442,CCC(=O)OC(=O)CC,PROPIONIC ANHYDRIDE,336.0,didier14,1
12443,C/C=C/C=O,trans-CROTONALDEHYDE,281.1,didier14,1
12444,CC(=O)OCCC(C)C,ISOPENTYL ACETATE,298.1,didier14,1
12445,C=CCNCC=C,DIALLYLAMINE,284.1,didier14,1
12446,CCCCCCCCCCCCN,n-DODECYLAMINE,382.0,didier14,1
12447,C=C(C)C#N,METHACRYLONITRILE,286.0,didier14,1
12448,,CHLOROPRENE,244.6,didier14,1
12449,Cc1cc(C(C)(C)C)c(O)c(C(C)(C)C)c1,"2,6-DI-tert-BUTYL-p-CRESOL",390.1,didier14,1