,smiles,compound,flashpoint,source,pure substance
10159,Nc1ccc(C=Cc2ccc(Cl)cc2)cc1,"4-Stilbenamine, 4'-chloro-",467.15,le15,1
10160,CC(C)Nc1nc(Cl)nc(NC(C)C)n1,"1,3,5-Triazine-2,4-diamine, 6-chloro-N,N'-bis(1-methylethyl)-",452.55,le15,1
10161,CCNc1nc(Cl)nc(N(CC)CC)n1,"1,3,5-Triazine-2,4-diamine, 6-chloro-N,N,N'-triethyl-",453.25,le15,1
10162,FCCOC(Cl)C(Cl)(Cl)Cl,"Ether, 2-fluoroethyl (1,2,2,2-tetrachloro)ethyl",363.65,le15,1
10163,CC(C)(Br)C(=O)Br,2-bromo-2-methylpropanoyl bromide,376.15,le15,1
10164,Clc1cccc(C(Cl)(Cl)Cl)c1,1-chloro-3-(trichloromethyl)benzene,375.05,le15,1
10165,Clc1ccccc1C(Cl)(Cl)Cl,1-chloro-2-(trichloromethyl)benzene,371.45,le15,1
10166,ClCc1cc(Cl)c(Cl)cc1Cl,"1,2,4-trichloro-5-(chloromethyl)benzene",400.95,le15,1
10167,Clc1ccc(C(Cl)Cl)cc1Cl,"1,2-dichloro-4-(dichloromethyl)benzene",397.15,le15,1
10168,CCC(Br)C(C)Br,"2,3-dibromopentane",327.5499999999999,le15,1
10169,BrCCCCCBr,"Pentane, 1,5-dibromo-",367.85,le15,1
10170,O=C(Nc1ccc(Cl)c(Cl)c1)C1CC1,"Cyclopropanecarboxanilide, 3',4'-dichloro-",470.45,le15,1
10171,Clc1cccc(Cl)c1NC1=NCCN1,"1H-Imidazol-2-amine, N-(2,6-dichlorophenyl)-4,5-dihydro-",420.05,le15,1
10172,O=C(c1ccccc1)c1ccc(O)c(O)c1O,"Benzophenone, 2,3,4-trihydroxy- (8CI)",507.05,le15,1
10173,COc1c2ccoc2cc2oc(C)cc(=O)c12,"5H-Furo(3,2-g)(1)benzopyran-5-one, 4-methoxy-7-methyl-",455.65,le15,1
10174,O=C(O)Cc1ccc(-c2ccccc2F)cc1,"4-Biphenylacetic acid, 2'-fluoro-",457.85,le15,1
10175,O=C1c2ccccc2-c2cccc3cccc1c23,7H-Benz(de)anthracen-7-one,469.25,le15,1
10176,CC(=O)O.COP(=S)(OC)SCO,"Phosphorodithioic acid, S-hydroxymethyl O,O-dimethyl ester, acetate",383.05,le15,1
10177,O=Cc1ccc2ccc3cccc4ccc1c2c34,1-Pyrene carboxaldehyde,567.75,le15,1
10178,O=C1c2ccccc2-c2ccc3ccccc3c21,11H-Benzo(a)fluoren-11-one,467.05,le15,1
10179,c1ccc2c(c1)ncc1cnc3ccccc3c12,"Dibenzo(c,f)(2,7)naphthyridine",486.05,le15,1
10180,CCOP(=O)(CC)Sc1ccccc1,"Phosphonothioic acid, ethyl-, O-ethyl S-phenyl ester",416.65,le15,1
10181,O=C(C(Cl)Cl)C(Cl)(Cl)Cl,"2-Propanone, 1,1,1,3,3-pentachloro-",347.54999999999984,le15,1
10182,CC1NC(C(=O)O)Cc2c1[nH]c1ccccc21,"1H-Pyrido(3,4-b)indole-3-carboxylic acid, 2,3,4,9-tetrahydro-1-methyl-",522.05,le15,1
10183,CCOC(=O)CCC(=O)CCC(=O)OCC,"Heptanedioic acid, 4-oxo-, diethyl ester",410.55,le15,1
10184,CCOC(=O)N1CCN(C(=O)OCC)CC1,"diethyl piperazine-1,4-dicarboxylate",417.45,le15,1
10185,c1ccc(-c2ccccc2-c2ccccc2)cc1,"1,1':2',1''-Terphenyl",386.15,le15,1
10186,c1ccc(-c2cccc(-c3ccccc3)c2)cc1,"1,1':3',1''-Terphenyl",464.15,le15,1
10187,c1ccc(-c2ccc(-c3ccccc3)cc2)cc1,"1,1':4',1''-Terphenyl",480.15,le15,1
10188,CCCCOC(=O)CCC(=O)OCCCC,"Butanedioic acid, dibutyl ester",417.15,le15,1
10189,Cc1c(C(C)C)c(=O)n(-c2ccccc2)n1C,"3H-Pyrazol-3-one, 1,2-dihydro-1,5-dimethyl-4-(1-methylethyl)-2-phenyl-",396.95,le15,1
10190,CCC(C)OC(=O)CCC(=O)OC(C)CC,dibutan-2-yl butanedioate,382.95,le15,1
10191,O=C(O)CCCCCCCCCCC(=O)O,Dodecanedioic acid,493.15,le15,1
10192,CC(C)CCOC(=O)C(=O)OCCC(C)C,bis(3-methylbutyl) oxalate,387.45,le15,1
10193,CCOC(=O)C(CCC(C)C)C(=O)OCC,diethyl 2-(3-methylbutyl)propanedioate,382.95,le15,1
10194,COC(=O)CCCCCCCCC(=O)OC,"Sebacic acid, dimethyl ester (8CI)",418.15,le15,1
10195,NNC(=O)CCCCCCCCC(=O)NN,"Decanedioic acid, dihydrazide",538.55,le15,1
10196,CCOP(=S)(SCC)SCC,"Phosphorotrithioic acid, O,S,S-triethyl ester",400.85,le15,1
10197,CCCCCCCSCCCCCCC,1-heptylsulfanylheptane,422.05,le15,1
10198,O=C(Cl)c1c(F)c(F)c(F)c(F)c1F,"2,3,4,5,6-pentafluorobenzoyl chloride",322.85,le15,1
10199,O=C(Cl)c1cc([N+](=O)[O-])cc([N+](=O)[O-])c1,"Benzoyl chloride, 3,5-dinitro-",431.95,le15,1
10200,CC1=Nc2ccc(Cl)cc2S(=O)(=O)N1,"2H-1,2,4-Benzothiadiazine, 7-chloro-3-methyl-, 1,1-dioxide",477.85,le15,1
10201,Clc1cccc(C(Cl)(Cl)Cl)n1,"Pyridine, 2-chloro-6-(trichloromethyl)-",408.05,le15,1
10202,Nc1c(Cl)c(Cl)cc(Cl)c1Cl,"Benzenamine, 2,3,5,6-tetrachloro- (9CI)",407.85,le15,1
10203,O=C(Cl)OCCOCCOC(=O)Cl,2-(2-carbonochloridoyloxyethoxy)ethyl carbonochloridate,391.35,le15,1
10204,COc1cc(C=O)cc(Br)c1O,"Benzaldehyde, 3-bromo-4-hydroxy-5-methoxy-",402.05,le15,1
10205,ClCCOCCOCCOCCCl,"Ethane, 1,1'-oxybis(2-(2-chloroethoxy)- (9CI)",381.85,le15,1
10206,CC12CCC(C(Br)C1=O)C2(C)C,"Bicyclo(2.2.1)heptan-2-one, 3-bromo-1,7,7-trimethyl-",308.95,le15,1
10207,O=[N+]([O-])c1ccc2nc(C(F)(F)F)[nH]c2c1,"Benzimidazole, 5-nitro-2-(trifluoromethyl)-",446.65,le15,1
10208,Cc1cc(C(=O)NNCc2ccccc2)no1,"3-Isoxazolecarboxylic acid, 5-methyl-, 2-(phenylmethyl)hydrazide",465.55,le15,1
10209,CCNC(C)Cc1cccc(C(F)(F)F)c1,"Benzeneethanamine, N-ethyl-alpha-methyl-3-(trifluoromethyl)- (9CI)",373.95,le15,1
10210,c1ccc(-c2cccc(-c3ccccc3)n2)cc1,"Pyridine, 2,6-diphenyl-",439.55,le15,1
10211,CCN(CC)c1ccc2c(C)cc(=O)oc2c1,"2H-1-Benzopyran-2-one, 7-(diethylamino)-4-methyl-",425.15,le15,1
10212,NC(=S)NS(=O)(=O)c1ccc(N)cc1,"Benzenesulfonamide, 4-amino-N-(aminothioxomethyl)- (9CI)",503.55,le15,1
10213,Cc1c(N(C)C)c(=O)n(-c2ccccc2)n1C,"3H-Pyrazol-3-one, 4-(dimethylamino)-1,2-dihydro-1,5-dimethyl-2-phenyl-",399.05,le15,1
10214,CCO[Si](CCCC#N)(OCC)OCC,"Butanenitrile, 4-(triethoxysilyl)-",388.85,le15,1
10215,Nc1ccccc1C(=O)c1ccc(Cl)cc1,2-Amino-4'-chlorobenzophenone,480.85,le15,1
10216,Oc1c(Cl)cc(Cl)c(Cl)c1Cl,"Phenol, 2,3,4,6-tetrachloro-",388.85,le15,1
10217,Oc1c(Cl)c(Cl)cc(Cl)c1Cl,"Phenol, 2,3,5,6-tetrachloro-",384.85,le15,1
10218,Oc1cc(Cl)c(Cl)c(Cl)c1Cl,"Phenol, 2,3,4,5-tetrachloro-",401.95,le15,1
10219,O=C(CF)Nc1ccc(Br)cc1,"Acetamide, N-(4-bromophenyl)-2-fluoro- (9CI)",447.45,le15,1
10220,Cc1cccc(C)c1I,"2-iodo-1,3-dimethylbenzene",375.15,le15,1
10221,OCC(F)(F)C(F)(F)C(F)(F)C(F)F,"2,2,3,3,4,4,5,5-octafluoropentan-1-ol",348.75,le15,1
10222,Cc1ccc(N(CCCl)CCCl)cc1,"Benzenamine, N,N-bis(2-chloroethyl)-4-methyl- (9CI)",430.65,le15,1
10223,C=C1CC(=O)N(c2cccc([N+](=O)[O-])c2)C1=O,"Succinimide, 2-methylene-N-(m-nitrophenyl)-",479.35,le15,1
10224,CN(C)C(=O)Nc1cccc(C(F)(F)F)c1,"Urea, 1,1-dimethyl-3-(alpha,alpha,alpha-trifluoro-m-tolyl)-",423.15,le15,1
10225,O=c1ccc2ccc3c(=O)ccc4ccc1c2c43,"1,6-Pyrenequinone",450.95,le15,1
10226,O=c1ccc2ccc3ccc(=O)c4ccc1c2c34,"1,8-Pyrenequinone",450.95,le15,1
10227,CCC1(c2ccccc2)C(=O)NC(=O)NC1=O,"2,4,6(1H,3H,5H)-Pyrimidinetrione, 5-ethyl-5-phenyl-",284.15,le15,1
10228,CCC1(c2ccc(N)cc2)CCC(=O)NC1=O,"2,6-Piperidinedione, 3-(4-aminophenyl)-3-ethyl-",503.55,le15,1
10229,COc1ccc2[nH]cc(CCNC(C)=O)c2c1,"Acetamide, N-(2-(5-methoxy-1H-indol-3-yl)ethyl)- (9CI)",537.15,le15,1
10230,CCP(=S)(OC)Sc1ccccc1,"Phosphonodithioic acid, ethyl-, O-methyl S-phenyl ester",413.05,le15,1
10231,CC1CCCCC1NC(=O)Nc1ccccc1,"Urea, N-(2-methylcyclohexyl)-N'-phenyl- (9CI)",394.65,le15,1
10232,COP(=S)(OC)SCCSC,"Phosphorodithioic acid, O,O-dimethyl S-2-(methylthio)ethyl ester",397.05,le15,1
10233,O=c1n(Cl)c(=O)n(Cl)c(=O)n1Cl,"1,3,5-Triazine-2,4,6(1H,3H,5H)-trione, 1,3,5-trichloro-",498.15,le15,1
10234,C=C[Si](OC(C)C)(OC(C)C)OC(C)C,ethenyl-tri(propan-2-yloxy)silane,359.75,le15,1
10235,CCCCCCCCCCCc1ccccc1,Undecylbenzene,417.0,le15,1
10236,O=C1OC(=O)c2ccc(Cl)c3cccc1c23,"1H,3H-Naphtho(1,8-cd)pyran-1,3-dione, 6-chloro-",481.45,le15,1
10237,ClC(COCC(Cl)c1ccccc1-c1ccccc1)c1ccccc1-c1ccccc1,2biphenylyl2chloroethylether,433.15,le15,1
10238,CCCCCCCCCCCCCCCl,1-chlorotetradecane,403.15,le15,1
10239,FC(F)(F)/C(Cl)=C(\Cl)C(F)(F)F,"(E)-2,3-dichloro-1,1,1,4,4,4-hexafluorobut-2-ene",276.35,le15,1
10240,C=CP(=O)(OCCCl)OCCCl,"Phosphonic acid, ethenyl-, bis(2-chloroethyl) ester",438.65,le15,1
10241,Nc1c(F)c(F)c(C(F)(F)F)c(F)c1F,"2,3,5,6-Tetrafluoro-4-aminobenzotrifluoride",341.0499999999999,le15,1
10242,Brc1ccc2c3c(cccc13)CC2,"5-bromo-1,2-dihydroacenaphthylene",435.45,le15,1
10243,Brc1ccccc1-c1ccccc1,1-bromo-2-phenylbenzene,406.85,le15,1
10244,Brc1cccc(-c2ccccc2)c1,"1,1'-Biphenyl, 3-bromo-",408.75,le15,1
10245,CN(C)C(=O)Nc1ccc(Cl)c(Cl)c1,"Urea, N'-(3,4-dichlorophenyl)-N,N-dimethyl-",459.85,le15,1
10246,Nc1ncc(C=Cc2ccc([N+](=O)[O-])o2)nn1,"1,2,4-Triazin-3-amine, 6-(2-(5-nitro-2-furanyl)ethenyl)- (9CI)",525.95,le15,1
10247,c1ccc(-c2cccc(-c3ccccn3)n2)nc1,"2,2':6',2''-Terpyridine",455.65,le15,1
10248,COC(=O)C(c1ccccc1)C1CCCCN1,"2-Piperidineacetic acid, alpha-phenyl-, methyl ester",425.15,le15,1
10249,CC(=O)Nc1ccc(S(=O)(=O)Cl)cc1,"Sulfanilyl chloride, N-acetyl- (6CI,7CI,8CI)",485.05,le15,1
10250,COc1ccccc1I,1-iodo-2-methoxybenzene,371.65,le15,1
10251,OCc1ccccc1I,"Benzenemethanol, 2-iodo-",401.35,le15,1
10252,COc1ccc(I)cc1,1-iodo-4-methoxybenzene,368.25,le15,1
10253,Oc1c(F)c(F)c(C(F)(F)F)c(F)c1F,"2,3,5,6-Tetrafluoro-4-(trifluoromethyl)phenol",326.15,le15,1
10254,CNC(=O)OCc1ccc(Cl)c(Cl)c1,"Carbamic acid, N-methyl-, 3,4-dichlorobenzyl ester",439.35,le15,1
10255,O=C(O)CC(C(=O)O)C(CC(=O)O)C(=O)O,"1,2,3,4-Butanetetracarboxylic acid",415.85,le15,1
10256,Nc1nc2ccc(OC(F)(F)F)cc2s1,"2-Benzothiazolamine, 6-(trifluoromethoxy)-",406.15,le15,1
10257,COC(=O)CC(O)(CC(=O)OC)C(=O)OC,"trimethyl 2-hydroxypropane-1,2,3-tricarboxylate",352.35,le15,1
10258,CC(=O)O.CC(=O)O.OCCOCCOCCO,"Ethanol, 2,2'-(1,2-ethanediylbis(oxy))bis-, diacetate",447.15,le15,1
10259,CC(C)OC(=O)C(O)C(O)C(=O)OC(C)C,"Tartaric acid, diisopropyl ester",382.55,le15,1
10260,O=C(O)C(O)(c1ccccc1)C1CCCCC1,"Benzeneacetic acid, alpha-cyclohexyl-alpha-hydroxy- (9CI)",488.25,le15,1
10261,c1ccc2c(c1)ccc1sc3ccccc3c12,"Benzo(b)naphtho(1,2-d)thiophene",436.15,le15,1
10262,c1ccc2c(c1)ccc1c3ccccc3sc21,"Benzo(b)naphtho(2,1-d)thiophene (8CI)(9CI)",436.15,le15,1
10263,O=c1[nH]c2c(c(=O)n1C1CCCCC1)CCC2,"1H-Cyclopentapyrimidine-2,4(3H,5H)-dione, 6,7-dihydro-3-cyclohexyl-",475.55,le15,1
10264,Cc1cccc2c1ccc1cc(C(C)C)ccc12,"Phenanthrene, 7-isopropyl-1-methyl- (8CI)",450.962,le15,1
10265,C=CC(=O)OCCC[Si](OC)(OC)OC,"2-Propenoic acid, 3-(trimethoxysilyl)propyl ester",355.45,le15,1
10266,CCN(CC)CC(=O)Nc1c(C)cccc1C,"Acetamide, 2-(diethylamino)-N-(2,6-dimethylphenyl)-",439.15,le15,1
10267,CCC(C)(C)c1ccc(O)c(C(C)(C)CC)c1,"Phenol, 2,4-bis(1,1-dimethylpropyl)-",416.15,le15,1
10268,CCc1cc(C(C)(C)C)c(O)c(C(C)(C)C)c1,"Phenol, 2,6-di-tert-butyl-4-ethyl- (8CI)",378.15,le15,1
10269,CCCCP(=S)(CCCC)CCCC,"Phosphine sulfide, tributyl-",409.65,le15,1
10270,C1CCN2CC3CC(CN4CCCCC34)C2C1,"7,14-Methano-2H,6H-dipyrido(1,2-a:1',2'-e)(1,5)diazocine, dodecahydro-",421.45,le15,1
10271,CCCCC[Si](OCC)(OCC)OCC,"Silane, pentyltriethoxy-",351.04999999999984,le15,1
10272,CC(Oc1ccc(Cl)cc1Cl)C(=O)O,"Propanoic acid, 2-(2,4-dichlorophenoxy)-",437.65,le15,1
10273,COC(=O)COc1ccc(Cl)cc1Cl,"Acetic acid, (2,4-dichlorophenoxy)-, methyl ester",397.25,le15,1
10274,Nc1ncnc2c1ncn2[C@H]1CC[C@@H](CO)O1,"Adenosine, 2',3'-dideoxy-",553.05,le15,1
10275,CC1=C(C(=O)Nc2ccccc2)SCCO1,"1,4-Oxathiin-3-carboxamide, 5,6-dihydro-2-methyl-N-phenyl-",481.35,le15,1
10276,CNC(=O)Oc1cc(C(C)C)cc(C(C)C)c1,"Carbamic acid, methyl-, 3,5-diisopropylphenyl ester",406.95,le15,1
10277,CCN(CC)CCNC(=O)c1ccc(N)cc1,"Benzamide, 4-amino-N-(2-(diethylamino)ethyl)- (9CI)",482.05,le15,1
10278,Fc1c(Cl)c(F)c(Cl)c(F)c1Cl,"1,3,5-trichloro-2,4,6-trifluorobenzene",375.35,le15,1
10279,CCO[Si](CCCCN)(OCC)OCC,"Butylamine, 4-(triethoxysilyl)-",378.25,le15,1
10280,Cc1ccc([N+](=O)[O-])cc1S(=O)(=O)Cl,"Benzenesulfonyl chloride, 2-methyl-5-nitro- (9CI)",450.25,le15,1
10281,Brc1ccc(Br)cc1,"Benzene, 1,4-dibromo-",362.45,le15,1
10282,Brc1ccccc1Br,"Benzene, o-dibromo- (8CI)",368.65,le15,1
10283,O=[N+]([O-])c1cc(Br)cc(F)c1O,2-Fluoro-4-bromo-6-nitrophenol,372.95,le15,1
10284,O=C(O)c1cc(Cl)cc([N+](=O)[O-])c1Cl,"Benzoic acid, 2,5-dichloro-3-nitro-",448.65,le15,1
10285,OC(C(F)(F)F)(C(F)(F)F)C(F)(F)F,"1,1,1,3,3,3-hexafluoro-2-(trifluoromethyl)propan-2-ol",278.25,le15,1
10286,Fc1c(F)c(F)c(C(F)(F)F)c(F)c1F,"1,2,3,4,5-pentafluoro-6-(trifluoromethyl)benzene",293.15,le15,1
10287,CCc1ccc2c(c1)C(=O)c1ccccc1C2=O,"9,10-Anthracenedione, 2-ethyl-",428.55,le15,1
10288,NC(=O)N1c2ccccc2C=Cc2ccccc21,"5H-Dibenz(b,f)azepine-5-carboxamide",475.55,le15,1
10289,ClCC(Br)CBr,"Propane, 1,2-dibromo-3-chloro-",350.15,le15,1
10290,CCN(CC)CCOC(=O)c1ccc(N)cc1,"Benzoic acid, 4-amino-, 2-(diethylamino)ethyl ester",452.95,le15,1
10291,CO[Si](CCCOCC1CO1)(OC)OC,"Silane, trimethoxy(3-(oxiranylmethoxy)propyl)-",355.04999999999984,le15,1
10292,CC1(C)CC(C)(c2ccccc2)c2ccccc21,"1,1,3-trimethyl-3-phenyl-2H-indene",429.65,le15,1
10293,CC(C)(C)c1cc(CO)cc(C(C)(C)C)c1O,"Benzenemethanol, 3,5-bis(1,1-dimethylethyl)-4-hydroxy-",404.35,le15,1
10294,C1CN(SSN2CCOCC2)CCO1,Di(morpholin-4-yl) disulphide,427.15,le15,1
10295,C1CCC(CCCCCC2CCCCC2)CC1,5-cyclohexylpentylcyclohexane,412.35,le15,1
10296,C[Si](C)(C)O[Si](C)(C)O[Si](C)(C)C,"Trisiloxane, 1,1,1,3,3,5,5,5-octamethyl-",302.15,le15,1
10297,ClC(Cl)(Cl)C(Cl)(Cl)Cl,"Ethane, hexachloro-",334.45,le15,1
10298,C#CC(C)N(C)C(=O)Nc1ccc(Cl)cc1,"Urea, 3-(p-chlorophenyl)-1-methyl-1-(1-methyl-2-propynyl)-",465.75,le15,1
10299,Brc1cncc(Br)c1,"3,5-dibromopyridine",357.45,le15,1
10300,O=[N+]([O-])c1cc([N+](=O)[O-])c(Cl)cc1Cl,"Benzene, 1,5-dichloro-2,4-dinitro-",431.15,le15,1
10301,O=[N+]([O-])c1cc(Cl)c(Cl)cc1[N+](=O)[O-],"Benzene, 1,2-dichloro-4,5-dinitro-",440.05,le15,1
10302,Clc1ccc2oc3ccc(Cl)cc3c2c1,"Dibenzofuran, 2,8-dichloro- (8CI)(9CI)",442.45,le15,1
10303,Clc1ccc(Cc2ccc(Cl)cc2)cc1,"Benzene, 1,1'-methylenebis(4-chloro-",412.95,le15,1
10304,Cc1ccc2c(c1N)C(=O)c1ccccc1C2=O,"9,10-Anthracenedione, 1-amino-2-methyl-",517.95,le15,1
10305,CC(=O)Nc1ccc2c(c1)C(=O)c1ccccc1-2,"Acetamide, N-(9-oxo-9H-fluoren-2-yl)- (9CI)",490.15,le15,1
10306,CCOc1cc(NC(C)=O)ccc1C(=O)OC,"Benzoic acid, 4-(acetylamino)-2-ethoxy-, methyl ester",484.65,le15,1
10307,CNC(=O)Oc1ccccc1C1OCC(C)O1,"Carbamic acid, methyl-, o-(4-methyl-1,3-dioxolan-2-yl)phenyl ester",424.75,le15,1
10308,NC(=O)C1c2ccccc2CCc2ccccc21,"5H-Dibenzo(a,d)cycloheptene-5-carboxamide, 10,11-dihydro-",492.35,le15,1
10309,FC(F)(F)C(Cl)(Cl)C(F)(F)Cl,"Propane, 1,2,2-trichloropentafluoro-",277.54999999999995,le15,1
10310,FC(F)(F)C(F)(F)C(Cl)(Cl)Cl,"1,1,1-trichloro-2,2,3,3,3-pentafluoropropane",276.15,le15,1
10311,CC1=NOC(=O)C1=NNc1ccccc1Cl,"4,5-Isoxazoledione, 3-methyl-, 4-((o-chlorophenyl)hydrazone)",421.55,le15,1
10312,FC(F)(F)C(F)(F)C(F)(F)C(F)(F)F,"1,1,1,2,2,3,3,4,4,4-decafluorobutane",277.35,le15,1
10313,Nc1cccc2c1C(=O)c1cccc(N)c1C2=O,"9,10-Anthracenedione, 1,5-diamino-",560.75,le15,1
10314,Nc1ccc2c(c1)C(=O)c1ccc(N)cc1C2=O,"9,10-Anthracenedione, 2,6-diamino-",560.75,le15,1
10315,Nc1ccc(N)c2c1C(=O)c1ccccc1C2=O,"9,10-Anthracenedione, 1,4-diamino-",556.05,le15,1
10316,Nc1ccc2c(c1N)C(=O)c1ccccc1C2=O,"9,10-Anthracenedione, 1,2-diamino-",558.8499999999998,le15,1
10317,O=C(C=Cc1ccccc1)OCc1ccccc1,"2-Propenoic acid, 3-phenyl-, phenylmethyl ester",498.85,le15,1
10318,COc1ccc(C(=O)C=Cc2ccccc2)cc1,"2-Propen-1-one, 1-(4-methoxyphenyl)-3-phenyl-",453.65,le15,1
10319,O=C(OCC=Cc1ccccc1)c1ccccc1,"2-Propen-1-ol, 3-phenyl-, benzoate",449.25,le15,1
10320,CCCCOCCOc1ccccc1C(=O)[O-],2butoxyethylsalicylate,430.35,le15,1
10321,Cc1nc(NCc2ccccc2)c2cc[nH]c2n1,"7H-Pyrrolo(2,3-d)pyrimidin-4-amine, 2-methyl-N-(phenylmethyl)-",458.45,le15,1
10322,O=C(CCc1ccccc1)CCc1ccccc1,"1,5-diphenylpentan-3-one",426.85,le15,1
10323,CC1=C[C@@H]2c3cccc4[nH]cc(c34)C[C@H]2N(C)C1,"Ergoline, 8,9-didehydro-6,8-dimethyl-",482.45,le15,1
10324,CC(C)(c1ccccc1)C(C)(C)c1ccccc1,"(2,3-dimethyl-3-phenylbutan-2-yl)benzene",415.85,le15,1
10325,Clc1cccc(I)c1,1-chloro-3-iodobenzene,374.85,le15,1
10326,Clc1ccc(I)cc1,"Benzene, 1-chloro-4-iodo-",381.15,le15,1
10327,Clc1ccccc1I,1-chloro-2-iodobenzene,384.85,le15,1
10328,CC1CCCCCCCCCCCCC(=O)C1,3-Methylcyclopentadecan-1-one,418.45,le15,1
10329,CCCC/C=C\CCCCCCCCCC=O,"11-Hexadecenal, (11Z)-",334.25,le15,1
10330,CCCCCCCCCCCCC1CCCC1,dodecylcyclopentane,408.95,le15,1
10331,CCCCCCCCS(=O)CCCCl,"Octane, 1-((3-chloropropyl)sulfinyl)- (9CI)",450.25,le15,1
10332,O=C(Cl)c1cccc(S(=O)(=O)Cl)c1,"Benzoyl chloride, m-(chlorosulfonyl)- (7CI,8CI)",434.95,le15,1
10333,O=C(Cl)CCCCCCCCC(=O)Cl,Sebacoyl chloride (8CI),424.55,le15,1
10334,COC(=O)c1ccc(C(=O)OC)c([N+](=O)[O-])c1,"1,4-Benzenedicarboxylic acid, 2-nitro-, dimethyl ester",433.35,le15,1
10335,Nc1ccc(O)c2c1C(=O)c1ccccc1C2=O,"9,10-Anthracenedione, 1-amino-4-hydroxy-",535.8499999999998,le15,1
10336,COc1ccc(CC(N)C(=O)O)cc1C(=O)O,"Hydrocinnamic acid, alpha-amino-3-carboxy-4-methoxy-, DL-",508.65,le15,1
10337,CC(=O)N(O)c1ccc2c(c1)Cc1ccccc1-2,"Acetamide, N-9H-fluoren-2-yl-N-hydroxy- (9CI)",502.15,le15,1
10338,CC(=O)Nc1ccc2c(c1)Cc1cc(O)ccc1-2,"Acetamide, N-(7-hydroxyfluoren-2-yl)- (8CI)",553.05,le15,1
10339,CC(=O)Nc1ccc2c(c1)Cc1cccc(O)c1-2,"Acetamide, N-(5-hydroxy-9H-fluoren-2-yl)-",553.05,le15,1
10340,CC(=O)Nc1cc2c(cc1O)-c1ccccc1C2,"Acetamide, N-(3-hydroxy-9H-fluoren-2-yl)- (9CI)",523.55,le15,1
10341,CC(=O)Nc1ccc2c(c1O)Cc1ccccc1-2,"Acetamide, N-(1-hydroxy-9H-fluoren-2-yl)- (9CI)",513.45,le15,1
10342,CNC(=O)Oc1ccccc1C1OCCS1,"Carbamic acid, methyl-, o-(1,3-oxathiolan-2-yl)phenyl ester",449.25,le15,1
10343,CN(C)C(=O)C(c1ccccc1)c1ccccc1,"Benzeneacetamide, N,N-dimethyl-alpha-phenyl- (9CI)",446.45,le15,1
10344,Cc1cc(N(C)C)ccc1N=Nc1ccccc1,"Benzenamine, N,N,3-trimethyl-4-(phenylazo)- (9CI)",463.35,le15,1
10345,Cc1ccccc1NC(=N)Nc1ccccc1C,"Guanidine, N,N'-bis(2-methylphenyl)-",466.45,le15,1
10346,Cc1ccccc1N=Nc1ccc(N(C)C)cc1,"Benzenamine, N,N-dimethyl-4-((2-methylphenyl)azo)- (9CI)",463.35,le15,1
10347,CCN(CC)c1nc(NC(C)C)nc(OC)n1,"1,3,5-Triazine-2,4-diamine, N,N-diethyl-6-methoxy-N'-(1-methylethyl)-",449.25,le15,1
10348,O=C(O)Cc1c(Cl)ccc(Cl)c1Cl,"Acetic acid, (2,3,6-trichlorophenyl)-",440.75,le15,1
10349,Cl[Si](Cl)(Cl)CCc1ccccc1,"Silane, trichloro(2-phenylethyl)-",390.95,le15,1
10350,CC(C)SSC(Cl)C(Cl)Cl,"Disulfide, isopropyl 1,2,2-trichloroethyl",368.15,le15,1
10351,CC1(C)CON(Cc2ccccc2Cl)C1=O,"3-Isoxazolidinone, 2-((2-chlorophenyl)methyl)-4,4-dimethyl-",419.05,le15,1
10352,O=C(OC(=O)C(Cl)Cl)C(Cl)Cl,"Acetic acid, dichloro-, anhydride",363.75,le15,1
10353,ClCC1COC(C(Cl)(Cl)Cl)O1,"1,3-Dioxolane, 4-chloromethyl-2-(trichloromethyl)-",380.15,le15,1
10354,CCCCCCCCI,1-iodooctane,368.15,le15,1
10355,O=[N+]([O-])O.O=[N+]([O-])O.OCCOCCOCCO,"Ethanol, 2,2'-(1,2-ethanediylbis(oxy))bis-, dinitrate",420.05,le15,1
10356,O=C1c2ccccc2C(=O)c2c1ccc(O)c2O,"9,10-Anthracenedione, 1,2-dihydroxy-",501.15,le15,1
10357,O=C1c2ccccc2C(=O)c2c(O)ccc(O)c21,"9,10-Anthracenedione, 1,4-dihydroxy-",495.15,le15,1
10358,O=C1c2ccc(O)cc2C(=O)c2ccc(O)cc21,"9,10-Anthracenedione, 2,6-dihydroxy-",508.45,le15,1
10359,O=C1c2cccc(O)c2C(=O)c2c(O)cccc21,"9,10-Anthracenedione, 1,8-dihydroxy-",514.8499999999998,le15,1
10360,O=C1c2cccc(O)c2C(=O)c2cccc(O)c21,"9,10-Anthracenedione, 1,5-dihydroxy-",514.8499999999998,le15,1
10361,O=C1c2ccccc2C(=O)c2c(O)cc(O)cc21,"9,10-Anthracenedione, 1,3-dihydroxy- (9CI)",552.15,le15,1
10362,CC(C)(C)c1cc([N+](=O)[O-])cc([N+](=O)[O-])c1O,"Phenol, 2-(1,1-dimethylethyl)-4,6-dinitro- (9CI)",398.15,le15,1
10363,CC(C)(C)c1cc([N+](=O)[O-])c(O)c([N+](=O)[O-])c1,"Phenol, 4-(1,1-dimethylethyl)-2,6-dinitro-",382.45,le15,1
10364,COC(=O)c1ccccc1C(=O)c1ccccc1,"Benzoic acid, o-benzoyl-, methyl ester (8CI)",427.55,le15,1
10365,Cc1ccc(C(=O)c2ccccc2)c(C(=O)O)c1,"Benzoic acid, 6-benzoyl-3-methyl- (9CI)",517.55,le15,1
10366,NC1=C2C(=O)c3ccccc3C(=O)C2=C(N)CC1,"Anthraquinone, 1,4-diamino-2,3-dihydro- (8CI)",453.85,le15,1
10367,Nc1ccc(C=Cc2ccc([N+](=O)[O-])cc2)cc1,"Benzenamine, 4-(2-(4-nitrophenyl)ethenyl)-",477.85,le15,1
10368,CCOP(=O)(OCC)OC(C)=CSC,"Phosphoric acid, diethyl 1-methyl-2-(methylthio)ethenyl ester (9CI)",389.55,le15,1
10369,c1ccc2c(c1)cc1c3c2ccc2cccc(c23)C1,4H-Cyclopenta(def)chrysene,502.65,le15,1
10370,O=C(Cc1ccccc1)OCCc1ccccc1,"Benzeneacetic acid, 2-phenylethyl ester",418.95,le15,1
10371,c1ccc(Cc2ccccc2OCC2CO2)cc1,"Propane, 1,2-epoxy-3-((alpha-phenyl-o-tolyl)oxy)- (7CI,8CI)",418.05,le15,1
10372,c1ccc(Cc2ccc(OCC3CO3)cc2)cc1,"Propane, 1,2-epoxy-3-((alpha-phenyl-p-tolyl)oxy)- (7CI,8CI)",424.55,le15,1
10373,CN(C(=O)N(C)c1ccccc1)c1ccccc1,"1,3-dimethyl-1,3-diphenylurea",415.75,le15,1
10374,O=C(Cc1ccccc1)NNCc1ccccc1,"Acetic acid, phenyl-, 2-benzylhydrazide",416.75,le15,1
10375,C=CCC(CC=C)(C(=O)OCC)C(=O)OCC,"diethyl 2,2-bis(prop-2-enyl)propanedioate",379.878,le15,1
10376,Cc1cc(N=Nc2ccccc2C)c(N)cc1N,"Toluene-2,4-diamine, 5-(o-tolylazo)- (8CI)",510.75,le15,1
10377,Cc1ccc2nc(-c3ccc(N)cc3)sc2c1,"Benzenamine, 4-(6-methyl-2-benzothiazolyl)-",490.45,le15,1