,smiles,compound,flashpoint,source,pure substance
7814,CC(C)C(=O)OC(=O)C(C)C,2-methylpropanoyl 2-methylpropanoate,332.5499999999999,le15,1
7815,CCCC(=O)OC(=O)CCC,"Butanoic acid, anhydride",355.15,le15,1
7816,Nc1cccc2cccc(N)c12,"1,8-Naphthalenediamine",471.85,le15,1
7817,Cn1cccc1-c1cccnc1,3-(1-methylpyrrol-2-yl)pyridine,397.95,le15,1
7818,CCCCOC(=O)CC(C)=O,"Butanoic acid, 3-oxo-, butyl ester",352.75,le15,1
7819,CCOC(=O)C(C)(C)C(C)=O,"ethyl 2,2-dimethyl-3-oxobutanoate",386.85,le15,1
7820,CCOC(=O)C(CC)C(C)=O,ethyl 2-ethyl-3-oxobutanoate,348.85,le15,1
7821,CCC(=O)OCC1CCCO1,oxolan-2-ylmethyl propanoate,365.15,le15,1
7822,C=COCCOCCOC=C,"Ethene, 1,1'-(oxybis(2,1-ethanediyloxy))bis-",335.35,le15,1
7823,Cc1ccn(-c2ccccc2)n1,3-methyl-1-phenylpyrazole,381.15,le15,1
7824,CC(=O)CC(=O)OC(C)(C)C,tert-butyl 3-oxobutanoate,339.65,le15,1
7825,Nc1ccc(N)c2ccccc12,"Naphthalene-1,4-diamine",484.65,le15,1
7826,CCCC(=O)CC(=O)OCC,"Hexanoic acid, 3-oxo-, ethyl ester",351.45,le15,1
7827,Cc1cc(-c2ccccc2)[nH]n1,"1H-Pyrazole, 3-methyl-5-phenyl- (9CI)",429.35,le15,1
7828,Cc1cc(N)c2ccccc2n1,2-methylquinolin-4-amine,451.15,le15,1
7829,CC(C=O)CCC(C)(O)C=O,"Hexanedial, 2-hydroxy-2,5-dimethyl- (9CI)",388.15,le15,1
7830,CCOC(=O)CC(=O)C(C)C,ethyl 4-methyl-3-oxopentanoate,317.15,le15,1
7831,CC1(COCC2(C)CO2)CO1,"Oxirane, 2,2'-(oxybis(methylene))bis(2-methyl- (9CI)",343.25,le15,1
7832,CC(=O)CCC(=O)OC(C)C,propan-2-yl 4-oxopentanoate,357.54999999999984,le15,1
7833,Nc1cc2ccccc2cc1N,"2,3-Naphthalenediamine",485.45,le15,1
7834,Nc1cccc2c(N)cccc12,"1,5-Naphthalenediamine",493.35,le15,1
7835,C=C(C)C(=O)OCCOCC,"2-Propenoic acid, 2-methyl-, 2-ethoxyethyl ester",344.85,le15,1
7836,c1ccc(Cn2ccnc2)cc1,"Imidazole, 1-benzyl- (8CI)",414.45,le15,1
7837,CCOC(=O)CCCC(C)=O,ethyl 5-oxohexanoate,342.5499999999999,le15,1
7838,CCCC(=O)OC(=O)CCC,ButyricAnhydride,360.0,le15,1
7839,CC(=O)CC(=O)OC(C)(C)C,tertButylAcetoAcetate,333.0,le15,1
7840,CCOC(=O)N1CCNCC1,ethyl piperazine-1-carboxylate,370.25,le15,1
7841,C1=C(c2ccccc2)CCCC1,cyclohexen-1-ylbenzene,376.45,le15,1
7842,C=C(C)c1cccc(C(=C)C)c1,"Benzene, 1,3-bis(1-methylethenyl)-",364.25,le15,1
7843,C1=C(c2ccccc2)CCCC1,"Benzene, 3-cyclohexen-1-yl-",359.54999999999984,le15,1
7844,CCCC(=O)OCCC(C)C,"Butanoic acid, 3-methylbutyl ester",330.95,le15,1
7845,CCCCCCC(=O)OCC,"Heptanoic acid, ethyl ester",339.25,le15,1
7846,CCCCOC(=O)CC(C)C,"Butanoic acid, 3-methyl-, butyl ester",335.95,le15,1
7847,CCCCCCCC(=O)OC,"Octanoic acid, methyl ester",346.15,le15,1
7848,CCCCCCCCC(=O)O,Nonanoic acid,388.05,le15,1
7849,CCCCCCCOC(C)=O,"Acetic acid, heptyl ester",341.75,le15,1
7850,CCCCCCCCOC=O,"Formic acid, octyl ester",350.35,le15,1
7851,CCCCCOC(=O)CCC,"Butanoic acid, pentyl ester",340.95,le15,1
7852,CC(C)COC(=O)CC(C)C,"Butanoic acid, 3-methyl-, 2-methylpropyl ester",323.65,le15,1
7853,CCCCOC(=O)CCCC,"Pentanoic acid, butyl ester",337.85,le15,1
7854,CCOC(=O)CCC(C)CC,ethyl 4-methylhexanoate,332.5499999999999,le15,1
7855,CCCCCCOC(=O)CC,"Propionic acid, hexyl ester (6CI,7CI,8CI)",338.15,le15,1
7856,CCCCCCC(C)C(=O)O,2-methyloctanoic acid,402.85,le15,1
7857,CCCCC(=O)OCC(C)C,2-methylpropyl pentanoate,332.5499999999999,le15,1
7858,CCCCCC(=O)OCCC,propyl hexanoate,324.85,le15,1
7859,CCCCN(CCCC)N=O,"1-Butanamine, N-butyl-N-nitroso-",378.45,le15,1
7860,CC(C)CCCC(C)CCO,"1-Octanol, 3,7-dimethyl-",368.15,le15,1
7861,CCC(C)CCC(C)(O)CC,"3-Octanol, 3,6-dimethyl-",368.15,le15,1
7862,CCCCCOCCCCC,"Pentane, 1,1'-oxybis-",330.15,le15,1
7863,CCCCCC(O)(CC)CC,3-ethyloctan-3-ol,354.25,le15,1
7864,CC(C)CCC(CO)C(C)C,5-methyl-2-propan-2-ylhexan-1-ol,353.04999999999984,le15,1
7865,CC(C)CCCCCCCO,Isodecyl alcohol,360.25,le15,1
7866,CCCCCCC(O)CCC,Decan-4-ol,355.35,le15,1
7867,CCCCCCCCCCO,decylalcohol,381.15,le15,1
7868,CCCCCOCCCCC,Dipentylether,330.0,le15,1
7869,CCN(CC)CN(CC)CC,"N,N,N',N'-tetraethylmethanediamine",315.45,le15,1
7870,CCN(CC)CCCC(C)N,"1-N,1-N-diethylpentane-1,4-diamine",341.45,le15,1
7871,O=C(Cl)c1ccccc1F,"Benzoyl chloride, 2-fluoro-",355.15,le15,1
7872,O=C(Cl)c1cccc(F)c1,3-fluorobenzoyl chloride,355.35,le15,1
7873,O=Cc1c(F)cccc1Cl,"Benzaldehyde, 2-chloro-6-fluoro-",374.15,le15,1
7874,COc1cc(Cl)ccc1O,4-chloro-2-methoxyphenol,373.55,le15,1
7875,CSc1ccc(Cl)cc1,"Benzene, 1-chloro-4-(methylthio)-",363.15,le15,1
7876,ClCCSCCCl,"Ethane, 1,1'-thiobis(2-chloro-",362.55,le15,1
7877,O=[N+]([O-])c1cc(F)ccc1F,"Benzene, 1,4-difluoro-2-nitro-",363.15,le15,1
7878,O=[N+]([O-])c1ccc(F)cc1F,"Benzene, 2,4-difluoro-1-nitro-",363.15,le15,1
7879,O=[N+]([O-])c1cc(F)cc(F)c1,"1,3-difluoro-5-nitrobenzene",347.04999999999984,le15,1
7880,Cn1c(=O)ccc2ccccc21,1-methylquinolin-2-one,379.95,le15,1
7881,COc1ccnc2ccccc12,"Quinoline, 4-methoxy-",362.85,le15,1
7882,COc1cccc2cccnc12,8-methoxyquinoline,375.85,le15,1
7883,COc1ccc2ncccc2c1,6-methoxyquinoline,375.85,le15,1
7884,Cc1ccc2cccc(O)c2n1,2-methylquinolin-8-ol,412.55,le15,1
7885,c1ccc(Cn2cncn2)cc1,"1H-1,2,4-Triazole, 1-benzyl-",421.45,le15,1
7886,C#CCN(C)Cc1ccccc1,"Benzenemethanamine, N-methyl-N-2-propynyl-",356.15,le15,1
7887,CC1=Nc2ccccc2C1(C)C,"3H-Indole, 2,3,3-trimethyl-",355.95,le15,1
7888,Cc1ccc2[nH]c(C)c(C)c2c1,"2,3,5-trimethyl-1H-indole",399.75,le15,1
7889,Cc1c(C)n(C)c2ccccc12,"1,2,3-trimethylindole",399.05,le15,1
7890,C=CCSC1=NCCS1,"Thiazole, 4,5-dihydro-2-(2-propenylthio)- (9CI)",369.05,le15,1
7891,O=CC(Cl)=C(Cl)Cl,"2-Propenal, 2,3,3-trichloro- (9CI)",344.25,le15,1
7892,C=C(Cl)C(Cl)CCl,"1-Butene, 2,3,4-trichloro-",364.85,le15,1
7893,ClCC=C(Cl)CCl,"2-Butene, 1,2,4-trichloro-",378.65,le15,1
7894,O=C=Nc1ccc(N=C=O)cc1,"Isocyanic acid, p-phenylene ester (6CI,7CI,8CI)",365.55,le15,1
7895,Cc1ccc(C(F)(F)F)cc1,1-methyl-4-(trifluoromethyl)benzene,300.15,le15,1
7896,Cc1ccc2oc(=O)ccc2c1,"2H-1-Benzopyran-2-one, 6-methyl-",397.45,le15,1
7897,Oc1cc(O)c2ccccc2c1,"1,3-Naphthalenediol",458.65,le15,1
7898,O=S(=O)(F)c1ccccc1,benzenesulfonyl fluoride,360.35,le15,1
7899,Oc1ccc(O)c2ccccc12,"1,4-Dihydroxynaphthalene",475.65,le15,1
7900,Cc1cc2ccccc2oc1=O,3-methylchromen-2-one,393.75,le15,1
7901,Cc1ccc2ccc(=O)oc2c1,"2H-1-Benzopyran-2-one, 7-methyl-",399.05,le15,1
7902,Oc1ccc2c(O)cccc2c1,"1,6-Dihydroxynaphthalene",466.65,le15,1
7903,O=C(O)CCCCCC(=O)O,Heptanedioic acid,455.05,le15,1
7904,CCCCC(C(=O)O)C(=O)O,2-butylpropanedioic acid,442.55,le15,1
7905,CC(=O)OCC(C)OC(C)=O,"1,2-Propanediol, diacetate",357.45,le15,1
7906,COC(=O)CCCC(=O)OC,"Glutaric acid, dimethyl ester (8CI)",376.45,le15,1
7907,COC(=O)CC(C)C(=O)OC,dimethyl 2-methylbutanedioate,356.45,le15,1
7908,CC(C)(CC(=O)O)CC(=O)O,"Glutaric acid, 3,3-dimethyl- (8CI)",422.85,le15,1
7909,CCOC(=O)CC(=O)OCC,"Propanedioic acid, diethyl ester",373.15,le15,1
7910,CC(=O)C(C)=Cc1ccccc1,"3-Buten-2-one, 3-methyl-4-phenyl-",369.45,le15,1
7911,O=C(c1ccccc1)C1CCC1,cyclobutyl(phenyl)methanone,375.65,le15,1
7912,CCCCOCCOC(C)=O,"Ethanol, 2-butoxy-, acetate",349.25,le15,1
7913,CC(C)CCOC(=O)C(C)O,3-methylbutyl 2-hydroxypropanoate,347.15,le15,1
7914,Sc1ccc2ccccc2c1,naphthalene-2-thiol,407.35,le15,1
7915,Sc1cccc2ccccc12,naphthalene-1-thiol,407.35,le15,1
7916,CC1(C)CCCc2ccccc21,"4,4-dimethyl-2,3-dihydro-1H-naphthalene",354.35,le15,1
7917,C=C(C)c1ccc(C(C)C)cc1,1-propan-2-yl-4-prop-1-en-2-ylbenzene,353.65,le15,1
7918,Cc1ccc2c(c1)CC(C)CC2,"2,7-dimethyl-1,2,3,4-tetrahydronaphthalene",371.55,le15,1
7919,CCC1CCc2ccccc2C1,"2-ethyl-1,2,3,4-tetrahydronaphthalene",365.95,le15,1
7920,CCc1cccc2c1CCCC2,"5-ethyl-1,2,3,4-tetrahydronaphthalene",371.55,le15,1
7921,Cc1cc2c(cc1C)CCCC2,"6,7-dimethyl-1,2,3,4-tetrahydronaphthalene",374.65,le15,1
7922,Cc1cccc2c1CCCC2C,"1,5-dimethyl-1,2,3,4-tetrahydronaphthalene",372.25,le15,1
7923,CCc1ccc2c(c1)CCCC2,"6-ethyl-1,2,3,4-tetrahydronaphthalene",376.35,le15,1
7924,CCCCC(CC)(CO)CO,"1,3-Propanediol, 2-butyl-2-ethyl-",410.15,le15,1
7925,CN(C)CCOCCN(C)C,"N,N,N',N'-Tetramethyl-2,2'-oxybis(ethylamine)",319.35,le15,1
7926,CCCCCCCCCCF,"Decane, 1-fluoro-",379.25,le15,1
7927,C=COCCSCCCC,"Ether, 2-(butylthio)ethyl vinyl",353.65,le15,1
7928,CC(C)NC(=S)NC(C)C,"Thiourea, N,N'-bis(1-methylethyl)-",348.04999999999984,le15,1
7929,C=C[Si](C)(OCC)OCC,ethenyl-diethoxy-methylsilane,290.95,le15,1
7930,COP(=S)(Cl)OC,"Phosphorochloridothioic acid, O,O-dimethyl ester",366.15,le15,1
7931,Cc1ccc(Cl)cc1Cl,"Benzene, 2,4-dichloro-1-methyl-",352.54999999999984,le15,1
7932,Cc1ccc(Cl)c(Cl)c1,"Toluene, 3,4-dichloro- (8CI)",359.15,le15,1
7933,ClC(Cl)c1ccccc1,"Toluene, alpha,alpha-dichloro- (8CI)",361.15,le15,1
7934,ClCc1ccc(Cl)cc1,"Benzene, 1-chloro-4-(chloromethyl)-",360.45,le15,1
7935,Cc1c(Cl)cccc1Cl,"1,3-dichloro-2-methylbenzene",355.95,le15,1
7936,ClCc1ccccc1Cl,1-chloro-2-(chloromethyl)benzene,355.15,le15,1
7937,ClCc1cccc(Cl)c1,1-chloro-3-(chloromethyl)benzene,371.15,le15,1
7938,Cc1cc(Cl)cc(Cl)c1,"1,3-dichloro-5-methylbenzene",352.35,le15,1
7939,Cc1cccc(Cl)c1Cl,"1,2-dichloro-3-methylbenzene",356.15,le15,1
7940,Cc1cc(Cl)ccc1Cl,"1,4-dichloro-2-methylbenzene",352.54999999999984,le15,1
7941,Nc1ccccc1C(F)(F)F,"o-Toluidine, alpha,alpha,alpha-trifluoro- (8CI)",339.15,le15,1
7942,Nc1cccc(C(F)(F)F)c1,"m-Toluidine, alpha,alpha,alpha-trifluoro-",358.15,le15,1
7943,O=c1cc(O)c2ccccc2[nH]1,"2(1H)-Quinolinone, 4-hydroxy-",410.65,le15,1
7944,CN1C(=O)c2ccccc2C1=O,"2-methylisoindole-1,3-dione",390.55,le15,1
7945,COC(=O)c1ccc(C#N)cc1,Methyl 4-cyanobenzoate,404.35,le15,1
7946,[O-][n+]1cccc2cccc(O)c21,8-Hydroxyquinoline-N-oxide,412.15,le15,1
7947,N#CCCCOc1ccccc1,4-phenoxybutanenitrile,394.65,le15,1
7948,C=CN(C(C)=O)c1ccccc1,"Acetamide, N-phenyl-N-vinyl-",386.05,le15,1
7949,CC1(C)C(=O)Nc2ccccc21,"1,2-Dihydro-3,3-dimethyl-2-oxo-3H-indole",445.75,le15,1
7950,c1ccc(C2CCCNC2)cc1,3-phenylpiperidine,388.638,le15,1
7951,c1ccc(N2CCCCC2)cc1,1-phenylpiperidine,379.25,le15,1
7952,c1ccc(C2CCNCC2)cc1,4-phenylpiperidine,386.12,le15,1
7953,CCCCN(CCO)CCO,"Ethanol, 2,2'-(butylimino)bis-",399.85,le15,1
7954,CCN(CC)CCOCCO,"Ethanol, 2-(2-(diethylamino)ethoxy)-",368.95,le15,1
7955,CC(C)(C)N(CCO)CCO,"Ethanol, 2,2'-(tert-butylimino)di- (6CI,7CI,8CI)",391.15,le15,1
7956,CCOC(CN(C)C)OCC,"2,2-diethoxy-N,N-dimethylethanamine",318.15,le15,1
7957,CCOC(CCCN)OCC,"4,4-diethoxybutan-1-amine",335.95,le15,1
7958,CCC(O)CNCC(O)CC,1-(2-hydroxybutylamino)butan-2-ol,384.75,le15,1
7959,CCSC(=O)N(CC)CC,"Carbamothioic acid, diethyl-, S-ethyl ester (9CI)",357.35,le15,1
7960,CC(=O)C(Cl)(Cl)Cl,"2-Propanone, 1,1,1-trichloro-",337.15,le15,1
7961,O=C(CCl)C(Cl)Cl,"1,1,3-trichloropropan-2-one",352.15,le15,1
7962,ClC(Cl)(Cl)C1CO1,2-(trichloromethyl)oxirane,337.45,le15,1
7963,O=CC(Cl)(Cl)CCl,"Propionaldehyde, 2,2,3-trichloro-",330.65,le15,1
7964,C[Si](C)(C)N[Si](C)(C)C,"Silanamine, 1,1,1-trimethyl-N-(trimethylsilyl)-",303.15,le15,1
7965,CC(Cl)CC(Cl)Cl,"1,1,3-trichlorobutane",344.95,le15,1
7966,CC(Cl)(CCl)CCl,"1,2,3-trichloro-2-methylpropane",351.54999999999984,le15,1
7967,[SiH3]C(Cl)=C(Cl)Cl,"Silane, trichlorovinyl- (8CI)",283.75,le15,1
7968,Cc1[nH]nc(Cl)c1[N+](=O)[O-],"1H-Pyrazole, 3-chloro-5-methyl-4-nitro-",448.45,le15,1
7969,Nc1ccc(Cl)c(Cl)c1,"Benzenamine, 3,4-dichloro-",439.15,le15,1
7970,Nc1cc(Cl)ccc1Cl,"Benzenamine, 2,5-dichloro-",412.15,le15,1
7971,Nc1cccc(Cl)c1Cl,"2,3-dichloroaniline",388.15,le15,1
7972,Nc1cc(Cl)cc(Cl)c1,"Benzenamine, 3,5-dichloro-",406.15,le15,1
7973,Nc1ccc(Cl)cc1Cl,"Benzenamine, 2,4-dichloro-",373.35,le15,1
7974,N#CCCCCBr,5-Bromopentanenitrile,372.65,le15,1
7975,Oc1ccccc1C(F)(F)F,2-(trifluoromethyl)phenol,338.15,le15,1
7976,FC(F)(F)Oc1ccccc1,trifluoromethoxybenzene,285.35,le15,1
7977,Oc1cccc(C(F)(F)F)c1,3-(trifluoromethyl)phenol,347.04999999999984,le15,1
7978,Oc1ccc(C(F)(F)F)cc1,"alpha,alpha,alpha-Trifluoro-p-cresol",353.25,le15,1
7979,O=C(O)c1cc2ccccc2o1,1-benzofuran-2-carboxylic acid,416.45,le15,1
7980,N#CCc1ccccc1[N+](=O)[O-],"Acetonitrile, (o-nitrophenyl)-",411.15,le15,1
7981,O=c1[nH][nH]c(=O)c2ccccc12,"1,4-Phthalazinedione, 2,3-dihydro-",543.55,le15,1
7982,CCOC(=O)OC(=O)OCC,"Formic acid, oxydi-, diethyl ester",342.5499999999999,le15,1
7983,NN1C(=O)c2ccccc2C1=O,"Phthalimide, N-amino- (8CI)",437.75,le15,1
7984,O=[N+]([O-])c1ccc2[nH]ccc2c1,"1H-Indole, 5-nitro- (9CI)",446.25,le15,1
7985,O=C(n1ccnc1)n1ccnc1,"Imidazole, 1,1'-carbonyldi- (8CI)",465.65,le15,1
7986,CC(=O)CC(=O)c1ccccc1,"1,3-Butanedione, 1-phenyl-",370.05,le15,1
7987,C=CCc1ccc2c(c1)OCO2,"Benzene, 4-allyl-1,2-(methylenedioxy)-",370.15,le15,1
7988,COC(=O)C=Cc1ccccc1,"2-Propenoic acid, 3-phenyl-, methyl ester",414.45,le15,1
7989,CC=Cc1ccc2c(c1)OCO2,"Benzene, 1,2-(methylenedioxy)-4-propenyl-",383.15,le15,1
7990,F[Si](F)(F)c1ccccc1,"Silane, phenyltrifluoro-",288.35,le15,1
7991,O=C1CCC(c2ccccc2)O1,"2(3H)-Furanone, dihydro-5-phenyl- (8CI)(9CI)",408.65,le15,1
7992,COc1ccccc1C=CC=O,"2-Propenal, 3-(2-methoxyphenyl)-",407.55,le15,1
7993,O=C(O)CC=Cc1ccccc1,4-phenylbut-3-enoic acid,488.95,le15,1
7994,C=CC(=O)OCc1ccccc1,"2-Propenoic acid, phenylmethyl ester",388.65,le15,1
7995,C=Cc1ccc(OC(C)=O)cc1,"Phenol, p-vinyl-, acetate (6CI,7CI,8CI)",361.15,le15,1
7996,O=COCC=Cc1ccccc1,"2-Propen-1-ol, 3-phenyl-, formate",400.85,le15,1
7997,OC1=NN(c2ccccc2)CC1,"2-Pyrazolin-3-ol, 1-phenyl- (7CI)",410.85,le15,1
7998,CCCC(=O)OCC(O)CO,"2,3-dihydroxypropyl butanoate",384.45,le15,1
7999,CC(C)CC(=O)c1ccccc1,3-methyl-1-phenylbutan-1-one,362.841,le15,1
8000,CC(C)(C)C(=O)c1ccccc1,"2,2-dimethyl-1-phenylpropan-1-one",359.15,le15,1
8001,CCCCC(=O)c1ccccc1,"1-Pentanone, 1-phenyl-",372.85,le15,1
8002,CC(=O)c1c(C)cc(C)cc1C,"1-(2,4,6-trimethylphenyl)ethanone",372.15,le15,1
8003,CCCC(=O)c1ccc(C)cc1,1-(4-methylphenyl)butan-1-one,383.25,le15,1
8004,CC(=O)c1cc(C)c(C)cc1C,"1-(2,4,5-trimethylphenyl)ethanone",355.35,le15,1
8005,CN1CCC[C@H]1c1cccnc1,"Pyridine, 3-(1-methyl-2-pyrrolidinyl)-, (S)- (9CI)",374.85,le15,1
8006,CCOC(C)(OCC)OCC,"1,1,1-triethoxyethane",309.25,le15,1
8007,CCCCOCCOCCO,Diethylene glycol monobutyl ether,373.15,le15,1
8008,CCOCCOCCOCC,"Ethane, 1,1'-oxybis(2-ethoxy-",344.25,le15,1
8009,c1cncc(C2CCCCN2)c1,3-piperidin-2-ylpyridine,366.15,le15,1
8010,CC(C)COCCOCCO,"Ethanol, 2-(2-(2-methylpropoxy)ethoxy)-",365.95,le15,1
8011,c1ccc(N2CCNCC2)cc1,"Piperazine, 1-phenyl-",411.45,le15,1
8012,Cc1c(C)c(C)c(C)c(C)c1C,"1,2,3,4,5,6-hexamethylbenzene",534.55,le15,1
8013,CC(C)c1cccc(C(C)C)c1,"Benzene, 1,3-bis(1-methylethyl)-",349.85,le15,1
8014,CCc1cc(CC)cc(CC)c1,"1,3,5-triethylbenzene",354.25,le15,1
8015,CCCCCCc1ccccc1,hexylbenzene,356.65,le15,1
8016,CCCC(C)(C)c1ccccc1,2-methylpentan-2-ylbenzene,346.15,le15,1
8017,CCc1ccc(C(C)(C)C)cc1,1-tert-butyl-4-ethylbenzene,349.04999999999984,le15,1
8018,Cc1cc(C)cc(C(C)(C)C)c1,"1-tert-butyl-3,5-dimethylbenzene",344.95,le15,1
8019,CC(C)c1ccc(C(C)C)cc1,"1,4-di(propan-2-yl)benzene",349.15,le15,1
8020,C1=C\CC/C=C/CC/C=C/CC/1,"(1Z,5E,9E)-cyclododeca-1,5,9-triene",360.95,le15,1
8021,CCCC(CC)c1ccccc1,hexan-3-ylbenzene,347.35,le15,1
8022,Cc1cc(C)c(C(C)C)cc1C,"1,2,4-trimethyl-5-propan-2-ylbenzene",355.54999999999984,le15,1
8023,CN1CSC(=S)N(C)C1,"2H-1,3,5-Thiadiazine-2-thione, tetrahydro-3,5-dimethyl-",361.35,le15,1
8024,CCCCS(=O)CCCC,"Butane, 1,1'-sulfinylbis-",394.55,le15,1
8025,NC(=O)C(Cl)(Cl)Cl,"2,2,2-trichloroacetamide",361.65,le15,1
8026,C[Si](C)(C)O[Si](C)(C)C,"Disiloxane, 1,1,1,3,3,3-hexamethyl-",280.85,le15,1
8027,Clc1cccc2ccccc12,"Naphthalene, 1-chloro-",394.25,le15,1
8028,Clc1ccc2ccccc2c1,"Naphthalene, 2-chloro-",398.15,le15,1
8029,CCCCCCCCCCl,1chlorononane,347.0,le15,1
8030,CCOP(=O)(Cl)Cl,"Phosphorodichloridic acid, ethyl ester",301.0499999999999,le15,1
8031,Oc1c(Cl)cccc1Cl,"Phenol, 2,6-dichloro-",368.05,le15,1
8032,Oc1ccc(Cl)c(Cl)c1,"Phenol, 3,4-dichloro-",382.25,le15,1
8033,Oc1cccc(Cl)c1Cl,"Phenol, 2,3-dichloro-",374.75,le15,1
8034,Oc1cc(Cl)ccc1Cl,"Phenol, 2,5-dichloro-",373.15,le15,1
8035,Oc1cc(Cl)cc(Cl)c1,"Phenol, 3,5-dichloro-",380.05,le15,1
8036,Cc1cnc(Cl)nc1Cl,"2,4-dichloro-5-methylpyrimidine",391.65,le15,1
8037,Cc1cc(Cl)nc(Cl)n1,"2,4-dichloro-6-methylpyrimidine",380.15,le15,1
8038,O=S(=O)(Cl)CCCl,"Ethanesulfonyl chloride, 2-chloro-",349.35,le15,1
8039,Brc1ccsc1,"Thiophene, 3-bromo-",329.85,le15,1
8040,Brc1cccs1,2-bromothiophene,320.202,le15,1
8041,BrC1CCCCC1,"Cyclohexane, bromo-",335.95,le15,1
8042,O=[N+]([O-])c1ccc2nc[nH]c2c1,"Benzimidazole, 5-nitro- (8CI)",514.65,le15,1
8043,O=[N+]([O-])c1cccc2cn[nH]c12,"1H-Indazole, 7-nitro-",458.75,le15,1
8044,O=[N+]([O-])c1ccc2[nH]ncc2c1,"1H-Indazole, 5-nitro-",458.75,le15,1
8045,O=[N+]([O-])c1nc2ccccc2[nH]1,"1H-Benzimidazole, 2-nitro- (9CI)",478.95,le15,1
8046,O=[N+]([O-])c1ccc2cn[nH]c2c1,"1H-Indazole, 6-nitro-",458.75,le15,1
8047,COc1cccc(OC)c1C#N,"2,6-dimethoxybenzonitrile",401.95,le15,1
8048,CC(=NO)C(=O)c1ccccc1,"1,2-Propanedione, 1-phenyl-, 2-oxime",403.85,le15,1
8049,CC(=O)Nc1ccc(C=O)cc1,"Acetanilide, 4'-formyl- (8CI)",454.95,le15,1
8050,Nc1ccc(C=CC(=O)O)cc1,"2-Propenoic acid, 3-(4-aminophenyl)-",455.75,le15,1
8051,O=C(N=C=S)c1ccccc1,Benzoyl isothiocyanate,379.15,le15,1
8052,CN(C)c1ncnc2nc[nH]c12,"Adenine, N,N-dimethyl- (8CI)",485.45,le15,1
8053,CC(S)C(=O)NCC(=O)O,"Glycine, N-(2-mercapto-1-oxopropyl)- (9CI)",479.95,le15,1
8054,COc1ccc2c(c1)CCCN2,"6-methoxy-1,2,3,4-tetrahydroquinoline",389.65,le15,1
8055,CC(C)C(=O)Nc1ccccc1,"Propanamide, 2-methyl-N-phenyl- (9CI)",458.95,le15,1
8056,CCCC(=O)c1ccc(N)cc1,"1-Butanone, 1-(4-aminophenyl)-",419.25,le15,1
8057,Cc1ccc2sc(C)nc2c1,"Benzothiazole, 2,5-dimethyl-",383.15,le15,1
8058,S=C=NCCc1ccccc1,"Isothiocyanic acid, phenethyl ester",373.15,le15,1
8059,NS(=O)(=O)C1CCCCC1,Cyclohexanesulfonamide,408.25,le15,1
8060,CCN(CC)c1cccc(C)c1,"N,N-diethyl-3-methylaniline",374.15,le15,1
8061,CCN(CC)c1ccccc1C,"N,N-diethyl-2-methylaniline",364.35,le15,1
8062,CCN(CC)c1ccc(C)cc1,"N,N-diethyl-4-methylaniline",374.25,le15,1
8063,Cc1cc(C)c(N(C)C)c(C)c1,"N,N,2,4,6-pentamethylaniline",352.04999999999984,le15,1
8064,O=C(O)C(Cl)(Cl)Cl,"Acetic acid, trichloro-",339.494,le15,1
8065,CC(O)C(Cl)(Cl)Cl,"2-Propanol, 1,1,1-trichloro-",355.35,le15,1
8066,C[Si](Cl)(Cl)CCl,dichloro-(chloromethyl)-methylsilane,308.15,le15,1
8067,Clc1cccc2cccnc12,"Quinoline, 8-chloro-",418.35,le15,1
8068,Clc1ccc2ncccc2c1,"Quinoline, 6-chloro-",386.15,le15,1
8069,Clc1ccnc2ccccc12,4-Chloroquinoline,383.15,le15,1
8070,Clc1cnc2ccccc2c1,3-Chloroquinoline,406.35,le15,1
8071,Clc1ccc2ccccc2n1,"Quinoline, 2-chloro-",414.35,le15,1
8072,CC(=O)C(Cl)C(=O)N(C)C,"Butanamide, 2-chloro-N,N-dimethyl-3-oxo-",362.15,le15,1
8073,ClC(Cl)Br,"Methane, bromodichloro-",274.45,le15,1
8074,Nc1nc(Cl)cc(Cl)n1,"Pyrimidine, 2-amino-4,6-dichloro- (8CI)",437.75,le15,1
8075,Brc1nccs1,"2-bromo-1,3-thiazole",336.15,le15,1
8076,O=C(O)C(F)(F)C(F)(F)F,"2,2,3,3,3-pentafluoropropanoic acid",283.45,le15,1
8077,CC(O)C(F)(F)C(F)(F)F,"3,3,4,4,4-pentafluorobutan-2-ol",295.15,le15,1
8078,Fc1ccccc1C(F)(F)F,1-fluoro-2-(trifluoromethyl)benzene,290.15,le15,1
8079,Fc1cccc(C(F)(F)F)c1,1-fluoro-3-(trifluoromethyl)benzene,280.35,le15,1
8080,Fc1ccc(C(F)(F)F)cc1,1-fluoro-4-(trifluoromethyl)benzene,283.15,le15,1
8081,Cc1c(F)c(F)cc(F)c1F,"1,2,4,5-tetrafluoro-3-methylbenzene",296.45,le15,1
8082,COS(=O)(=O)C(F)(F)F,"Methanesulfonic acid, 1,1,1-trifluoro-, methyl ester",311.48299999999995,le15,1
8083,O=C=Nc1ccc([N+](=O)[O-])cc1,"Isocyanic acid, p-nitrophenyl ester (8CI)",339.15,le15,1
8084,C=CP(=O)(OCC)OCC,1-[ethenyl(ethoxy)phosphoryl]oxyethane,362.05,le15,1
8085,COC(=O)c1ccc(C=O)cc1,"Benzoic acid, 4-formyl-, methyl ester",417.15,le15,1
8086,O=Cc1ccc(NCN=O)cc1,"Benzaldehyde, 4-(N-nitrosomethylamino)-",425.25,le15,1
8087,C1C2OC2C2C1C1CC2C2OC12,"4,7-Methanoindan, 3a,4,5,6,7,7a-hexahydro-1,2:5,6-diepoxy-",407.55,le15,1
8088,CCOC(=O)c1ccccc1C,ethyl 2-methylbenzoate,364.85,le15,1
8089,CC(=O)OC(C)c1ccccc1,"Benzenemethanol, alpha-methyl-, acetate",443.35,le15,1
8090,CCOC(=O)c1ccc(C)cc1,ethyl 4-methylbenzoate,372.55,le15,1
8091,CCCc1ccc2c(c1)OCO2,"Benzene, 1,2-methylenedioxy-4-propyl-",372.45,le15,1
8092,C=CCc1ccc(O)c(OC)c1,"Phenol, 2-methoxy-4-(2-propenyl)-",392.95,le15,1
8093,c1ccc(CC2OCCO2)cc1,"1,3-Dioxolane, 2-(phenylmethyl)-",380.95,le15,1
8094,CCOC(=O)Cc1ccccc1,"Acetic acid, phenyl-, ethyl ester",371.35,le15,1
8095,COC(=O)CCc1ccccc1,methyl 3-phenylpropanoate,372.85,le15,1
8096,O=COCCCc1ccccc1,"1-Propanol, 3-phenyl-, formate",374.55,le15,1
8097,CCOC(=O)c1cccc(C)c1,ethyl 3-methylbenzoate,374.25,le15,1
8098,COc1ccc(CC(C)=O)cc1,"2-Propanone, 1-(4-methoxyphenyl)-",374.85,le15,1