,smiles,compound,flashpoint,source,pure substance
11546,FC(F)(F)C(F)(F)C(F)(F)C(F)(F)C(F)(F)C(F)(F)I,"1,1,1,2,2,3,3,4,4,5,5,6,6-tridecafluoro-6-iodohexane",318.15,le15,1
11547,CCCCCCCCCCOC(=O)c1ccccc1C(=O)OCCCCCCCCCC,"1,2-Benzenedicarboxylic acid, didecyl ester",516.8499999999998,le15,1
11548,S=C(SSSSSSC(=S)N1CCCCC1)N1CCCCC1,"Hexasulfide, bis(1-piperidinylthioxomethyl)",576.75,le15,1
11549,FC(F)(F)C(F)(F)C(F)(F)C(F)(F)C(F)(F)C(F)(F)C(F)(F)Br,"1-bromo-1,1,2,2,3,3,4,4,5,5,6,6,7,7,7-pentadecafluoroheptane",300.65,le15,1
11550,CCCCCCCCCCCCCCCCCCCCCCCCCCCCCCCC,dotriacontane,597.05,le15,1
11551,FC(F)(I)C(F)(F)C(F)(F)C(F)(F)I,"1,1,2,2,3,3,4,4-octafluoro-1,4-diiodobutane",329.0499999999999,le15,1
11552,O=C(Nc1ccccc1SSc1ccccc1NC(=O)c1ccccc1)c1ccccc1,"Benzamide, N,N'-(dithiodi-2,1-phenylene)bis-",523.15,le15,1
11553,CCCCOCCOCCOC(OCCOCCOCCCC)c1ccc2c(c1)OCO2,"1,3-Benzodioxole, 5-(bis(2-(2-butoxyethoxy)ethoxy)methyl)- (9CI)",470.75,le15,1
11554,Clc1c(Cl)c(Cl)c2c(c1Cl)Oc1c(Cl)c(Cl)c(Cl)c(Cl)c1O2,"Dibenzo-p-dioxin, 1,2,3,4,6,7,8,9-octachloro-",468.85,le15,1
11555,FC(F)(Br)C(F)(F)C(F)(F)C(F)(F)C(F)(F)C(F)(F)Br,"1,6-Dibromo-1,1,2,2,3,3,4,4,5,5,6,6-dodecafluorohexane",319.5499999999999,le15,1
11556,CCCCCCCCCCCCCCCCCC(=O)OCCOCCOCCOCCO,2-[2-[2-(2-hydroxyethoxy)ethoxy]ethoxy]ethyl octadecanoate,436.15,le15,1
11557,FC1(F)C(F)(F)C(F)(F)C2(F)C(F)(F)C(F)(F)C(F)(F)C(F)(F)C2(F)C1(F)F,"1,1,2,2,3,3,4,4,4a,5,5,6,6,7,7,8,8,8a-octadecafluoronaphthalene",319.5499999999999,le15,1
11558,O=C1OC(=O)c2c(Br)c(Br)c(Br)c(Br)c21,"1,3-Isobenzofurandione, 4,5,6,7-tetrabromo-",553.8499999999998,le15,1
11559,C[Si]1(CCC(F)(F)F)O[Si](C)(CCC(F)(F)F)O[Si](C)(CCC(F)(F)F)O1,"Cyclotrisiloxane, 2,4,6-trimethyl-2,4,6-tris(3,3,3-trifluoropropyl)-",380.25,le15,1
11560,Oc1c(I)cc(I)cc1I,"Phenol, 2,4,6-triiodo-",418.25,le15,1
11561,COc1cc(C(=O)N2CCN(C(=O)c3cc(OC)c(OC)c(OC)c3)CC2)cc(OC)c1OC,"Piperazine, 1,4-bis(3,4,5-trimethoxybenzoyl)-",636.8499999999998,le15,1
11562,O=C1c2ccc3nc(-c4ccccc4)sc3c2C(=O)c2ccc3nc(-c4ccccc4)sc3c21,"Anthra(2,1-d:6,5-d')bisthiazole-6,12-dione, 2,8-diphenyl-",666.75,le15,1
11563,CCCCCCCCCCCCCCCCCCCCCCCCCCCCCCCCCC,tetratriacontane,618.45,le15,1
11564,CCOP(=O)(OCC)C(SCC)(P(=O)(OCC)OCC)P(=O)(OCC)OCC,"Phosphonic acid, ((ethylthio)methylidyne)tris-, hexaethyl ester",538.45,le15,1
11565,Cc1c(Br)c(Br)c(Br)c(Br)c1Br,"Benzene, 1,2,3,4,5-pentabromo-6-methyl-",459.65,le15,1
11566,CC(=O)NC(Cc1ccc(N(CCCl)CCCl)cc1)C(=O)N[C@@H](CC(C)C)C(=O)O,"Leucine, N-(N-acetyl-3-(p-(bis(2-chloroethyl)amino)phenyl)-DL-alanyl)-",642.25,le15,1
11567,Oc1c(Br)c(Br)c(Br)c(Br)c1Br,"Phenol, pentabromo-",440.05,le15,1
11568,FC(F)(F)C(F)(F)C(F)(F)C(F)(F)C(F)(F)C(F)(F)C(F)(F)I,"1,1,1,2,2,3,3,4,4,5,5,6,6,7,7-pentadecafluoro-7-iodoheptane",330.25,le15,1
11569,FC(F)(F)C(F)(F)C(F)(F)C(F)(F)C(F)(F)C(F)(F)C(F)(F)C(F)(F)Br,"1-bromo-1,1,2,2,3,3,4,4,5,5,6,6,7,7,8,8,8-heptadecafluorooctane",314.0499999999999,le15,1
11570,O=C(O)c1cc(I)cc(I)c1I,"Benzoic acid, 2,3,5-triiodo-",503.15,le15,1
11571,c1ccc2c(c1)Nc1ccccc1[As]2O[As]1c2ccccc2Nc2ccccc21,"Phenarsazine, 10,10'-oxydi-",517.05,le15,1
11572,FC(F)(F)c1nc2c(Br)c(Br)c(Br)c(Br)c2[nH]1,"Benzimidazole, 4,5,6,7-tetrabromo-2-(trifluoromethyl)-",511.95,le15,1
11573,c1ccc2c(c1)Oc1ccccc1[As]2O[As]1c2ccccc2Oc2ccccc21,"10H-Phenoxarsine, 10,10'-oxybis- (9CI)",487.25,le15,1
11574,CCCCCCCOC(=O)c1ccc(C(=O)OCCCCCCC)c(C(=O)OCCCCCCC)c1,"triheptyl benzene-1,2,4-tricarboxylate",504.85,le15,1
11575,CCCCCCCCCCCCCCCCCCOC(=O)CCCCCCCCCCCCCCC,"Hexadecanoic acid, octadecyl ester",556.75,le15,1
11576,O=c1c2ccccc2c(=O)c2c1cc(Cl)c1[nH]c3c([nH]c12)c(Cl)cc1c(=O)c2ccccc2c(=O)c13,"5,9,14,18-Anthrazinetetrone, 7,16-dichloro-6,15-dihydro-",703.75,le15,1
11577,O=C(O)C(F)(F)C(F)(F)C(F)(F)C(F)(F)C(F)(F)C(F)(F)C(F)(F)C(F)(F)C(F)(F)F,"Decanoic acid, nonadecafluoro-",355.85,le15,1
11578,CCCCCCCCCCCCOC(=O)CCSCCC(=O)OCCCCCCCCCCCC,"Propanoic acid, 3,3'-thiobis-, didodecyl ester",537.95,le15,1
11579,CCCCCCCCCCCCCOC(=O)c1ccccc1C(=O)OCCCCCCCCCCCCC,"1,2-Benzenedicarboxylic acid, ditridecyl ester",547.3499999999998,le15,1
11580,CC(C)=CCC/C(C)=C/C=C/C(C)=C/C=C/C(C)=C/C=C/C=C(C)/C=C/C=C(C)/C=C/C=C(\C)CCC=C(C)C,"Lycopene, all-trans- (8CI)",623.8499999999998,le15,1
11581,CC1=C(/C=C/C(C)=C/C=C/C(C)=C/C=C/C=C(C)/C=C/C=C(C)/C=C/C2=C(C)CCCC2(C)C)C(C)(C)CCC1,"beta-Carotene, all-trans-",619.15,le15,1
11582,FC(F)(F)C(F)(F)C(F)(F)C(F)(F)C(F)(F)C(F)(F)C(F)(F)C(F)(F)C(F)(F)C(F)(F)F,"1,1,1,2,2,3,3,4,4,5,5,6,6,7,7,8,8,9,9,10,10,10-docosafluorodecane",328.65,le15,1
11583,CC(C)(c1cc(Br)c(O)c(Br)c1)c1cc(Br)c(O)c(Br)c1,"Phenol, 4,4'-isopropylidenebis(2,6-dibromo- (8CI)",479.75,le15,1
11584,CCCCC(CC)COC(=O)c1ccc(C(=O)OCC(CC)CCCC)c(C(=O)OCC(CC)CCCC)c1,"1,2,4-Benzenetricarboxylic acid, 1,2,4-tris(2-ethylhexyl) ester",511.45,le15,1
11585,Brc1c(Br)c(Br)c(Br)c(Br)c1Br,"Benzene, 1,2,3,4,5,6-hexabromo-",472.75,le15,1
11586,CC1=C(/C=C/C(C)=C/C=C/C(C)=C/C=C/C=C(C)/C=C/C=C(C)/C=C/C2=C(C)C(=O)CCC2(C)C)C(C)(C)CCC1=O,"beta,beta-Carotene-4,4'-dione (9CI)",527.05,le15,1
11587,CCC(Cc1c(I)cc(I)c(N)c1I)C(=O)O,"Benzenepropanoic acid, 3-amino-alpha-ethyl-2,4,6-triiodo-",546.95,le15,1
11588,CCC(Cc1c(I)cc(I)c(O)c1I)C(=O)O,"Hydrocinnamic acid, alpha-ethyl-3-hydroxy-2,4,6-triiodo-",504.55,le15,1
11589,CCCCCCCCCCCCCCCCCC(=O)NCCNC(=O)CCCCCCCCCCCCCCCCC,"Octadecanamide, N,N'-ethylenebis- (8CI)",373.85,le15,1
11590,FC(F)(F)C(F)(F)C(F)(F)C(F)(F)C(F)(F)C(F)(F)C(F)(F)C(F)(F)C(F)(F)I,"1,1,1,2,2,3,3,4,4,5,5,6,6,7,7,8,8,9,9-nonadecafluoro-9-iodononane",352.85,le15,1
11591,CC(=O)Nc1c(I)c(NC(C)=O)c(I)c(C(=O)O)c1I,"Benzoic acid, 3,5-bis(acetylamino)-2,4,6-triiodo-",598.3499999999998,le15,1
11592,CNC(=O)c1c(I)c(NC(C)=O)c(I)c(C(=O)O)c1I,"Benzoic acid, 3-(acetylamino)-2,4,6-triiodo-5-((methylamino)carbonyl)-",541.55,le15,1
11593,CCCCCCCCCCCCCCCCCCCCCCCCCCCCCCCCCCCCCCCCCCCC,tetratetracontane,721.3499999999997,le15,1
11594,CCCCCCCC/C=C\CCCCCCCC(=O)OCC(O)COC(=O)CCCCCCC/C=C\CCCCCCCC,[2-hydroxy-3-[(Z)-octadec-9-enoyl]oxypropyl] (Z)-octadec-9-enoate,462.35,le15,1
11595,CC(=O)CNc1c(I)c(NC(C)=O)c(I)c(C(=O)O)c1I,"Benzoic acid, 3-(acetylamino)-5-(acetylmethylamino)-2,4,6-triiodo-",637.45,le15,1
11596,CC(=O)c1ccc(Oc2c(I)cc(C(=O)O)cc2I)cc1I,"Benzoic acid, 4-(4-acetyl-3-iodophenoxy)-3,5-diiodo-",572.75,le15,1
11597,CC(C)CCC[C@@H](C)[C@H]1CC[C@H]2[C@@H]3CC=C4C[C@@H](OC(=O)Cc5ccc(N(CCCl)CCCl)cc5)CC[C@]4(C)[C@H]3CC[C@@]21C,"Cholesterol, (p-(bis(2-chloroethyl)amino)phenyl)acetate (8CI)",642.3499999999998,le15,1
11598,FC(F)(F)C(F)(F)C(F)(F)C(F)(F)C(F)(F)C(F)(F)OC(F)(F)C(F)(F)C(F)(F)C(F)(F)C(F)(F)C(F)(F)F,Bis(perfluorohexyl)ether,345.95,le15,1
11599,FC(F)(F)C(F)(F)C(F)(F)C(F)(F)N(C(F)(F)C(F)(F)C(F)(F)C(F)(F)F)C(F)(F)C(F)(F)C(F)(F)C(F)(F)F,"1-Butanamine, 1,1,2,2,3,3,4,4,4-nonafluoro-N,N-bis(nonafluorobutyl)-",337.25,le15,1
11600,CC(=O)OC[C@H]1O[C@@](COC(C)=O)(O[C@H]2O[C@H](CO)[C@@H](O)[C@H](O)[C@H]2O)[C@@H](OC(C)=O)[C@@H]1OC(C)=O,"alpha-D-Glucopyranoside, 1,3,4,6-tetra-O-acetyl-beta-D-fructofuranosyl",548.15,le15,1
11601,CCCCCCCCCCCCCCCCCCOC(=O)CCSCCC(=O)OCCCCCCCCCCCCCCCCCC,"Propanoic acid, 3,3'-thiobis-, dioctadecyl ester",596.8499999999998,le15,1
11602,O=P(O)(O)O.OCC(Br)CBr.OCC(Br)CBr.OCC(Br)CBr,"1-Propanol, 2,3-dibromo-, phosphate (3:1)",556.05,le15,1
11603,CCCCCCCCCCCCCC(=O)OCC(COC(=O)CCCCCCCCCCCCC)OC(=O)CCCCCCCCCCCCC,"2,3-di(tetradecanoyloxy)propyl tetradecanoate",544.05,le15,1
11604,c1ccc([Si]2(c3ccccc3)O[Si](c3ccccc3)(c3ccccc3)O[Si](c3ccccc3)(c3ccccc3)O[Si](c3ccccc3)(c3ccccc3)O2)cc1,"Cyclotetrasiloxane, octaphenyl-",473.15,le15,1
11605,O=C1OC(c2cc(I)c(O)c(I)c2)(c2cc(I)c(O)c(I)c2)c2ccccc21,"3,3-Bis(4-hydroxy-3,5-diiodophenyl)-1(3H)-isobenzofuranone",624.95,le15,1
11606,CCCCCCCC/C=C\CCCCCCCC(=O)OCC(COC(=O)CCCCCCC/C=C\CCCCCCCC)OC(=O)CCCCCCC/C=C\CCCCCCCC,"2,3-bis[[(Z)-octadec-9-enoyl]oxy]propyl (Z)-octadec-9-enoate",575.75,le15,1
11607,Brc1c(Br)c(Br)c(Oc2c(Br)c(Br)c(Br)c(Br)c2Br)c(Br)c1Br,"Benzene, 1,1'-oxybis(2,3,4,5,6-pentabromo-",514.55,le15,1
11608,C[Si](Cl)(Cl)Cl,Methyltrichlorosilane,276.15,wang11,1
11609,C=C[Si](Cl)(Cl)Cl,Vinyltrichlorosilane,294.15,wang11,1
11610,C[Si](Cl)(Cl)C(Cl)Cl,Dichloromethylmethyldichlorosilane,301.15,wang11,1
11611,CC[Si](Cl)(Cl)Cl,Ethyltrichlorosilane,263.15,wang11,1
11612,C[SiH](C)Cl,Dimethylchlorosilane,245.15,wang11,1
11613,CC[SiH3],Ethylsilane,213.15,wang11,1
11614,CC(C(F)(F)F)[Si](Cl)(Cl)Cl,"1,1,1-Trifluoropropyltrichlorosilane",288.15,wang11,1
11615,C=CC[Si](Cl)(Cl)Cl,Allyltrichlorosilane,304.15,wang11,1
11616,CC=C[SiH](Cl)Cl,Methylvinyldichlorosilane,272.15,wang11,1
11617,ClCCC[Si](Cl)(Cl)Cl,3-Chloropropyltrichlorosilane,357.15,wang11,1
11618,CCC[Si](Cl)(Cl)Cl,n-Propyltrichlorosilane,310.15,wang11,1
11619,C[Si](C)(Cl)CCl,Chloromethyldimethylchlorosilane,295.15,wang11,1
11620,C[Si](C)(C)Br,Trimethylbromosilane,270.15,wang11,1
11621,C[Si](C)(C)Cl,Trimethylchlorosilane,255.15,wang11,1
11622,C[Si](C)(C)F,Trimethylfluorosilane,238.15,wang11,1
11623,CO[SiH](OC)OC,Trimethoxysilane,264.15,wang11,1
11624,C[Si](Cl)(Cl)CCC#N,Cyanoethylmethyldichlorosilane,333.15,wang11,1
11625,C=CCC[SiH](Cl)Cl,Allylmethyldichlorosilane,300.15,wang11,1
11626,C[Si](Cl)(Cl)CCCCl, 3-Chloropropylmethyldichlorosilane,359.15,wang11,1
11627,CC(C)(C)[Si](Cl)(Cl)Cl, t-Butyltrichlorosilane,294.15,wang11,1
11628,CC(C)C[Si](Cl)(Cl)Cl, Isobutyltrichlorosilane,310.15,wang11,1
11629,CCCC[Si](Cl)(Cl)Cl, n-Butyltrichlorosilane,327.15,wang11,1
11630,C[Si](C)(C)N=C=S, Trimethylsilylisothiocyanate,308.15,wang11,1
11631,CCC[Si](C)(Cl)Cl, n-Propylmethyldichlorosilane,300.15,wang11,1
11632,C[Si](C)(C)CBr, Bromomethyltrimethylsilane,289.15,wang11,1
11633,CC[Si](C)(C)Cl, Ethyldimethylchlorosilane,269.15,wang11,1
11634,CO[Si](C)(C)C, Methoxytrimethylsilane,243.15,wang11,1
11635,CO[Si](C)(C)OC, Dimethyldimethoxysilane,265.15,wang11,1
11636,CO[Si](C)(OC)OC," Methyltrimethoxysilane
",284.15,wang11,1
11637,CO[Si](OC)(OC)OC, Tetramethoxysilane,294.15,wang11,1
11638,C[Si](C)(C)C, Tetramethylsilane,245.15,wang11,1
11639,CC[SiH2]CC, Diethylsilane,253.15,wang11,1
11640,CN(C)[SiH](C)C," (N,N-Dimethylamino)dimethylsilane",260.15,wang11,1
11641,O=C=N[Si](N=C=O)(N=C=O)N=C=O, Tetraisocyanatosilane,323.15,wang11,1
11642,Cl[Si](Cl)(Cl)C1CCCC1, Cyclopentyltrichlorosilane,350.15,wang11,1
11643,C[Si](C)(C)OC(=O)C(F)(F)F, Trimethylsilyltrifluoroacetate,273.15,wang11,1
11644,Cl[SiH](Cl)C1CCCC1, Cyclopentyldichlorosilane,316.15,wang11,1
11645,CC(CCl)C[Si](C)(Cl)Cl, 3-Chloro-2-methylpropylmethyldichlorosilane,363.15,wang11,1
11646,CC=C[SiH](OC)OC, Methylvinyldimethoxysilane,277.15,wang11,1
11647,C=C[Si](OC)(OC)OC, Vinyltrimethoxysilane,296.15,wang11,1
11648,CC(C)=C(C)[SiH3], Trimethylvinylsilane,239.15,wang11,1
11649,CC[Si](C)(Cl)CC, Diethylmethylchlorosilane,288.15,wang11,1
11650,CCO[Si](C)(C)CCl, Chloromethyldimethylethoxysilane,299.15,wang11,1
11651,CCO[Si](C)(C)C, Ethoxytrimethylsilane,246.15,wang11,1
11652,CC[Si](OC)(OC)OC, Ethyltrimethoxysilane,300.15,wang11,1
11653,CN(C)[Si](C)(C)C," (N,N-Dimethylamino)trimethylsilane",254.15,wang11,1
11654,C[SiH](C)O[Si](C)(C)C, Pentamethyldisiloxane,254.15,wang11,1
11655,Cl[SiH](Cl)c1ccccc1,Phenyldichlorosilane,333.15,wang11,1
11656,[SiH3]c1ccccc1,Phenylsilane,281.15,wang11,1
11657,CCCCC=C[Si](Cl)(Cl)Cl,1-Hexenyltrichlorosilane,333.15,wang11,1
11658,Cl[Si](Cl)(Cl)C1CCCCC1,Cyclohexyltrichlorosilane,358.15,wang11,1
11659,C[Si](C)(C)O[Si](C)(CCl)CCl,Bis(chloromethyl)tetramethyldisiloxane,346.15,wang11,1
11660,C#CCO[Si](C)(C)C,Propargyloxytrimethylsilane,300.15,wang11,1
11661,C=C[Si](C)(C)C=C,Divinyldimethylsilane,281.15,wang11,1
11662,CCCCCC[Si](Cl)(Cl)Cl,n-Hexyltrichlorosilane,358.15,wang11,1
11663,CCCCCC[SiH](Cl)Cl,Hexyldichlorosilane,337.15,wang11,1
11664,C[Si]1(C)CCCCO1,"1,1-Dimethyl-1-sila-2-oxacyclohexane",287.15,wang11,1
11665,CC(=O)OC[Si](C)(C)C,Acetoxymethyltrimethylsilane,293.15,wang11,1
11666,C=CC[Si](C)(C)C,Allyltrimethylsilane,280.15,wang11,1
11667,CC[Si](Cl)(CC)CC,Triethylchlorosilane,303.15,wang11,1
11668,CC(C)(C)[Si](C)(C)Cl,t-Butyldimethylchlorosilane,295.15,wang11,1
11669,CO[Si](C)(CCCCl)OC,3-Chloropropylmethyldimethoxysilane,318.15,wang11,1
11670,CCCO[Si](C)(C)C,Trimethyl-n-propoxysilane,283.15,wang11,1
11671,CC(C)(C)[Si](C)(C)O,t-Butyldimethylsilanol,318.15,wang11,1
11672,CCO[Si](C)(C)OCC,Dimethyldiethoxysilane,284.15,wang11,1
11673,CC[SiH](CC)CC,Triethylsilane,270.15,wang11,1
11674,CCCCCC[SiH3],Hexylsilane,285.15,wang11,1
11675,C[SiH](C)C(C)(C)C,t-Butyldimethylsilane,251.15,wang11,1
11676,CN(C)[Si](C)(C)N(C)C,Bis(dimethylamino)dimethylsilane,266.15,wang11,1
11677,C[Si]1(C)O[Si](C)(C)O[Si](C)(C)O1,Hexamethylcyclotrisiloxane,305.15,wang11,1
11678,C[Si](C)(C)S[Si](C)(C)C,Hexamethyldisilthiane,299.15,wang11,1
11679,C[Si](C)(C)N[Si](C)(C)C,Hexamethyldisilazane,281.15,wang11,1
11680,CN(C)[SiH](N(C)C)N(C)C,Tris(dimethylamino)silane,298.15,wang11,1
11681,C[Si](C)(C)O[SiH2]O[Si](C)(C)C,Hexamethyltrisiloxane,293.15,wang11,1
11682,Cl[SiH](Cl)Cc1ccccc1,Phenylmethyldichlorosilane,340.15,wang11,1
11683,Cl[SiH2]Cc1ccccc1,Phenylmethylchlorosilane,355.15,wang11,1
11684,CC(=O)O[Si](C)(OC(C)=O)OC(C)=O,Methyltriacetoxysilane,358.15,wang11,1
11685,C=CC([SiH3])(C=C)C=C,Trivinylmethylsilane,288.15,wang11,1
11686,Cl[SiH](Cl)CC1CCCCC1,Cyclohexylmethyldichlorosilane,355.15,wang11,1
11687,C=CC=CO[Si](C)(C)C,"1-(Trimethylsiloxy)-1,3-butadiene",298.15,wang11,1
11688,C=C(CCl)C[Si](C)(C)C,2-Chloromethyl-3-trimethylsilyl-1-propene,316.15,wang11,1
11689,CCCCCCC[Si](Cl)(Cl)Cl,n-Heptyltrichlorosilane,337.15,wang11,1
11690,CCCCCC[Si](C)(Cl)Cl,n-Hexylmethyldichlorosilane,358.15,wang11,1
11691,C=CC[SiH](OCC)OCC,Vinylmethyldiethoxysilane,289.15,wang11,1
11692,C[Si](C)(C)N1CCOCC1,N-(Trimethylsilyl)morpholine,300.15,wang11,1
11693,CC(C)(C)O[Si](C)(C)C,t-Butoxytrimethylsilane,287.15,wang11,1
11694,C=C[Si](C)(C)O[Si](C)(C)C,Vinylpentamethyldisiloxane,285.15,wang11,1
11695,COCC(C)O[Si](C)(C)C,(1-Methoxy-2-propoxy)trimethylsilane,293.15,wang11,1
11696,CCO[Si](C)(OCC)OCC,Methyltriethoxysilane,297.15,wang11,1
11697,CCN(CC)[Si](C)(C)C,(Diethylamino)trimethylsilane,283.15,wang11,1
11698,C[Si](C)(C)C[Si](C)(C)C,Bis(trimethylsilyl)methane,285.15,wang11,1
11699,CN([Si](C)(C)C)[Si](C)(C)C,Heptamethyldisilazane,300.15,wang11,1
11700,Cl[SiH](Cl)CCc1ccccc1,Phenylethyldichlorosilane,365.15,wang11,1
11701,C=C[Si](C=C)(C=C)C=C,Tetravinylsilane,291.15,wang11,1
11702,C[SiH](C)c1ccccc1,Phenyldimethylsilane,311.15,wang11,1
11703,C[Si](C)(C)C1C=CC=C1,Cyclopentadienyltrimethylsilane,302.15,wang11,1
11704,C[Si](C)(C)OC1=CCCC1,(Cyclopentenyloxy)trimethylsilane,311.15,wang11,1
11705,C=CC=CC[Si](C)(C)C,"(2,4-Pentadienyl)trimethylsilane",291.15,wang11,1
11706,CCCCCCCC[Si](Cl)(Cl)Cl,n-Octyltrichlorosilane,369.15,wang11,1
11707,CCCCCCC[Si](C)(Cl)Cl,n-Heptylmethyldichlorosilane,339.15,wang11,1
11708,C=C[Si](C)(C=C)O[Si](C)(C)C,Tetramethyldivinyldisiloxane,292.15,wang11,1
11709,CCC(CC)(CC)C(=O)O[SiH3],Triethylacetoxysilane,314.15,wang11,1
11710,C=C[Si](OCC)(OCC)OCC,Vinyltriethoxysilane,307.15,wang11,1
11711,C=C[Si](C)(C)N[Si](C)(C)C=C,"1,3-Divinyltetramethyldisilazane",307.15,wang11,1
11712,CCO[Si](CC)(CC)OCC,Diethyldiethoxysilane,316.15,wang11,1
11713,CCO[Si](OCC)(OCC)OCC,Tetraethoxysilane,323.15,wang11,1
11714,CC[Si](CC)(CC)CC,Tetraethylsilane,305.15,wang11,1
11715,CO[Si](CCCNCCN)(OC)OC,Aminoethylaminopropyltrimethoxysilane,369.15,wang11,1
11716,CCO[Si]([O])OC(C)(C)C(C)C,Tetramethyldiethoxysiloxane,311.15,wang11,1
11717,C[Si](C)(C)O[Si](C)(C)O[Si](C)(C)C,Octamethyltrisiloxane,303.15,wang11,1
11718,C[Si]1(C)O[Si](C)(C)O[Si](C)(C)O[Si](C)(C)O1,Octamethylcyclotetrasiloxane,330.15,wang11,1
11719,C[Si]1(C)N[Si](C)(C)N[Si](C)(C)N[Si](C)(C)N1,Octamethylcyclotetrasilazane,339.15,wang11,1
11720,C[SiH](C)O[Si](O[SiH](C)C)(O[SiH](C)C)O[SiH](C)C,Tetrakisdimethylsiloxysilane,340.15,wang11,1
11721,C[Si](C)(C)c1ccc(Cl)cc1,p-Chlorophenyltrimethylsilane,322.15,wang11,1
11722,CO[Si](OC)(OC)c1ccccc1,Phenyltrimethoxysilane,358.15,wang11,1
11723,C[Si](C)(C)c1ccccc1,Trimethylphenylsilane,313.15,wang11,1
11724,CO[SiH](CC1CCCCC1)OC,Cyclohexylmethyldimethoxysilane,343.15,wang11,1
11725,CCCCCC[Si](OC)(OC)OC, Hexyltrimethoxysilane,335.15,wang11,1
11726,CC(C)[SiH](C(C)C)C(C)C,Triisopropylsilane,310.15,wang11,1
11727,CCC[SiH](CCC)CCC,Tri-n-propylsilane,316.15,wang11,1
11728,CCC[Si](O[SiH](C)C)(O[SiH](C)C)O[SiH](C)C, Propyltris(dimethylsiloxy)silane,323.15,wang11,1
11729,C[Si](C)(C)Cc1ccccc1, Benzyltrimethylsilane,335.15,wang11,1
11730,C=C(C)C(=O)OCCC[Si](OC)(OC)OC, 3-Methacryloxypropyltrimethoxysilane,365.15,wang11,1
11731,CCCCCC#C[Si](C)(C)C, 1-Heptynyltrimethylsilane,315.15,wang11,1
11732,CCCCCCCC[Si](C)(C)Cl, n-Octyldimethylchlorosilane,370.15,wang11,1
11733,CCN(CC)[Si](C)(C)N(CC)CC, Bis(diethylamino)dimethylsilane,308.15,wang11,1
11734,C[Si](C)(C)O[Si](C)(C)O[Si](C)(C)O[Si](C)(C)C, Decamethyltetrasiloxane,335.15,wang11,1
11735,C[Si]1(C)O[Si](C)(C)O[Si](C)(C)O[Si](C)(C)O[Si](C)(C)O1, Decamethylcyclopentasiloxane,350.15,wang11,1
11736,CO[Si](CCC1CCC2OC2C1)(OC)OC," 2-(3,4-epoxycyclohexyl)ethyltrimethoxysilane",419.15,wang11,1
11737,CCCCCCCCCC[Si](C)(Cl)Cl, n-Decylmethyldichlorosilane,393.15,wang11,1
11738,C=C[Si](CC)(CC)CC, Vinyltriethylsilane,318.15,wang11,1
11739,Cl[Si](Cl)(c1ccccc1)c1ccccc1, Diphenyldichlorosilane,415.15,wang11,1
11740,CCO[Si](OCC)(OCC)c1ccccc1, Phenyltriethoxysilane,393.15,wang11,1
11741,c1ccc([SiH2]c2ccccc2)cc1, Diphenylsilane,371.15,wang11,1
11742,C=C[Si]1(C)[Si](C)(C=C)[Si](C)(C=C)[Si]1(C)C=C, Tetramethyltetravinylcyclotetrasilane,385.15,wang11,1
11743,CCCCCCCCCCCC[Si](Cl)(Cl)Cl, n-Dodecyltrichlorosilane,435.15,wang11,1
11744,CCCO[Si](OCCC)(OCCC)OCCC, Tetra-n-propoxysilane,368.15,wang11,1
11745,CC[Si](CC)(CC)O[Si](CC)(CC)CC, Hexaethyldisiloxane,349.15,wang11,1
11746,C[Si](C)(C)O[Si](C)(C)O[Si](C)(C)O[Si](C)(C)O[Si](C)(C)C, Dodecamethylpentasiloxane,352.15,wang11,1
11747,C[Si]1(C)O[Si](C)(C)O[Si](C)(C)O[Si](C)(C)O[Si](C)(C)O[Si](C)(C)O1, Dodecamethylcyclohexasiloxane,366.15,wang11,1
11748,C[Si](Cl)(c1ccccc1)c1ccccc1,Methyldiphenylchlorosilane,411.15,wang11,1
11749,CCCCCCCCCCCC[Si](C)(Cl)Cl,n-Dodecylmethyldichlorosilane,416.15,wang11,1
11750,CO[Si](OC)(c1ccccc1)c1ccccc1,Diphenyldimethoxysilane,394.15,wang11,1
11751,CCCCCCCC[Si](OCC)(OCC)OCC,Octyltriethoxysilane,373.15,wang11,1
11752,C[Si](C)(C)O[Si](C)(C)O[Si](C)(C)O[Si](C)(C)O[Si](C)(C)O[Si](C)(C)C,Tetradecamethylhexasiloxane,375.15,wang11,1
11753,C[Si](C)(C)O[Si](C)(C)O[Si](C)(C)O[Si](C)(C)O[Si](C)(C)O[Si](C)(C)O[Si](C)(C)C,Hexadecamethylheptasiloxane,406.15,wang11,1
11754,C[Si](C)(C)O[Si](C)(C)O[Si](C)(C)O[Si](C)(C)O[Si](C)(C)O[Si](C)(C)O[Si](C)(C)O[Si](C)(C)C,Octadecamethyloctasiloxane,417.15,wang11,1
11755,C=C[Si](OCCOC)(OCCOC)OCCOC,Vinyltris(methoxyethoxy)silane,353.15,wang11,1
11756,C=CO[Si](C)(C)C,Trimethyl(vinyloxy)silane,263.15,wang11,1
11757,N#CCCC[Si](Cl)(Cl)Cl,Trichloro(3-cyanopropyl) Silane,365.15,wang11,1
11758,Cl[Si](Cl)(Cl)CCc1ccccc1,Trichloro(2-phenylethyl)silane,364.15,wang11,1
11759,C[Si](C)(Cl)CCC(F)(F)F,"Chlorodimethyl(3,3,3-trifluoropropyl) silane",293.15,wang11,1
11760,C=CC[SiH](O[Si](C)(C)C)O[Si](C)(C)C,Vinylmethylbis (trimethylsiloxy) silane,324.15,wang11,1
11761,ClC[Si](Cl)(Cl)Cl,Trichloro(Chloromethyl) silane,342.15,wang11,1
11762,C[SiH](C)c1c(F)c(F)c(F)c(F)c1F,Dimethyl(pentafluorophenyl) silane,313.15,wang11,1
11763,Clc1ccc([Si](Cl)(Cl)Cl)cc1,Trichloro(p-chlorophenyl)silane,397.05,wang11,1
11764,[SiH3][SiH2][SiH3],Trisilane,273.15,wang11,1
11765,[SiH3]CCCCCCCCC(Cl)(Cl)Cl,Trichlorononylsilane,387.15,wang11,1
11766,[SiH3]CC(Cl)Cl,Dichloroethylsilane,263.75,wang11,1
11767,Clc1cccc([Si](Cl)(Cl)Cl)c1Cl,Trichloro(dichlorophenyl)silane,419.15,wang11,1
11768,C[Si](C)(C)[SiH]([Si](C)(C)C)[Si](C)(C)C,Tris(trimethylsilyl)silane,328.15,wang11,1
11769,C[Si](C)(C)O[SiH](O[Si](C)(C)C)O[Si](C)(C)C,Tris(trimethylsiloxy)silane,323.15,wang11,1
11770,CCCCCCCCCCCCCCCC[Si](Cl)(Cl)Cl,Hexadecyltrichlorosilane,427.15,wang11,1
11771,Cl[SiH2]Cl,Dichlorosilane,236.15,wang11,1
11772,C[SiH](Cl)Cl,Methyldichlorosilane,241.15,wang11,1
11773,C[Si](C)(C)I,Iodotrimethylsilane,288.15,wang11,1
11774,C[Si](C)(Cl)Cl,Dimethyldichlorosilane,257.15,wang11,1
11775,C[Si](C)(Cl)CBr,Bromomethyldimethylchlorosilane,314.15,wang11,1
11776,C[SiH](C)C,Trimethylsilane,204.15,wang11,1