,smiles,compound,flashpoint,source,pure substance
11777,CC(C)=C[SiH2]Cl, Dimethylvinylchlorosilane,268.15,wang11,1
11778,C[Si](C)(Cl)O[Si](C)(C)Cl," 1,3-Dichlorotetramethyldisiloxane",288.15,wang11,1
11779,C[SiH](C)O[SiH](C)C," 1,1,3,3-Tetramethyldisiloxane",251.15,wang11,1
11780,CN([SiH3])[Si](C)(C)C, Tetramethyldisilazane,284.15,wang11,1
11781,C=CC[Si](C)(C)Cl, Allyldimethylchlorosilane,278.15,wang11,1
11782,CCCC(C)[Si](Cl)(Cl)Cl, sec-Amyltrichlorosilane,303.15,wang11,1
11783,CCCC[Si](C)(Cl)Cl, n-Butylmethyldichlorosilane,303.15,wang11,1
11784,CN(C)C([SiH3])N(C)C, Bis(dimethylamino)methylsilane,270.15,wang11,1
11785,Cl[Si](Cl)(Cl)c1ccccc1, Phenyltrichlorosilane,364.15,wang11,1
11786,CC(=O)O[Si](C)(C)OC(C)=O,Dimethyldiacetoxysilane,310.15,wang11,1
11787,CC#C[Si](C)(C)C,1-Trimethylsilylpropyne,270.15,wang11,1
11788,C=C[Si](C)(C)OCC,Vinyldimethylethoxysilane,277.15,wang11,1
11789,C=CCO[Si](C)(C)C,Allyloxytrimethylsilane,273.15,wang11,1
11790,C=CC[Si](OC)(OC)OC,Allyltrimethoxysilane,319.15,wang11,1
11791,CO[Si](CCCCl)(OC)OC,3-Chloropropyltrimethoxysilane,348.15,wang11,1
11792,CCC[Si](OC)(OC)OC,n-Propyltrimethoxysilane,298.15,wang11,1
11793,C[Si](C)(C)O[Si](C)(C)C,Hexamethyldisiloxane,270.15,wang11,1
11794,C[Si](C)(C)[Si](C)(C)C,Hexamethyldisilane,272.15,wang11,1
11795,C=C[Si](C)(CC)CC,Vinyldiethylmethylsilane,288.15,wang11,1
11796,CO[Si](CC(C)C)(OC)OC,Isobutyltrimethoxysilane,315.15,wang11,1
11797,C[Si](C)(Cl)c1ccccc1,Phenyldimethylchlorosilane,334.15,wang11,1
11798,CC[Si](CC)(CC)N(C)C,"(N,N-Dimethylamino)triethylsilane",299.15,wang11,1
11799,C=C[Si](OC(C)=O)(OC(C)=O)OC(C)=O,Vinyltriacetoxysilane,361.15,wang11,1
11800,CC[Si](OC(C)=O)(OC(C)=O)OC(C)=O,Ethyltriacetoxysilane,377.15,wang11,1
11801,C[Si](C)(C)C1C=CCC1,3-(Trimethylsilyl)cyclopentene,299.15,wang11,1
11802,C=C[Si](CC)(CC)CC,Vinyltriethylsilane,298.15,wang11,1
11803,CCCCCCCC[SiH3],n-Octylsilane,309.15,wang11,1
11804,CO[Si](C)(OC)c1ccccc1,Methylphenyldimethoxysilane,349.15,wang11,1
11805,CCO[Si](CCC#N)(OCC)OCC,2-Cyanoethyltriethoxysilane,359.15,wang11,1
11806,CO[Si](CCCOCC1CO1)(OC)OC,3-Glycidoxypropyltrimethoxysilane,383.15,wang11,1
11807,CC(C)(C)[Si](C)(Cl)C(C)(C)C, Di-t-butylmethylchlorosilane,342.15,wang11,1
11808,CCC[Si](Cl)(CCC)CCC,Tri-n-propylchlorosilane,349.15,wang11,1
11809,CC(C)N(C(C)C)[Si](C)(C)C, (Diisopropylamino)trimethylsilane,301.15,wang11,1
11810,C[Si](C)(C)O[Si](C)(C)O[Si](C)(C)O[Si](C)(C)Cl, 1-Chlorononamethyltetrasiloxane,347.15,wang11,1
11811,C[Si](C)(C)OC([SiH3])(O[Si](C)(C)C)O[Si](C)(C)C, Tristrimethylsiloxymethylsilane,336.15,wang11,1
11812,[SiH3]C(c1ccccc1)c1ccccc1,Diphenylmethylsilane,393.15,wang11,1
11813,C=C(C)O[Si](C)(C)C,Trimethyl[(1-methylethenyl)oxy]silane,272.15,wang11,1
11814,FC(F)(F)CC[SiH2]C(Cl)Cl,"Dichloromethyl-3,3,3-trifluoropropylsilane",288.15,wang11,1
11815,C[Si](C)(C)CCOCCl,[2-(chloromethoxy)ethyl]trimethylsilane,319.15,wang11,1
11816,c1ccc([SiH](c2ccccc2)c2ccccc2)cc1,Triphenylsilane,416.35,wang11,1
11817,Cl[SiH](Cl)Cl,Trichlorosilane,245.15,wang11,1
11818,C[Si](Cl)(Cl)Cl,Methyltrichlorosilane,276.15,wang11,1
11819,C=C[Si](Cl)(Cl)Cl,Vinyltrichlorosilane,294.15,wang11,1
11820,C[Si](Cl)(Cl)C(Cl)Cl,Dichloromethylmethyldichlorosilane,301.15,wang11,1
11821,CC[Si](Cl)(Cl)Cl,Ethyltrichlorosilane,263.15,wang11,1
11822,C[SiH](C)Cl,Dimethylchlorosilane,245.15,wang11,1
11823,CC[SiH3],Ethylsilane,213.15,wang11,1
11824,CC(C(F)(F)F)[Si](Cl)(Cl)Cl,"1,1,1-Trifluoropropyltrichlorosilane",288.15,wang11,1
11825,C=CC[Si](Cl)(Cl)Cl,Allyltrichlorosilane,304.15,wang11,1
11826,CC=C[SiH](Cl)Cl,Methylvinyldichlorosilane,272.15,wang11,1
11827,ClCCC[Si](Cl)(Cl)Cl,3-Chloropropyltrichlorosilane,357.15,wang11,1
11828,CCC[Si](Cl)(Cl)Cl,n-Propyltrichlorosilane,310.15,wang11,1
11829,C[Si](C)(Cl)CCl,Chloromethyldimethylchlorosilane,295.15,wang11,1
11830,C[Si](C)(C)Br,Trimethylbromosilane,270.15,wang11,1
11831,C[Si](C)(C)Cl,Trimethylchlorosilane,255.15,wang11,1
11832,C[Si](C)(C)F,Trimethylfluorosilane,238.15,wang11,1
11833,CO[SiH](OC)OC,Trimethoxysilane,264.15,wang11,1
11834,C[Si](Cl)(Cl)CCC#N,Cyanoethylmethyldichlorosilane,333.15,wang11,1
11835,C=CCC[SiH](Cl)Cl,Allylmethyldichlorosilane,300.15,wang11,1
11836,C[Si](Cl)(Cl)CCCCl, 3-Chloropropylmethyldichlorosilane,359.15,wang11,1
11837,CC(C)(C)[Si](Cl)(Cl)Cl, t-Butyltrichlorosilane,294.15,wang11,1
11838,CC(C)C[Si](Cl)(Cl)Cl, Isobutyltrichlorosilane,310.15,wang11,1
11839,CCCC[Si](Cl)(Cl)Cl, n-Butyltrichlorosilane,327.15,wang11,1
11840,C[Si](C)(C)N=C=S, Trimethylsilylisothiocyanate,308.15,wang11,1
11841,CCC[Si](C)(Cl)Cl, n-Propylmethyldichlorosilane,300.15,wang11,1
11842,C[Si](C)(C)CBr, Bromomethyltrimethylsilane,289.15,wang11,1
11843,CC[Si](C)(C)Cl, Ethyldimethylchlorosilane,269.15,wang11,1
11844,CO[Si](C)(C)C, Methoxytrimethylsilane,243.15,wang11,1
11845,CO[Si](C)(C)OC, Dimethyldimethoxysilane,265.15,wang11,1
11846,CO[Si](C)(OC)OC," Methyltrimethoxysilane
11847,CO[Si](OC)(OC)OC, Tetramethoxysilane,294.15,wang11,1
11848,C[Si](C)(C)C, Tetramethylsilane,245.15,wang11,1
11849,CC[SiH2]CC, Diethylsilane,253.15,wang11,1
11850,CN(C)[SiH](C)C," (N,N-Dimethylamino)dimethylsilane",260.15,wang11,1
11851,O=C=N[Si](N=C=O)(N=C=O)N=C=O, Tetraisocyanatosilane,323.15,wang11,1
11852,Cl[Si](Cl)(Cl)C1CCCC1, Cyclopentyltrichlorosilane,350.15,wang11,1
11853,C[Si](C)(C)OC(=O)C(F)(F)F, Trimethylsilyltrifluoroacetate,273.15,wang11,1
11854,Cl[SiH](Cl)C1CCCC1, Cyclopentyldichlorosilane,316.15,wang11,1
11855,CC(CCl)C[Si](C)(Cl)Cl, 3-Chloro-2-methylpropylmethyldichlorosilane,363.15,wang11,1
11856,CC=C[SiH](OC)OC, Methylvinyldimethoxysilane,277.15,wang11,1
11857,C=C[Si](OC)(OC)OC, Vinyltrimethoxysilane,296.15,wang11,1
11858,CC(C)=C(C)[SiH3], Trimethylvinylsilane,239.15,wang11,1
11859,CC[Si](C)(Cl)CC, Diethylmethylchlorosilane,288.15,wang11,1
11860,CCO[Si](C)(C)CCl, Chloromethyldimethylethoxysilane,299.15,wang11,1
11861,CCO[Si](C)(C)C, Ethoxytrimethylsilane,246.15,wang11,1
11862,CC[Si](OC)(OC)OC, Ethyltrimethoxysilane,300.15,wang11,1
11863,CN(C)[Si](C)(C)C," (N,N-Dimethylamino)trimethylsilane",254.15,wang11,1
11864,C[SiH](C)O[Si](C)(C)C, Pentamethyldisiloxane,254.15,wang11,1
11865,Cl[SiH](Cl)c1ccccc1,Phenyldichlorosilane,333.15,wang11,1
11866,[SiH3]c1ccccc1,Phenylsilane,281.15,wang11,1
11867,CCCCC=C[Si](Cl)(Cl)Cl,1-Hexenyltrichlorosilane,333.15,wang11,1
11868,Cl[Si](Cl)(Cl)C1CCCCC1,Cyclohexyltrichlorosilane,358.15,wang11,1
11869,C[Si](C)(C)O[Si](C)(CCl)CCl,Bis(chloromethyl)tetramethyldisiloxane,346.15,wang11,1
11870,C#CCO[Si](C)(C)C,Propargyloxytrimethylsilane,300.15,wang11,1
11871,C=C[Si](C)(C)C=C,Divinyldimethylsilane,281.15,wang11,1
11872,CCCCCC[Si](Cl)(Cl)Cl,n-Hexyltrichlorosilane,358.15,wang11,1
11873,CCCCCC[SiH](Cl)Cl,Hexyldichlorosilane,337.15,wang11,1
11874,C[Si]1(C)CCCCO1,"1,1-Dimethyl-1-sila-2-oxacyclohexane",287.15,wang11,1
11875,CC(=O)OC[Si](C)(C)C,Acetoxymethyltrimethylsilane,293.15,wang11,1
11876,C=CC[Si](C)(C)C,Allyltrimethylsilane,280.15,wang11,1
11877,CC[Si](Cl)(CC)CC,Triethylchlorosilane,303.15,wang11,1
11878,CC(C)(C)[Si](C)(C)Cl,t-Butyldimethylchlorosilane,295.15,wang11,1
11879,CO[Si](C)(CCCCl)OC,3-Chloropropylmethyldimethoxysilane,318.15,wang11,1
11880,CCCO[Si](C)(C)C,Trimethyl-n-propoxysilane,283.15,wang11,1
11881,CC(C)(C)[Si](C)(C)O,t-Butyldimethylsilanol,318.15,wang11,1
11882,CCO[Si](C)(C)OCC,Dimethyldiethoxysilane,284.15,wang11,1
11883,CC[SiH](CC)CC,Triethylsilane,270.15,wang11,1
11884,CCCCCC[SiH3],Hexylsilane,285.15,wang11,1
11885,C[SiH](C)C(C)(C)C,t-Butyldimethylsilane,251.15,wang11,1
11886,CN(C)[Si](C)(C)N(C)C,Bis(dimethylamino)dimethylsilane,266.15,wang11,1
11887,C[Si]1(C)O[Si](C)(C)O[Si](C)(C)O1,Hexamethylcyclotrisiloxane,305.15,wang11,1
11888,C[Si](C)(C)S[Si](C)(C)C,Hexamethyldisilthiane,299.15,wang11,1
11889,C[Si](C)(C)N[Si](C)(C)C,Hexamethyldisilazane,281.15,wang11,1
11890,CN(C)[SiH](N(C)C)N(C)C,Tris(dimethylamino)silane,298.15,wang11,1
11891,C[Si](C)(C)O[SiH2]O[Si](C)(C)C,Hexamethyltrisiloxane,293.15,wang11,1
11892,Cl[SiH](Cl)Cc1ccccc1,Phenylmethyldichlorosilane,340.15,wang11,1
11893,Cl[SiH2]Cc1ccccc1,Phenylmethylchlorosilane,355.15,wang11,1
11894,CC(=O)O[Si](C)(OC(C)=O)OC(C)=O,Methyltriacetoxysilane,358.15,wang11,1
11895,C=CC([SiH3])(C=C)C=C,Trivinylmethylsilane,288.15,wang11,1
11896,Cl[SiH](Cl)CC1CCCCC1,Cyclohexylmethyldichlorosilane,355.15,wang11,1
11897,C=CC=CO[Si](C)(C)C,"1-(Trimethylsiloxy)-1,3-butadiene",298.15,wang11,1
11898,C=C(CCl)C[Si](C)(C)C,2-Chloromethyl-3-trimethylsilyl-1-propene,316.15,wang11,1
11899,CCCCCCC[Si](Cl)(Cl)Cl,n-Heptyltrichlorosilane,337.15,wang11,1
11900,CCCCCC[Si](C)(Cl)Cl,n-Hexylmethyldichlorosilane,358.15,wang11,1
11901,C=CC[SiH](OCC)OCC,Vinylmethyldiethoxysilane,289.15,wang11,1
11902,C[Si](C)(C)N1CCOCC1,N-(Trimethylsilyl)morpholine,300.15,wang11,1
11903,CC(C)(C)O[Si](C)(C)C,t-Butoxytrimethylsilane,287.15,wang11,1
11904,C=C[Si](C)(C)O[Si](C)(C)C,Vinylpentamethyldisiloxane,285.15,wang11,1
11905,COCC(C)O[Si](C)(C)C,(1-Methoxy-2-propoxy)trimethylsilane,293.15,wang11,1
11906,CCO[Si](C)(OCC)OCC,Methyltriethoxysilane,297.15,wang11,1
11907,CCN(CC)[Si](C)(C)C,(Diethylamino)trimethylsilane,283.15,wang11,1
11908,C[Si](C)(C)C[Si](C)(C)C,Bis(trimethylsilyl)methane,285.15,wang11,1
11909,CN([Si](C)(C)C)[Si](C)(C)C,Heptamethyldisilazane,300.15,wang11,1
11910,Cl[SiH](Cl)CCc1ccccc1,Phenylethyldichlorosilane,365.15,wang11,1
11911,C=C[Si](C=C)(C=C)C=C,Tetravinylsilane,291.15,wang11,1
11912,C[SiH](C)c1ccccc1,Phenyldimethylsilane,311.15,wang11,1
11913,C[Si](C)(C)C1C=CC=C1,Cyclopentadienyltrimethylsilane,302.15,wang11,1
11914,C[Si](C)(C)OC1=CCCC1,(Cyclopentenyloxy)trimethylsilane,311.15,wang11,1
11915,C=CC=CC[Si](C)(C)C,"(2,4-Pentadienyl)trimethylsilane",291.15,wang11,1
11916,CCCCCCCC[Si](Cl)(Cl)Cl,n-Octyltrichlorosilane,369.15,wang11,1
11917,CCCCCCC[Si](C)(Cl)Cl,n-Heptylmethyldichlorosilane,339.15,wang11,1
11918,C=C[Si](C)(C=C)O[Si](C)(C)C,Tetramethyldivinyldisiloxane,292.15,wang11,1
11919,CCC(CC)(CC)C(=O)O[SiH3],Triethylacetoxysilane,314.15,wang11,1
11920,C=C[Si](OCC)(OCC)OCC,Vinyltriethoxysilane,307.15,wang11,1
11921,C=C[Si](C)(C)N[Si](C)(C)C=C,"1,3-Divinyltetramethyldisilazane",307.15,wang11,1
11922,CCO[Si](CC)(CC)OCC,Diethyldiethoxysilane,316.15,wang11,1
11923,CCO[Si](OCC)(OCC)OCC,Tetraethoxysilane,323.15,wang11,1
11924,CC[Si](CC)(CC)CC,Tetraethylsilane,305.15,wang11,1
11925,CO[Si](CCCNCCN)(OC)OC,Aminoethylaminopropyltrimethoxysilane,369.15,wang11,1
11926,CCO[Si]([O])OC(C)(C)C(C)C,Tetramethyldiethoxysiloxane,311.15,wang11,1
11927,C[Si](C)(C)O[Si](C)(C)O[Si](C)(C)C,Octamethyltrisiloxane,303.15,wang11,1
11928,C[Si]1(C)O[Si](C)(C)O[Si](C)(C)O[Si](C)(C)O1,Octamethylcyclotetrasiloxane,330.15,wang11,1
11929,C[Si]1(C)N[Si](C)(C)N[Si](C)(C)N[Si](C)(C)N1,Octamethylcyclotetrasilazane,339.15,wang11,1
11930,C[SiH](C)O[Si](O[SiH](C)C)(O[SiH](C)C)O[SiH](C)C,Tetrakisdimethylsiloxysilane,340.15,wang11,1
11931,C[Si](C)(C)c1ccc(Cl)cc1,p-Chlorophenyltrimethylsilane,322.15,wang11,1
11932,CO[Si](OC)(OC)c1ccccc1,Phenyltrimethoxysilane,358.15,wang11,1
11933,C[Si](C)(C)c1ccccc1,Trimethylphenylsilane,313.15,wang11,1
11934,CO[SiH](CC1CCCCC1)OC,Cyclohexylmethyldimethoxysilane,343.15,wang11,1
11935,CCCCCC[Si](OC)(OC)OC, Hexyltrimethoxysilane,335.15,wang11,1
11936,CC(C)[SiH](C(C)C)C(C)C,Triisopropylsilane,310.15,wang11,1
11937,CCC[SiH](CCC)CCC,Tri-n-propylsilane,316.15,wang11,1
11938,CCC[Si](O[SiH](C)C)(O[SiH](C)C)O[SiH](C)C, Propyltris(dimethylsiloxy)silane,323.15,wang11,1
11939,C[Si](C)(C)Cc1ccccc1, Benzyltrimethylsilane,335.15,wang11,1
11940,C=C(C)C(=O)OCCC[Si](OC)(OC)OC, 3-Methacryloxypropyltrimethoxysilane,365.15,wang11,1
11941,CCCCCC#C[Si](C)(C)C, 1-Heptynyltrimethylsilane,315.15,wang11,1
11942,CCCCCCCC[Si](C)(C)Cl, n-Octyldimethylchlorosilane,370.15,wang11,1
11943,CCN(CC)[Si](C)(C)N(CC)CC, Bis(diethylamino)dimethylsilane,308.15,wang11,1
11944,C[Si](C)(C)O[Si](C)(C)O[Si](C)(C)O[Si](C)(C)C, Decamethyltetrasiloxane,335.15,wang11,1
11945,C[Si]1(C)O[Si](C)(C)O[Si](C)(C)O[Si](C)(C)O[Si](C)(C)O1, Decamethylcyclopentasiloxane,350.15,wang11,1
11946,CO[Si](CCC1CCC2OC2C1)(OC)OC," 2-(3,4-epoxycyclohexyl)ethyltrimethoxysilane",419.15,wang11,1
11947,CCCCCCCCCC[Si](C)(Cl)Cl, n-Decylmethyldichlorosilane,393.15,wang11,1
11948,C=C[Si](CC)(CC)CC, Vinyltriethylsilane,318.15,wang11,1
11949,Cl[Si](Cl)(c1ccccc1)c1ccccc1, Diphenyldichlorosilane,415.15,wang11,1
11950,CCO[Si](OCC)(OCC)c1ccccc1, Phenyltriethoxysilane,393.15,wang11,1
11951,c1ccc([SiH2]c2ccccc2)cc1, Diphenylsilane,371.15,wang11,1
11952,C=C[Si]1(C)[Si](C)(C=C)[Si](C)(C=C)[Si]1(C)C=C, Tetramethyltetravinylcyclotetrasilane,385.15,wang11,1
11953,CCCCCCCCCCCC[Si](Cl)(Cl)Cl, n-Dodecyltrichlorosilane,435.15,wang11,1
11954,CCCO[Si](OCCC)(OCCC)OCCC, Tetra-n-propoxysilane,368.15,wang11,1
11955,CC[Si](CC)(CC)O[Si](CC)(CC)CC, Hexaethyldisiloxane,349.15,wang11,1
11956,C[Si](C)(C)O[Si](C)(C)O[Si](C)(C)O[Si](C)(C)O[Si](C)(C)C, Dodecamethylpentasiloxane,352.15,wang11,1
11957,C[Si]1(C)O[Si](C)(C)O[Si](C)(C)O[Si](C)(C)O[Si](C)(C)O[Si](C)(C)O1, Dodecamethylcyclohexasiloxane,366.15,wang11,1
11958,C[Si](Cl)(c1ccccc1)c1ccccc1,Methyldiphenylchlorosilane,411.15,wang11,1
11959,CCCCCCCCCCCC[Si](C)(Cl)Cl,n-Dodecylmethyldichlorosilane,416.15,wang11,1
11960,CO[Si](OC)(c1ccccc1)c1ccccc1,Diphenyldimethoxysilane,394.15,wang11,1
11961,CCCCCCCC[Si](OCC)(OCC)OCC,Octyltriethoxysilane,373.15,wang11,1
11962,C[Si](C)(C)O[Si](C)(C)O[Si](C)(C)O[Si](C)(C)O[Si](C)(C)O[Si](C)(C)C,Tetradecamethylhexasiloxane,375.15,wang11,1
11963,C[Si](C)(C)O[Si](C)(C)O[Si](C)(C)O[Si](C)(C)O[Si](C)(C)O[Si](C)(C)O[Si](C)(C)C,Hexadecamethylheptasiloxane,406.15,wang11,1
11964,C[Si](C)(C)O[Si](C)(C)O[Si](C)(C)O[Si](C)(C)O[Si](C)(C)O[Si](C)(C)O[Si](C)(C)O[Si](C)(C)C,Octadecamethyloctasiloxane,417.15,wang11,1
11965,C=C[Si](OCCOC)(OCCOC)OCCOC,Vinyltris(methoxyethoxy)silane,353.15,wang11,1
11966,C=CO[Si](C)(C)C,Trimethyl(vinyloxy)silane,263.15,wang11,1
11967,N#CCCC[Si](Cl)(Cl)Cl,Trichloro(3-cyanopropyl) Silane,365.15,wang11,1
11968,Cl[Si](Cl)(Cl)CCc1ccccc1,Trichloro(2-phenylethyl)silane,364.15,wang11,1
11969,C[Si](C)(Cl)CCC(F)(F)F,"Chlorodimethyl(3,3,3-trifluoropropyl) silane",293.15,wang11,1
11970,C=CC[SiH](O[Si](C)(C)C)O[Si](C)(C)C,Vinylmethylbis (trimethylsiloxy) silane,324.15,wang11,1
11971,ClC[Si](Cl)(Cl)Cl,Trichloro(Chloromethyl) silane,342.15,wang11,1
11972,C[SiH](C)c1c(F)c(F)c(F)c(F)c1F,Dimethyl(pentafluorophenyl) silane,313.15,wang11,1
11973,Clc1ccc([Si](Cl)(Cl)Cl)cc1,Trichloro(p-chlorophenyl)silane,397.05,wang11,1
11974,[SiH3][SiH2][SiH3],Trisilane,273.15,wang11,1
11975,[SiH3]CCCCCCCCC(Cl)(Cl)Cl,Trichlorononylsilane,387.15,wang11,1
11976,[SiH3]CC(Cl)Cl,Dichloroethylsilane,263.75,wang11,1
11977,Clc1cccc([Si](Cl)(Cl)Cl)c1Cl,Trichloro(dichlorophenyl)silane,419.15,wang11,1
11978,C[Si](C)(C)[SiH]([Si](C)(C)C)[Si](C)(C)C,Tris(trimethylsilyl)silane,328.15,wang11,1
11979,C[Si](C)(C)O[SiH](O[Si](C)(C)C)O[Si](C)(C)C,Tris(trimethylsiloxy)silane,323.15,wang11,1
11980,CCCCCCCCCCCCCCCC[Si](Cl)(Cl)Cl,Hexadecyltrichlorosilane,427.15,wang11,1
11981,Cl[SiH2]Cl,Dichlorosilane,236.15,wang11,1
11982,C[SiH](Cl)Cl,Methyldichlorosilane,241.15,wang11,1
11983,C[Si](C)(C)I,Iodotrimethylsilane,288.15,wang11,1
11984,C[Si](C)(Cl)Cl,Dimethyldichlorosilane,257.15,wang11,1
11985,C[Si](C)(Cl)CBr,Bromomethyldimethylchlorosilane,314.15,wang11,1
11986,C[SiH](C)C,Trimethylsilane,204.15,wang11,1
11987,CC(C)=C[SiH2]Cl, Dimethylvinylchlorosilane,268.15,wang11,1
11988,C[Si](C)(Cl)O[Si](C)(C)Cl," 1,3-Dichlorotetramethyldisiloxane",288.15,wang11,1
11989,C[SiH](C)O[SiH](C)C," 1,1,3,3-Tetramethyldisiloxane",251.15,wang11,1
11990,CN([SiH3])[Si](C)(C)C, Tetramethyldisilazane,284.15,wang11,1
11991,C=CC[Si](C)(C)Cl, Allyldimethylchlorosilane,278.15,wang11,1
11992,CCCC(C)[Si](Cl)(Cl)Cl, sec-Amyltrichlorosilane,303.15,wang11,1
11993,CCCC[Si](C)(Cl)Cl, n-Butylmethyldichlorosilane,303.15,wang11,1
11994,CN(C)C([SiH3])N(C)C, Bis(dimethylamino)methylsilane,270.15,wang11,1
11995,Cl[Si](Cl)(Cl)c1ccccc1, Phenyltrichlorosilane,364.15,wang11,1
11996,CC(=O)O[Si](C)(C)OC(C)=O,Dimethyldiacetoxysilane,310.15,wang11,1
11997,CC#C[Si](C)(C)C,1-Trimethylsilylpropyne,270.15,wang11,1
11998,C=C[Si](C)(C)OCC,Vinyldimethylethoxysilane,277.15,wang11,1
11999,C=CCO[Si](C)(C)C,Allyloxytrimethylsilane,273.15,wang11,1
12000,C=CC[Si](OC)(OC)OC,Allyltrimethoxysilane,319.15,wang11,1
12001,CO[Si](CCCCl)(OC)OC,3-Chloropropyltrimethoxysilane,348.15,wang11,1
12002,CCC[Si](OC)(OC)OC,n-Propyltrimethoxysilane,298.15,wang11,1
12003,C[Si](C)(C)O[Si](C)(C)C,Hexamethyldisiloxane,270.15,wang11,1
12004,C[Si](C)(C)[Si](C)(C)C,Hexamethyldisilane,272.15,wang11,1
12005,C=C[Si](C)(CC)CC,Vinyldiethylmethylsilane,288.15,wang11,1
12006,CO[Si](CC(C)C)(OC)OC,Isobutyltrimethoxysilane,315.15,wang11,1
12007,C[Si](C)(Cl)c1ccccc1,Phenyldimethylchlorosilane,334.15,wang11,1
12008,CC[Si](CC)(CC)N(C)C,"(N,N-Dimethylamino)triethylsilane",299.15,wang11,1
12009,C=C[Si](OC(C)=O)(OC(C)=O)OC(C)=O,Vinyltriacetoxysilane,361.15,wang11,1
12010,CC[Si](OC(C)=O)(OC(C)=O)OC(C)=O,Ethyltriacetoxysilane,377.15,wang11,1
12011,C[Si](C)(C)C1C=CCC1,3-(Trimethylsilyl)cyclopentene,299.15,wang11,1
12012,C=C[Si](CC)(CC)CC,Vinyltriethylsilane,298.15,wang11,1
12013,CCCCCCCC[SiH3],n-Octylsilane,309.15,wang11,1
12014,CO[Si](C)(OC)c1ccccc1,Methylphenyldimethoxysilane,349.15,wang11,1
12015,CCO[Si](CCC#N)(OCC)OCC,2-Cyanoethyltriethoxysilane,359.15,wang11,1
12016,CO[Si](CCCOCC1CO1)(OC)OC,3-Glycidoxypropyltrimethoxysilane,383.15,wang11,1
12017,CC(C)(C)[Si](C)(Cl)C(C)(C)C, Di-t-butylmethylchlorosilane,342.15,wang11,1
12018,CCC[Si](Cl)(CCC)CCC,Tri-n-propylchlorosilane,349.15,wang11,1
12019,CC(C)N(C(C)C)[Si](C)(C)C, (Diisopropylamino)trimethylsilane,301.15,wang11,1
12020,C[Si](C)(C)O[Si](C)(C)O[Si](C)(C)O[Si](C)(C)Cl, 1-Chlorononamethyltetrasiloxane,347.15,wang11,1
12021,C[Si](C)(C)OC([SiH3])(O[Si](C)(C)C)O[Si](C)(C)C, Tristrimethylsiloxymethylsilane,336.15,wang11,1
12022,[SiH3]C(c1ccccc1)c1ccccc1,Diphenylmethylsilane,393.15,wang11,1
12023,C=C(C)O[Si](C)(C)C,Trimethyl[(1-methylethenyl)oxy]silane,272.15,wang11,1
12024,FC(F)(F)CC[SiH2]C(Cl)Cl,"Dichloromethyl-3,3,3-trifluoropropylsilane",288.15,wang11,1
12025,C[Si](C)(C)CCOCCl,[2-(chloromethoxy)ethyl]trimethylsilane,319.15,wang11,1
12026,c1ccc([SiH](c2ccccc2)c2ccccc2)cc1,Triphenylsilane,416.35,wang11,1
12027,Cl[SiH](Cl)Cl,Trichlorosilane,245.15,wang11,1
12028,NC1CCCC1,Cyclopentanamine,284.6,didier14,1
12029,CCc1ccccc1,Ethylbenzene,296.1,didier14,1
12030,CNc1ccccc1,"Benzenamine, N-methyl-",351.0,didier14,1
12031,c1ccc(Oc2ccccc2)cc1,Diphenyl ether,388.1,didier14,1
12032,,"Hexanedioic acid,1,6-bis",469.1,didier14,1
12033,,"Benzene,propyl-",312.1,didier14,1
12034,,"Benzenamine,N-ethyl-",358.1,didier14,1
12035,CCCCC(CC)CO,2-Ethylhexanol,346.0,didier14,1
12036,CCc1ccc(CC)cc1,"1,4-Diethylbenzene",330.0,didier14,1
12037,CCCC(C)CO,"1-Pentanol, 2-methyl-",323.1,didier14,1
12038,CCOC(=O)CC,Ethyl propionate,285.0,didier14,1
12039,,DL-sec-Butylacetate,289.0,didier14,1
12040,,"Butanoicacid, ethyl ester",297.1,didier14,1
12041,CCOC(C)OCC,"Ethane, 1,1-diethoxy-",286.1,didier14,1
12042,,"Butanoic acid, propylester",310.1,didier14,1
12043,Cc1ccc(O)c(C)c1,"2,4-Dimethylphenol",368.1,didier14,1
12044,CCCCC(=O)CC,3-Heptanone,310.1,didier14,1
12045,,"Propanoic acid, propylester",294.1,didier14,1
12046,Cc1ccc(C)cc1,"1,4-Dimethylbenzene",299.0,didier14,1
12047,,"Phenol,4-methyl-",359.1,didier14,1
12048,Cc1ccc(N)cc1,p-Toluidine,360.0,didier14,1
12049,C=CC(=O)OCC(C)C,Isobutyl acrylate,304.3,didier14,1
12050,,"Pentane,3-ethyl-3-methyl-",276.0,didier14,1
12051,CCC(CC)(CC)CC,"Pentane, 3,3-diethyl-",294.0,didier14,1
12052,,"Pentane,3-ethyl-2,4-dimethyl-",291.1,didier14,1
12053,C=CC=C,"1,3-Butadiene",197.2,didier14,1
12054,CCCS,1-Propanethiol,253.2,didier14,1
12055,,"Pentane,2,2,4,4-tetramethyl-",278.1,didier14,1
12056,CCC#N,Propanenitrile,279.1,didier14,1
12057,CCCCCC(C)(C)C,"Heptane, 2,2-dimethyl-",292.1,didier14,1
12058,NCCN,"1,2-Ethanediamine",311.0,didier14,1
12059,CC(C)CCCCC(C)C,"Octane, 2,7-dimethyl-",310.9,didier14,1
12060,CCCCCCc1ccccc1,1-Phenylhexane,356.1,didier14,1
12061,CCCCCCCc1ccccc1,"Benzene, heptyl-",370.6,didier14,1
12062,CCCC(C)=O,2-Pentanone,280.0,didier14,1
12063,CCCC(=O)O,Butyric acid,345.1,didier14,1