,smiles,compound,flashpoint,source,pure substance
11377,FC(F)=C(F)C(F)(F)C(F)(F)C(F)(F)C(F)(F)C(F)(F)F,"1,1,2,3,3,4,4,5,5,6,6,7,7,7-tetradecafluorohept-1-ene",288.65,le15,1
11378,CCCCCCCCCCCCCCCCCCCC1CCCCC1,nonadecylcyclohexane,475.15,le15,1
11379,O=C(Nc1ccc(Cl)c(Cl)c1)c1cc(Cl)cc(Cl)c1O,"Benzamide, 3,5-dichloro-N-(3,4-dichlorophenyl)-2-hydroxy-",473.75,le15,1
11380,CN(C)CCCN1c2ccccc2Sc2ccc(C(F)(F)F)cc21,"10H-Phenothiazine-10-propanamine, N,N-dimethyl-2-(trifluoromethyl)-",485.55,le15,1
11381,CCCCCCCCCCCCCCCCCC1=NCCN1CCO,"1H-Imidazole-1-ethanol, 2-heptadecyl-4,5-dihydro-",522.65,le15,1
11382,Nc1nc(=O)n([C@H]2C[C@H](O)[C@@H](CO)O2)cc1I,"Cytidine, 2'-deoxy-5-iodo- (8CI)(9CI)",542.75,le15,1
11383,CC(=O)CC(c1ccc([N+](=O)[O-])cc1)c1c(O)c2ccccc2oc1=O,"2H-1-Benzopyran-2-one, 4-hydroxy-3-(1-(4-nitrophenyl)-3-oxobutyl)-",557.75,le15,1
11384,CCCCCCCCN(CCCCCCCC)CCCCCCCC,"1-Octanamine, N,N-dioctyl-",420.50699999999995,le15,1
11385,CC(C)CCCCCN(CCCCCC(C)C)CCCCCC(C)C,"1-Heptanamine, 6-methyl-N,N-bis(6-methylheptyl)-",421.35,le15,1
11386,FC(F)(I)C(F)(F)I,"1,1,2,2-tetrafluoro-1,2-diiodoethane",309.15,le15,1
11387,Clc1ccc(C(c2ccc(Cl)cc2)C(Cl)(Cl)Cl)cc1,"Benzene, 1,1'-(2,2,2-trichloroethylidene)bis(4-chloro-",477.05,le15,1
11388,ClC(Cl)=C1C(Cl)(Cl)C(Cl)=C(Cl)C1(Cl)Cl,"Cyclopentene, 1,2,3,3,5,5-hexachloro-4-(dichloromethylene)-",437.15,le15,1
11389,O=S(=O)(c1ccc(Cl)cc1)c1cc(Cl)c(Cl)cc1Cl,"Benzene, 1,2,4-trichloro-5-((4-chlorophenyl)sulfonyl)-",519.65,le15,1
11390,Oc1c(Cl)cc(Cl)cc1Sc1cc(Cl)cc(Cl)c1O,"Phenol, 2,2'-thiobis(4,6-dichloro-",495.95,le15,1
11391,O=C(CCBr)N1CCN(C(=O)CCBr)CC1,"Piperazine, 1,4-bis(3-bromo-1-oxopropyl)-",521.55,le15,1
11392,COc1ccc(-c2nc(-c3ccccc3)c(-c3ccccc3)[nH]2)cc1OC,"2-(3,4-Dimethoxyphenyl)-4,5-diphenyl-1H-imidazole",468.65,le15,1
11393,CCN(CC)CCNc1ccc(CO)c2sc3ccccc3c(=O)c12,"Thioxanthen-9-one, 1-((2-(diethylamino)ethyl)amino)-4-(hydroxymethyl)-",572.05,le15,1
11394,CCCCCCOC(=O)CCCCCCCC(=O)OCCCCCC,"Nonanedioic acid, dihexyl ester",446.55,le15,1
11395,CCCCCCCC/C=C\CCCCCCCC(=O)OCC(O)CO,"2,3-dihydroxypropyl (Z)-octadec-9-enoate",428.55,le15,1
11396,CCN(CC)c1ccc(C(O)(C(=O)O)C2CCCCC2)cc1,"Benzeneacetic acid, alpha-cyclohexyl-alpha-hydroxy-, 4-(diethylamino)-",525.95,le15,1
11397,COc1ccc2c(c1)c(CC(=O)O)c(C)n2C(=O)c1ccc(Cl)cc1,"1H-Indole-3-acetic acid, 1-(4-chlorobenzoyl)-5-methoxy-2-methyl-",528.9559999999999,le15,1
11398,O=C1c2c(O)ccc(O)c2C(=O)c2c(NCCO)ccc(NCCO)c21,"Anthraquinone, 1,4-dihydroxy-5,8-bis((2-hydroxyethyl)amino)- (8CI)",684.95,le15,1
11399,C[C@]12CC(=O)[C@H]3[C@@H](CCC4=CC(=O)C=C[C@@]43C)[C@@H]1CC[C@]2(O)C(=O)CO,"Pregna-1,4-diene-3,11,20-trione, 17,21-dihydroxy-",587.95,le15,1
11400,Cc1cc(O)c(C(C)(C)C)cc1Sc1cc(C(C)(C)C)c(O)cc1C,"Phenol, 4,4'-thiobis(2-(1,1-dimethylethyl)-5-methyl-",488.15,le15,1
11401,CCCCCCCCCCCCCCCCCCCCc1ccccc1,icosylbenzene,470.05,le15,1
11402,CCOP(=O)(OCC)OC(=CCl)c1ccc(Cl)cc1Cl,"Phosphoric acid, 2-chloro-1-(2,4-dichlorophenyl)ethenyl diethyl ester",572.05,le15,1
11403,CCCCSc1ccc(C(SCCN(C)C)c2ccccc2)cc1,"Ethanamine, 2-(((4-(butylthio)phenyl)phenylmethyl)thio)-N,N-dimethyl-",508.85,le15,1
11404,c1ccc2cc(Nc3ccc(Nc4ccc5ccccc5c4)cc3)ccc2c1,"1,4-Benzenediamine, N,N'-di-2-naphthalenyl-",672.15,le15,1
11405,C[C@]12CC(=O)[C@H]3[C@@H](CCC4=CC(=O)CC[C@@]43C)[C@@H]1CC[C@]2(O)C(=O)CO,"Pregn-4-ene-3,11,20-trione, 17,21-dihydroxy-",584.3499999999998,le15,1
11406,C[C@]12C[C@H](O)[C@H]3[C@@H](CCC4=CC(=O)C=C[C@@]43C)[C@@H]1CC[C@]2(O)C(=O)CO,"Pregna-1,4-diene-3,20-dione, 11beta,17,21-trihydroxy- (8CI)",586.15,le15,1
11407,OCC1C(CO)C2(Cl)C(Cl)=C(Cl)C1(Cl)C2(Cl)Cl,"Bicyclo(2.2.1)hept-5-ene-2,3-dimethanol, 1,4,5,6,7,7-hexachloro-",475.95,le15,1
11408,CC(C)CCCCCOC(=O)CCCOc1ccc(Cl)cc1Cl,"Butyric acid, 4-(2,4-dichlorophenoxy)-, isooctyl ester",422.25,le15,1
11409,Clc1cc(Cl)c(OCC#CI)cc1Cl,"Benzene, 1,2,4-trichloro-5-((3-iodo-2-propynyl)oxy)-",463.95,le15,1
11410,O=C(O)C1(c2ccccc2)CCN(CCOCC2CCCO2)CC1,1-(2-Tetrahydrofurfuryloxyethyl)-4-phenylpiperidine-4-carboxylic acid,511.35,le15,1
11411,O=C(Nc1cccc2c1C(=O)c1cccc(Cl)c1C2=O)c1ccccc1,"Benzamide, N-(5-chloro-9,10-dihydro-9,10-dioxo-1-anthracenyl)-",533.15,le15,1
11412,CCCCC(CC)COP(=O)(Oc1ccccc1)Oc1ccccc1,"Phosphoric acid, 2-ethylhexyl diphenyl ester",495.15,le15,1
11413,C[C@]12C[C@H](O)[C@H]3[C@@H](CCC4=CC(=O)CC[C@@]43C)[C@@H]1CC[C@]2(O)C(=O)CO,"Pregn-4-ene-3,20-dione, 11,17,21-trihydroxy-, (11beta)-",583.55,le15,1
11414,CCCCCCCOC(=O)c1ccccc1C(=O)OCCCCCCC,"1,2-Benzenedicarboxylic acid, 1,2-diheptyl ester",484.45,le15,1
11415,CC(=O)[C@@]1(O)CC[C@H]2[C@@H]3C=C(Cl)C4=CC(=O)CC[C@]4(C)[C@H]3CC[C@@]21C,"Pregna-4,6-diene-3,20-dione, 6-chloro-17-hydroxy-",533.3499999999998,le15,1
11416,O=C(O)C(F)(F)C(F)(Cl)C(F)(F)C(F)(Cl)C(F)(F)Cl,"3,5,6-Trichloro-2,2,3,4,4,5,6,6-octafluorohexanoic acid",359.54999999999984,le15,1
11417,OCCN1CCN(CCCN2c3ccccc3C=Cc3ccccc32)CC1,"1-Piperazineethanol, 4-(3-(5H-dibenz(b,f)azepin-5-yl)propyl)-",563.65,le15,1
11418,OC(c1ccc(Cl)cc1)(c1ccc(Cl)cc1)c1ccc(Cl)cc1,"4,4',4''-Trichlorotrityl alcohol",523.25,le15,1
11419,O=C(O)C(F)(F)C(F)(F)C(F)(F)C(F)(F)C(F)(F)C(F)(F)F,"2,2,3,3,4,4,5,5,6,6,7,7,7-tridecafluoroheptanoic acid",324.45,le15,1
11420,CC=CC(=O)Oc1c(C(C)CCCCCC)cc([N+](=O)[O-])cc1[N+](=O)[O-],"2-Butenoic acid, 2-(1-methylheptyl)-4,6-dinitrophenyl ester",447.05,le15,1
11421,CC(=O)Oc1ccc(C(=C2CCCCC2)c2ccc(OC(C)=O)cc2)cc1,"Phenol, 4-((4-(acetyloxy)phenyl)cyclohexylidenemethyl)-, acetate (9CI)",527.95,le15,1
11422,CCCCCCCCCCCCCCCCCCCCCC1CCCC1,henicosylcyclopentane,478.95,le15,1
11423,N#Cc1ccc2c(c1)N(CCCN1CCC(O)CC1)c1ccccc1S2,"Phenothiazine-2-carbonitrile, 10-(3-(4-hydroxypiperidino)propyl)-",585.8499999999998,le15,1
11424,CC(C)(c1cc(Cl)c(O)c(Cl)c1)c1cc(Cl)c(O)c(Cl)c1,"Phenol, 4,4'-(1-methylethylidene)bis(2,6-dichloro-",469.95,le15,1
11425,CC(Cl)(Cl)C(=O)OCCOc1cc(Cl)c(Cl)cc1Cl,"Propionic acid, 2,2-dichloro-, 2-(2,4,5-trichlorophenoxy)ethyl ester",430.25,le15,1
11426,CCCCOCCOC(=O)c1ccccc1C(=O)OCCOCCCC,"1,2-Benzenedicarboxylic acid, bis(2-butoxyethyl) ester",444.35,le15,1
11427,O=C(CCCCC(=O)OCC1CCC2OC2C1)OCC1CCC2OC2C1,"Hexanedioic acid, bis(7-oxabicyclo(4.1.0)hept-3-ylmethyl) ester",479.25,le15,1
11428,CCOC(=O)C1(c2ccccc2)CCN(CCOCc2ccccc2)CC1,1-(2-Benzyloxyethyl)-4-phenylpiperidine-4-carboxylic acid ethyl ester,509.85,le15,1
11429,CCCCC(CC)COC(=O)COc1cc(Cl)c(Cl)cc1Cl,"Acetic acid, (2,4,5-trichlorophenoxy)-, 2-ethylhexyl ester",418.05,le15,1
11430,Cc1cccc(OP(=O)(Oc2cccc(C)c2)Oc2cccc(C)c2)c1,"Phosphoric acid, tris(3-methylphenyl) ester",507.45,le15,1
11431,Cc1ccccc1OP(=O)(Oc1ccccc1C)Oc1ccccc1C,"Phosphoric acid, tris(2-methylphenyl) ester",498.15,le15,1
11432,Cc1ncc(CSSCc2cnc(C)c(O)c2CO)c(CO)c1O,"4-Pyridinemethanol, 3,3'-(dithiobis(methylene))bis(5-hydroxy-6-methyl-",676.15,le15,1
11433,CCc1cc(Cc2cc(CC)cc(C(C)(C)C)c2O)c(O)c(C(C)(C)C)c1,"Phenol, 2,2'-methylenebis(6-(1,1-dimethylethyl)-4-ethyl-",460.65,le15,1
11434,O=[N+]([O-])c1cc(Cl)c(N=Nc2ccc(CNCCO)cc2)c(Cl)c1,"Ethanol, 2-((4-((2,6-dichloro-4-nitrophenyl)azo)phenyl)methylamino)-",568.95,le15,1
11435,O=[N+]([O-])c1cc(S(=O)(=O)Nc2ccccc2)ccc1Nc1ccccc1,"Sulfanilanilide, 3-nitro-N4-phenyl- (8CI)",558.45,le15,1
11436,CCCCCCCC/C=C\CCCCCCCC(=O)N(CCO)CCO,"9-Octadecenamide, N,N-bis(2-hydroxyethyl)-, (9Z)-",544.8499999999998,le15,1
11437,CCCCOC(C)COC(=O)COc1cc(Cl)c(Cl)cc1Cl,"Acetic acid, 2,4,5-trichlorophenoxy-, 2-butoxypropyl ester",431.95,le15,1
11438,FC(F)C(F)(F)C(F)(F)C(F)(F)C(F)(F)C(F)(F)C(F)(F)F,"1,1,1,2,2,3,3,4,4,5,5,6,6,7,7-pentadecafluoroheptane",296.45,le15,1
11439,CCCCC(CC)COC(=O)CCCCC(=O)OCC(CC)CCCC,"Hexanedioic acid, bis(2-ethylhexyl) ester",442.05,le15,1
11440,CCCCCCCCOC(=O)CCCCC(=O)OCCCCCCCC,dioctyl hexanedioate,451.75,le15,1
11441,CC(C)CCC[C@@H](C)[C@H]1CC[C@H]2[C@@H]3CC=C4CCCC[C@]4(C)[C@H]3CC[C@@]21C,Cholest-5-ene,494.05,le15,1
11442,C[Si]1(C)O[Si](C)(C)O[Si](C)(C)O[Si](C)(C)O[Si](C)(C)O1,"Cyclopentasiloxane, decamethyl-",368.75,le15,1
11443,N#Cc1cc(I)c(O)c(I)c1,"Benzonitrile, 3,5-diiodo-4-hydroxy-",397.85,le15,1
11444,O=S(c1cc(Cl)cc(Cl)c1O)c1cc(Cl)cc(Cl)c1O,"Phenol, 2,2'-sulfinylbis(4,6-dichloro-",549.15,le15,1
11445,CCCCCCCCCCCCCCCCCC(=O)OCCOCCO,"Octadecanoic acid, 2-(2-hydroxyethoxy)ethyl ester",420.45,le15,1
11446,O=Cc1cc(I)cc(I)c1O,"3,5-Diiodosalicylaldehyde",411.15,le15,1
11447,CN1CCN(CCCN2c3ccccc3Sc3ccc(Cl)cc32)CC1,"10H-Phenothiazine, 2-chloro-10-(3-(4-methyl-1-piperazinyl)propyl)-",544.3499999999998,le15,1
11448,ClC1=C(Cl)C2(Cl)C3C(Cl)CCC3C1(Cl)C2(Cl)Cl,"4,7-Methanoindan, 1,4,5,6,7,8,8-heptachloro-3a,4,7,7a-tetrahydro-",462.55,le15,1
11449,COc1ccc(-c2cc(N)c3c(c2O)C(=O)c2c(N)ccc(O)c2C3=O)cc1,"9,10-Anthracenedione, 4,8-diamino-1,5-dihydroxy-2-(4-methoxyphenyl)-",668.15,le15,1
11450,CCC(COc1ccc(C(C)(C)C)cc1)OS(=O)Oc1ccccc1C,"Sulfurous acid, 1-((p-tert-butylphenoxy)methyl)propyl o-tolyl ester",554.15,le15,1
11451,ClC(COCC(Cl)C(Cl)(Cl)Cl)C(Cl)(Cl)Cl,"Propane, 1,1'-oxybis(2,3,3,3-tetrachloro-",407.55,le15,1
11452,COc1cc2[nH]c(C)c(CCN3CCN(c4ccccc4)CC3)c2cc1OC,"1H-Indole, 5,6-dimethoxy-2-methyl-3-(2-(4-phenyl-1-piperazinyl)ethyl)-",562.95,le15,1
11453,CCCCCCCCCCCCCCCCCCI,1-iodooctadecane,420.95,le15,1
11454,CC/C(=C(/CC)c1ccc(O)cc1)c1ccc(O)cc1.CCC(=O)O.CCC(=O)O,"Phenol, 4,4'-((1E)-1,2-diethyl-1,2-ethenediyl)bis-, dipropanoate",510.15,le15,1
11455,CCCCC(CC)COP(=O)(OCCCO)OCC(CC)CCCC,"Phosphoric acid, di(2-ethylhexyl) hydroxypropyl ester",505.75,le15,1
11456,COP(=O)(OC)OC(Br)C(Cl)(Cl)Br,"Phosphoric acid, 1,2-dibromo-2,2-dichloroethyl dimethyl ester",392.55,le15,1
11457,Nc1c(Br)cc(Br)c2c1C(=O)c1ccccc1C2=O,"9,10-Anthracenedione, 1-amino-2,4-dibromo-",559.8499999999998,le15,1
11458,CC(=O)c1ccc2c(c1)N(CCCN1CCN(C)CC1)c1ccccc1S2,"Ketone, methyl 10-(3-(4-methyl-1-piperazinyl)propyl)phenothiazin-2-yl",562.45,le15,1
11459,CCCCCCCCCCCCCNCCCCCCCCCCCCC,"1-Tridecanamine, N-tridecyl-",436.05,le15,1
11460,CCCCCCCCOP(OCC(CC)CCCC)Oc1ccccc1,"Phosphorous acid, 2-ethylhexyl octyl phenyl ester",529.8499999999998,le15,1
11461,CCCC(c1cc(C(C)(C)C)c(O)cc1C)c1cc(C(C)(C)C)c(O)cc1C,"Phenol, 4,4'-butylidenebis(2-(1,1-dimethylethyl)-5-methyl-",469.95,le15,1
11462,S=C(SSSSC(=S)N1CCCCC1)N1CCCCC1,"Tetrasulfide, bis(piperidinothiocarbonyl) (8CI)",535.45,le15,1
11463,C[Si](C)(C)O[Si](C)(C)O[Si](C)(C)O[Si](C)(C)O[Si](C)(C)C,bis[[dimethyl(trimethylsilyloxy)silyl]oxy]-dimethylsilane,390.55,le15,1
11464,CC(=O)O.CC(=O)[C@@]1(O)CC[C@H]2[C@@H]3C[C@H](C)C4=CC(=O)CC[C@]4(C)[C@H]3CC[C@@]21C,"Pregn-4-ene-3,20-dione, 17-hydroxy-6alpha-methyl-, acetate (8CI)",486.35,le15,1
11465,CSCC[C@H](NC(=O)COc1cc(Cl)c(Cl)cc1Cl)C(=O)O,"N-((2,4,5-Trichlorophenoxy)acetyl)-L-methionine",608.8499999999998,le15,1
11466,BrCC(CBr)(CBr)CBr,"Propane, 1,3-dibromo-2,2-bis(bromomethyl)-",425.65,le15,1
11467,FC(F)(F)C(F)(F)C(F)(F)C(F)(F)C(F)(F)C(F)(F)C(F)(F)F,"1,1,1,2,2,3,3,4,4,5,5,6,6,7,7,7-hexadecafluoroheptane",289.85,le15,1
11468,O=C1C(CCSc2ccccc2)C(=O)N(c2ccccc2)N1c1ccccc1,"3,5-Pyrazolidinedione, 1,2-diphenyl-4-(2-(phenylthio)ethyl)-",552.3499999999998,le15,1
11469,O=c1oc2cc(-n3nc4ccc5ccccc5c4n3)ccc2cc1-c1ccccc1,"2H-1-Benzopyran-2-one, 7-(2H-naphtho(1,2-d)triazol-2-yl)-3-phenyl-",626.75,le15,1
11470,CCCCC(CC)COC(=O)c1ccccc1C(=O)OCC(CC)CCCC,"1,2-Benzenedicarboxylic acid, bis(2-ethylhexyl) ester",477.65,le15,1
11471,CCCCCCCCOC(=O)c1ccccc1C(=O)OCCCCCCCC,"1,2-Benzenedicarboxylic acid, dioctyl ester",495.45,le15,1
11472,CCCCC(CC)COC(=O)c1cccc(C(=O)OCC(CC)CCCC)c1,"1,3-Benzenedicarboxylic acid, bis(2-ethylhexyl) ester",481.55,le15,1
11473,C[C@H](CCC(=O)O)[C@H]1CC[C@H]2[C@@H]3CC[C@@H]4C[C@@H](O)CC[C@]4(C)[C@H]3CC(=O)[C@@]21C,3beta-Hydroxy-12-oxo-5beta-cholanoic acid,571.15,le15,1
11474,CC(C)CCCCCOC(=O)c1ccccc1C(=O)OCCCCCC(C)C,"1,2-Benzenedicarboxylic acid, diisooctyl ester",477.65,le15,1
11475,O=[N+]([O-])c1cc(I)c(O)c(I)c1,"Phenol, 2,6-diiodo-4-nitro-",414.75,le15,1
11476,Cc1cc(Cc2cc(C)cc(C3CCCCC3)c2O)c(O)c(C2CCCCC2)c1,"p-Cresol, 2,2'-methylenebis(6-cyclohexyl- (6CI,7CI,8CI)",472.65,le15,1
11477,Brc1cc(Br)c(Br)cc1Br,"Benzene, 1,2,4,5-tetrabromo-",421.65,le15,1
11478,IC(I)I,"Methane, triiodo-",477.15,le15,1
11479,ClC1=C(Cl)C2(Cl)C(CBr)CC1(Cl)C2(Cl)Cl,"Bicyclo(2.2.1)hept-2-ene, 5-(bromomethyl)-1,2,3,4,7,7-hexachloro-",479.65,le15,1
11480,CCOP(=S)(OCC)Oc1cc(Cl)c(Br)cc1Cl,"Phosphorothioic acid, O-(4-bromo-2,5-dichlorophenyl) O,O-diethyl ester",462.05,le15,1
11481,CCCCC(CC)COC(=O)C1=C(C(=O)OCC(CC)CCCC)CCCC1,"Cyclohexene-1,2-dicarboxylic acid, bis(2-ethylhexyl) ester",491.85,le15,1
11482,CCCCCCCCCCCCCCCCCCCCCCCCCCCC,octacosane,500.15,le15,1
11483,O=C(O)c1cc(N=Nc2ccc(S(=O)(=O)Nc3ccccn3)cc2)ccc1O,"Benzoic acid, 2-hydroxy-5-((4-((2-pyridinylamino)sulfonyl)phenyl)azo)-",608.55,le15,1
11484,CCCCOCCO.CCCCOCCO.CCCCOCCO.O=P(O)(O)O,"Ethanol, 2-butoxy-, phosphate (3:1)",514.65,le15,1
11485,CCCCC1COCCN1C(=O)NCCNC(=O)N1CCOCC1CCCC,"N,N'-1,2-Ethanediylbis(n-butyl-4-morpholinecarboxamide)",572.45,le15,1
11486,FC(F)(F)C(F)(F)C(F)(F)C(F)(F)C(F)(F)C(F)(F)Br,"1-bromo-1,1,2,2,3,3,4,4,5,5,6,6,6-tridecafluorohexane",286.45,le15,1
11487,CC(C)(C)c1cc(Cl)cc(Sc2cc(Cl)cc(C(C)(C)C)c2O)c1O,"Phenol, 2,2'-thiobis(6-tert-butyl-4-chloro-",502.75,le15,1
11488,Brc1sc(Br)c(Br)c1Br,"2,3,4,5-tetrabromothiophene",420.25,le15,1
11489,FC(F)(F)C1(F)C(F)(F)C(F)(F)C(F)(F)C(F)(F)C1(F)C(F)(F)F,"1,1,2,2,3,3,4,4,5,6-decafluoro-5,6-bis(trifluoromethyl)cyclohexane",287.35,le15,1
11490,FC(F)(F)C1(F)C(F)(F)C(F)(F)C(F)(F)C(F)(C(F)(F)F)C1(F)F,"1,1,2,2,3,3,4,5,5,6-decafluoro-4,6-bis(trifluoromethyl)cyclohexane",284.65,le15,1
11491,CCCCCCC(=O)O[C@H]1CC[C@H]2[C@@H]3CCC4=CC(=O)CC[C@]4(C)[C@H]3CC[C@]12C,"Androst-4-en-3-one, 17-((1-oxoheptyl)oxy)-, (17beta)-",487.35,le15,1
11492,O=C(Nc1cc(Cl)cc(Cl)c1O)c1c(O)c(Cl)cc(Cl)c1Cl,"Benzamide, 2,3,5-trichloro-N-(3,5-dichloro-2-hydroxyphenyl)-6-hydroxy-",496.65,le15,1
11493,O=P(Oc1ccccc1)(Oc1ccccc1)Oc1ccccc1-c1ccccc1,"Phosphoric acid, (1,1'-biphenyl)-2-yl diphenyl ester (9CI)",539.15,le15,1
11494,CC(=O)OCC(=O)[C@@]1(O)CC[C@H]2[C@@H]3CCC4=CC(=O)CC[C@]4(C)[C@H]3C(=O)C[C@@]21C,"Pregn-4-ene-3,11,20-trione, 21-(acetyloxy)-17-hydroxy-",470.45,le15,1
11495,CC(=O)O.CCCCOC(=O)CC(O)(CC(=O)OCCCC)C(=O)OCCCC,"Citric acid, tributyl ester, acetate (8CI)",448.25,le15,1
11496,C[C@H](CCC(=O)O)[C@H]1CC[C@H]2[C@@H]3C(=O)C[C@@H]4CC(=O)CC[C@]4(C)[C@H]3CC(=O)[C@@]21C,"5beta-Cholan-24-oic acid, 3,7,12-trioxo- (8CI)",592.65,le15,1
11497,CC(C)CCC[C@@H](C)[C@H]1CC[C@H]2[C@@H]3C[C@@H]4O[C@@]45C[C@@H](O)CC[C@]5(C)[C@H]3CC[C@@]21C,"Cholestan-3-ol, 5,6-epoxy-, (3beta,5alpha,6alpha)- (9CI)",474.05,le15,1
11498,Clc1c(Cl)c(Cl)c2c(Cl)c(Cl)c(Cl)c(Cl)c2c1Cl,"Naphthalene, 1,2,3,4,5,6,7,8-octachloro-",487.35,le15,1
11499,OCCN1CCN(CCCN2c3ccccc3Sc3ccc(Cl)cc32)CC1,"1-Piperazineethanol, 4-(3-(2-chloro-10H-phenothiazin-10-yl)propyl)-",577.95,le15,1
11500,O=C1C(CCS(=O)c2ccccc2)C(=O)N(c2ccccc2)N1c1ccccc1,"3,5-Pyrazolidinedione, 1,2-diphenyl-4-(2-(phenylsulfinyl)ethyl)-",584.25,le15,1
11501,CC(=O)O.CC(=O)[C@@]1(O)CC[C@H]2[C@@H]3C=C(Cl)C4=CC(=O)CC[C@]4(C)[C@H]3CC[C@@]21C,"Pregna-4,6-diene-3,20-dione, 6-chloro-17-hydroxy-, acetate",445.65,le15,1
11502,CCN(CC)CCOc1ccc(C(=C(Cl)c2ccccc2)c2ccccc2)cc1,"Ethanamine, 2-(4-(2-chloro-1,2-diphenylethenyl)phenoxy)-N,N-diethyl-",534.75,le15,1
11503,O=C(OC(=O)C(F)(F)C(F)(F)C(F)(F)F)C(F)(F)C(F)(F)C(F)(F)F,"2,2,3,3,4,4,4-heptafluorobutanoyl 2,2,3,3,4,4,4-heptafluorobutanoate",292.0499999999999,le15,1
11504,CCc1ccccc1OP(=O)(O)O,"Phenol, o-ethyl-, phosphate (6CI,7CI)",530.05,le15,1
11505,Cc1ccc(O)c(C)c1.Cc1ccc(O)c(C)c1.Cc1ccc(O)c(C)c1.O=P(O)(O)O,"Phenol, 2,4-dimethyl-, phosphate (3:1)",517.75,le15,1
11506,CCCCCCCCCCCCCCCCCCCCCCCCCCCCO,1-Octacosanol,408.45,le15,1
11507,CCCCC(CC)COC(=O)CCCCCCCC(=O)OCC(CC)CCCC,"Nonanedioic acid, bis(2-ethylhexyl) ester",457.75,le15,1
11508,CCCCCCCCCCCCCCCCCC(=O)N[C@@H](CCC(=O)O)C(=O)O,"L-Glutamic acid, N-(1-oxooctadecyl)- (9CI)",589.95,le15,1
11509,O=C(O)C(F)(F)C(F)(F)C(F)(F)C(F)(F)C(F)(F)C(F)(F)C(F)(F)F,"Octanoic acid, 2,2,3,3,4,4,5,5,6,6,7,7,8,8,8-pentadecafluoro-",335.25,le15,1
11510,OCCOCCOCCOCCOCCOCCOCCOCCOCCO,"3,6,9,12,15,18,21,24-Octaoxahexacosane-1,26-diol",533.15,le15,1
11511,CC[C@H](CC[C@@H](C)[C@H]1CC[C@H]2[C@@H]3CC=C4C[C@@H](O)CC[C@]4(C)[C@H]3CC[C@@]21C)C(C)C,"Stigmast-5-en-3-ol, (3beta)-",493.55,le15,1
11512,FC(F)(F)C(F)(F)C(F)(F)C(F)(F)C1(F)OC(F)(F)C(F)(F)C1(F)F,"2,2,3,3,4,4,5-heptafluoro-5-(1,1,2,2,3,3,4,4,4-nonafluorobutyl)oxolane",290.75,le15,1
11513,Cc1ccc(Nc2ccc(Nc3ccc(C)cc3)c3c2C(=O)c2ccccc2C3=O)cc1,"9,10-Anthracenedione, 1,4-bis((4-methylphenyl)amino)-",470.15,le15,1
11514,CCCCCCCCCCOC(=O)c1ccccc1C(=O)OCCCCCCCC,"1,2-Benzenedicarboxylic acid, decyl octyl ester",506.25,le15,1
11515,CCCCCCCCOC(=O)c1ccccc1C(=O)OCCCCCCCC(C)C,"2-O-(8-methylnonyl) 1-O-octyl benzene-1,2-dicarboxylate",497.75,le15,1
11516,CCCCCCCCCOC(=O)c1ccccc1C(=O)OCCCCCCCCC,"dinonyl benzene-1,2-dicarboxylate",506.25,le15,1
11517,CC(C)CCC[C@@H](C)[C@H]1CC[C@H]2[C@@H]3C[C@@H](O)[C@@]4(O)C[C@@H](O)CC[C@]4(C)[C@H]3CC[C@@]21C,"Cholestane-3,5,6-triol, (3beta,5alpha,6beta)- (9CI)",485.65,le15,1
11518,Cc1c(C)c(Br)c(Br)c(Br)c1Br,"1,2,3,4-tetrabromo-5,6-dimethylbenzene",450.75,le15,1
11519,FC(F)(F)c1nc2cc(Br)c(Br)c(Br)c2[nH]1,"Benzimidazole, 4,5,6-tribromo-2-(trifluoromethyl)-",486.95,le15,1
11520,CC(C)CCCC(C)CCCC(C)CCCCC(C)CCCC(C)CCCC(C)C,"2,6,10,15,19,23-hexamethyltetracosane",490.95,le15,1
11521,Cc1c(O)c(Br)c(Br)c(Br)c1Br,"o-Cresol, tetrabromo- (8CI)",443.45,le15,1
11522,CCc1oc2ccccc2c1C(=O)c1cc(Br)c(O)c(Br)c1,"Methanone, (3,5-dibromo-4-hydroxyphenyl)(2-ethyl-3-benzofuranyl)-",537.8499999999998,le15,1
11523,BrC(Br)C(Br)(Br)Br,"Ethane, pentabromo-",393.45,le15,1
11524,CC(C)(C)c1cc(Cc2cc(C(C)(C)C)c(O)c(C(C)(C)C)c2)cc(C(C)(C)C)c1O,"Phenol, 4,4'-methylenebis(2,6-bis(1,1-dimethylethyl)-",451.25,le15,1
11525,CCCCCCCCCCCCCCOC(=O)CCCCCCCCCCCCC,"Tetradecanoic acid, tetradecyl ester",513.95,le15,1
11526,Oc1c(O)c(Br)c(Br)c(Br)c1Br,"1,2-Benzenediol, 3,4,5,6-tetrabromo- (9CI)",432.15,le15,1
11527,CCCCC(CC)COC(=O)CCCCCCCCC(=O)OCC(CC)CCCC,"Sebacic acid, bis(2-ethylhexyl) ester (8CI)",462.805,le15,1
11528,BrCC(Br)C1CCC(Br)C(Br)C1,"Cyclohexane, 1,2-dibromo-4-(1,2-dibromoethyl)-",446.45,le15,1
11529,COC(=O)C(F)(F)C(F)(F)C(F)(F)C(F)(F)C(F)(F)C(F)(F)C(F)(F)F,"methyl 2,2,3,3,4,4,5,5,6,6,7,7,8,8,8-pentadecafluorooctanoate",318.65,le15,1
11530,O=P(O)(O)OP(=O)(O)OC[C@H]1O[C@@H](n2cnc3c(O)ncnc32)[C@H](O)[C@@H]1O,Inosine 5'-(trihydrogen pyrophosphate),786.4499999999997,le15,1
11531,CC(=O)O[C@H]1CC[C@@]2(C)C(=CC[C@@H]3[C@@H]2CC[C@@]2(C)[C@H]3CC[C@@H]2[C@H](C)CCCC(C)C)C1,"Cholesterol, acetate (8CI)",521.95,le15,1
11532,ClC(=Nc1c(Cl)c(Cl)c(Cl)c(Cl)c1Cl)C(Cl)(Cl)Cl,"Ethanimidoyl chloride, 2,2,2-trichloro-N-(pentachlorophenyl)-",499.25,le15,1
11533,CC(C)(C)c1ccc2oc(-c3ccc(-c4nc5cc(C(C)(C)C)ccc5o4)s3)nc2c1,"Benzoxazole, 2,2'-(2,5-thiophenediyl)bis(5-(1,1-dimethylethyl)-",548.25,le15,1
11534,N#CC(CCN1CCC(C(N)=O)(N2CCCCC2)CC1)(c1ccccc1)c1ccccc1,"(1,4'-Bipiperidine)-4'-carboxamide, 1'-(3-cyano-3,3-diphenylpropyl)-",615.45,le15,1
11535,OCC(F)(F)C(F)(F)C(F)(F)C(F)(F)C(F)(F)C(F)(F)C(F)(F)C(F)F,"1-Nonanol, 2,2,3,3,4,4,5,5,6,6,7,7,8,8,9,9-hexadecafluoro-",346.54999999999984,le15,1
11536,CC(COC(=O)c1ccccc1)(COC(=O)c1ccccc1)COC(=O)c1ccccc1,"1,3-Propanediol, 2-((benzoyloxy)methyl)-2-methyl-, 1,3-dibenzoate",518.45,le15,1
11537,CCCCC(CC)COP(=O)(OCC(CC)CCCC)OCC(CC)CCCC,"Phosphoric acid, tris(2-ethylhexyl) ester",479.75,le15,1
11538,CCCCCCCCOP(=O)(OCCCCCCCC)OCCCCCCCC,"Phosphoric acid, trioctyl ester",491.15,le15,1
11539,CCCCCCCCOP(=O)(OCCCCCCCC)OCCCCCCCC,TrioctylPhosphate,491.15,le15,1
11540,FC(F)(F)C(F)(F)C(F)(F)C(F)(F)C(F)(F)C(F)(F)C(F)(F)C(F)(F)F,"1,1,1,2,2,3,3,4,4,5,5,6,6,7,7,8,8,8-octadecafluorooctane",303.85,le15,1
11541,O=[N+]([O-])c1cc([N+](=O)[O-])c(Nc2c([N+](=O)[O-])cc([N+](=O)[O-])cc2[N+](=O)[O-])c([N+](=O)[O-])c1,"Benzenamine, 2,4,6-trinitro-N-(2,4,6-trinitrophenyl)-",549.05,le15,1
11542,O=c1c2ccccc2c(=O)c2c1ccc1[nH]c3c(ccc4c(=O)c5ccccc5c(=O)c43)[nH]c12,"5,9,14,18-Anthrazinetetrone, 6,15-dihydro-",527.05,le15,1
11543,COP(=O)(Oc1ccccc1)OC(Br)C(Cl)(Cl)Br,"Phosphoric acid, 1,2-dibromo-2,2-dichloroethyl methyl phenyl ester",436.55,le15,1
11544,C[Si]1(C)O[Si](C)(C)O[Si](C)(C)O[Si](C)(C)O[Si](C)(C)O[Si](C)(C)O1,"Cyclohexasiloxane, dodecamethyl-",397.55,le15,1
11545,Ic1nc(I)c(I)[nH]1,"1H-Imidazole, 2,4,5-triiodo- (9CI)",504.65,le15,1