,smiles,compound,flashpoint,source,pure substance
9682,CC(/C=C/c1ccccc1)c1ccccc1,[(E)-4-phenylbut-3-en-2-yl]benzene,418.35,le15,1
9683,CC(=O)OCCC1=CCC2CC1C2(C)C,"Bicyclo(3.1.1)hept-2-ene-2-ethanol, 6,6-dimethyl-, acetate",373.85,le15,1
9684,CC(CC1CCCCC1)C1CCCCC1,1-cyclohexylpropan-2-ylcyclohexane,388.75,le15,1
9685,CC(C)(C1CCCCC1)C1CCCCC1,2-cyclohexylpropan-2-ylcyclohexane,385.55,le15,1
9686,CCC(C1CCCCC1)C1CCCCC1,1-cyclohexylpropylcyclohexane,388.35,le15,1
9687,O=C(Cl)c1cccc(C(F)(F)F)c1,3-(trifluoromethyl)benzoyl chloride,348.65,le15,1
9688,CCOC(=O)C(Br)C(C)C,"Butanoic acid, 2-bromo-3-methyl-, ethyl ester",345.65,le15,1
9689,CCCC(Br)C(=O)OCC,"Pentanoic acid, 2-bromo-, ethyl ester",353.75,le15,1
9690,O=C(O)CCCCCCBr,7-bromoheptanoic acid,396.75,le15,1
9691,COC(=O)c1ccc(C(=O)OC)c(N)c1,"1,4-Benzenedicarboxylic acid, 2-amino-, dimethyl ester",445.75,le15,1
9692,O=CNc1ccc2c(c1)Cc1ccccc1-2,"Formamide, N-9H-fluoren-2-yl- (9CI)",542.75,le15,1
9693,Cc1ccc(-c2nc3ccccc3o2)cc1,"Benzoxazole, 2-p-tolyl- (8CI)",398.55,le15,1
9694,CNC(=O)Oc1ccccc1OC(C)C,"Carbamic acid, methyl-, o-isopropoxyphenyl ester",405.65,le15,1
9695,Nc1ccc2c(N)c3ccccc3nc2c1,"3,9-Acridinediamine (9CI)",557.45,le15,1
9696,CCCCc1c(C)[nH]c(N(C)C)nc1=O,"4(1H)-Pyrimidinone, 5-butyl-2-(dimethylamino)-6-methyl- (9CI)",406.05,le15,1
9697,O=C(Cl)c1ccc(Cl)cc1Cl,"Benzoyl chloride, 2,4-dichloro-",376.55,le15,1
9698,O=C(Cl)c1ccc(Cl)c(Cl)c1,"3,4-dichlorobenzoyl chloride",415.15,le15,1
9699,O=C(Cl)c1c(Cl)cccc1Cl,"2,6-Dichlorobenzoyl chloride",380.55,le15,1
9700,O=C1CCC(=O)N1c1ccc(Cl)cc1,"Succinimide, N-(p-chlorophenyl)- (8CI)",499.25,le15,1
9701,ClCC(CCl)(CCl)CCl,"Propane, 1,3-dichloro-2,2-bis(chloromethyl)-",367.95,le15,1
9702,FC(F)(F)CI,"1,1,1-trifluoro-2-iodoethane",280.54999999999995,le15,1
9703,O=C(OC(=O)C(F)(F)F)C(F)(F)F,"(2,2,2-trifluoroacetyl) 2,2,2-trifluoroacetate",247.15,le15,1
9704,Ic1cccs1,2-iodothiophene,344.25,le15,1
9705,CCO[As](OCC)OCC,triethyl arsorite,322.5499999999999,le15,1
9706,O=C(O)c1ccc(C(=O)O)c(C(=O)O)c1,"benzene-1,2,4-tricarboxylic acid",546.764,le15,1
9707,COc1cc([N+](=O)[O-])ccc1NC(C)=O,"Acetamide, N-(2-methoxy-4-nitrophenyl)-",474.55,le15,1
9708,CCNC(=O)C=Cc1ccc([N+](=O)[O-])o1,"2-Furanacrylamide, N-ethyl-5-nitro-",482.05,le15,1
9709,Cn1c(=O)c2c([nH]c(=O)n2C)n(C)c1=O,"1H-Purine-2,6,8(3H)-trione, 7,9-dihydro-1,3,7-trimethyl-",515.25,le15,1
9710,CCCCOP(=O)([O-])OCCCC,"Phosphoric acid, dibutyl ester",393.45,le15,1
9711,O=C(C(=O)c1ccccc1)c1ccccc1,"1,2-Ethanedione, 1,2-diphenyl-",415.75,le15,1
9712,O=Cc1ccccc1-c1ccccc1C=O,"(1,1'-Biphenyl)-2,2'-dicarboxaldehyde (9CI)",424.25,le15,1
9713,CCOC(=O)c1ccc(OC)c(OC)c1,"ethyl 3,4-dimethoxybenzoate",402.65,le15,1
9714,COC(=O)C1C2C=CC(C2)C1C(=O)OC,"Bicyclo(2.2.1)hept-5-ene-2,3-dicarboxylic acid, dimethyl ester (9CI)",402.55,le15,1
9715,Nc1cc2nc3ccccc3nc2cc1N,"2,3-Phenazinediamine (9CI)",555.8499999999998,le15,1
9716,Nc1ccc2nc3ccc(N)cc3nc2c1,"2,8-Diaminophenazine",576.25,le15,1
9717,O=C(Cc1ccccc1)Cc1ccccc1,"2-Propanone, 1,3-diphenyl-",422.55,le15,1
9718,CC(=O)C(c1ccccc1)c1ccccc1,"1,1-diphenylpropan-2-one",406.95,le15,1
9719,Cc1ccc(C(=O)c2ccccc2)cc1C,"(3,4-dimethylphenyl)-phenylmethanone",426.85,le15,1
9720,c1ccc(C2CCc3ccccc3O2)cc1,"2-phenyl-3,4-dihydro-2H-chromene",430.35,le15,1
9721,Nc1ccc(C=Cc2ccc(N)cc2)cc1,"Benzenamine, 4,4'-(1,2-ethenediyl)bis- (9CI)",535.65,le15,1
9722,Cc1ccc(C(C)c2ccc(C)cc2)cc1,"Benzene, 1,1'-ethylidenebis(4-methyl-",415.25,le15,1
9723,CCC(=O)OC/C=C(/C)CCC=C(C)C,"2,6-Octadien-1-ol, 3,7-dimethyl-, propanoate, (2Z)-",370.85,le15,1
9724,C=CC(C)(CCC=C(C)C)OC(=O)CC,"1,6-Octadien-3-ol, 3,7-dimethyl-, propionate (7CI,8CI)",370.15,le15,1
9725,CCC(=O)OC/C=C(\C)CCC=C(C)C,"2,6-Octadien-1-ol, 3,7-dimethyl-, propionate, (E)- (8CI)",386.15,le15,1
9726,O=NN(C1CCCCC1)C1CCCCC1,"Cyclohexanamine, N-cyclohexyl-N-nitroso- (9CI)",440.45,le15,1
9727,C(CC1CCNCC1)CC1CCNCC1,4-(3-piperidin-4-ylpropyl)piperidine,405.25,le15,1
9728,CCCCCCCCCCC1CCCC1,decylcyclopentane,388.55,le15,1
9729,CCCCCCCCCC1CCCCC1,nonylcyclohexane,389.95,le15,1
9730,CCOC(=O)C=Cc1ccc(Cl)cc1,"2-Propenoic acid, 3-(4-chlorophenyl)-, ethyl ester",425.05,le15,1
9731,ClC(Cl)I,dichloro(iodo)methane,304.35,le15,1
9732,O=P(Cl)(Cl)Oc1ccccc1,dichlorophosphoryloxybenzene,372.25,le15,1
9733,O=CC(Br)=Cc1ccccc1,"2-Propenal, 2-bromo-3-phenyl- (9CI)",383.35,le15,1
9734,O=S(=O)(Cl)c1ccc(Cl)cc1,"Benzenesulfonyl chloride, 4-chloro-",380.15,le15,1
9735,O=S(=O)(Cl)c1ccccc1Cl,"Benzenesulfonyl chloride, o-chloro- (6CI,7CI,8CI)",402.85,le15,1
9736,O=C(O)c1cccc([N+](=O)[O-])c1C(=O)O,"Phthalic acid, 3-nitro- (8CI)",472.55,le15,1
9737,NC(=O)c1cc([N+](=O)[O-])cc([N+](=O)[O-])c1,"Benzamide, 3,5-dinitro-",417.15,le15,1
9738,N#Cc1ccc2nc(C(F)(F)F)[nH]c2c1,"Benzimidazole-5-carbonitrile, 2-(trifluoromethyl)-",439.65,le15,1
9739,ClC1CCC2SC1CCC2Cl,"9-Thiabicyclo(3.3.1)nonane, 2,6-dichloro-",417.45,le15,1
9740,O=[N+]([O-])c1ccc2c(c1)-c1ccccc1C2,"9H-Fluorene, 3-nitro- (9CI)",463.75,le15,1
9741,Nc1cc2nc3ccccc3nc2cc1O,2-Amino-3-hydroxyphenazine,457.75,le15,1
9742,Nc1ccn([C@H]2CC[C@@H](CO)O2)c(=O)n1,"Cytidine, 2',3'-dideoxy-",477.95,le15,1
9743,CC(=O)Nc1ccccc1-c1ccccc1,N-(2-phenylphenyl)acetamide,498.65,le15,1
9744,NC(=O)C(c1ccccc1)c1ccccc1,"Benzeneacetamide, alpha-phenyl- (9CI)",463.45,le15,1
9745,N=C(Nc1ccccc1)Nc1ccccc1,"Guanidine, N,N'-diphenyl-",431.65,le15,1
9746,CC(C)NCC(O)c1cc(O)cc(O)c1,"1,3-Benzenediol, 5-(1-hydroxy-2-((1-methylethyl)amino)ethyl)- (9CI)",452.85,le15,1
9747,c1ccc(-c2nc3ccccc3s2)cc1,"2-phenyl-1,3-benzothiazole",447.55,le15,1
9748,CCCCC(CC)CNC1CCCCC1,"Cyclohexanamine, N-(2-ethylhexyl)- (9CI)",384.95,le15,1
9749,COc1c(Cl)ccc(Cl)c1Cl,"Benzene, 1,2,4-trichloro-3-methoxy-",373.55,le15,1
9750,Cc1c(Cl)cc(Cl)c(O)c1Cl,"2,4,6-trichloro-3-methylphenol",388.35,le15,1
9751,O=C1NC(CCCl)Oc2ccccc21,"4H-1,3-Benzoxazin-4-one, 2-(2-chloroethyl)-2,3-dihydro-",498.95,le15,1
9752,CC(=O)Nc1ccc(C(=O)CCl)cc1,"Acetamide, N-(4-(chloroacetyl)phenyl)-",383.15,le15,1
9753,CC(=O)CC(=O)Nc1ccccc1Cl,"Butanamide, N-(2-chlorophenyl)-3-oxo-",449.15,le15,1
9754,CC(C)N(C(=O)CCl)c1ccccc1,"Acetamide, 2-chloro-N-(1-methylethyl)-N-phenyl-",402.55,le15,1
9755,ClCCC[Si](Cl)(Cl)Cl,trichloro(3-chloropropyl)silane,342.5499999999999,le15,1
9756,COC(F)=C(C(F)(F)F)C(F)(F)F,"1-Propene, 1,3,3,3-tetrafluoro-1-methoxy-2-(trifluoromethyl)- (9CI)",287.75,le15,1
9757,O=C(O)c1c(F)c(F)c(F)c(F)c1F,"2,3,4,5,6-pentafluorobenzoic acid",360.04999999999984,le15,1
9758,Nc1cccc2c(Cl)ccc(Cl)c12,"1-Naphthylamine, 5,8-dichloro-",448.35,le15,1
9759,OCC(F)(F)C(F)(F)C(F)(F)CO,"1,5-Pentanediol, 2,2,3,3,4,4-hexafluoro-",406.65,le15,1
9760,O=C(O)c1cc([N+](=O)[O-])cc([N+](=O)[O-])c1,"Benzoic acid, 3,5-dinitro-",452.35,le15,1
9761,O=C(O)c1ccc([N+](=O)[O-])c([N+](=O)[O-])c1,"Benzoic acid, 3,4-dinitro-",481.55,le15,1
9762,O=C(O)c1ccc([N+](=O)[O-])cc1[N+](=O)[O-],"Benzoic acid, 2,4-dinitro-",460.45,le15,1
9763,O=[N+]([O-])c1ccc2[nH]c3ccccc3c2c1,"9H-Carbazole, 3-nitro-",498.25,le15,1
9764,CCCOC(=O)c1cc(O)c(O)c(O)c1,"Benzoic acid, 3,4,5-trihydroxy-, propyl ester",454.45,le15,1
9765,COc1cc(OC)c(C(=O)O)cc1OC,"2,4,5-trimethoxybenzoic acid",407.15,le15,1
9766,O=C(O)C(c1ccccc1)c1ccccc1,"Benzeneacetic acid, alpha-phenyl-",413.55,le15,1
9767,COc1ccc(C(=O)c2ccccc2)cc1,"Methanone, (4-methoxyphenyl)phenyl-",428.85,le15,1
9768,O=C(Cc1ccccc1)c1ccc(O)cc1,Benzyl 4-hydroxyphenyl ketone,445.35,le15,1
9769,O=C(O)Cc1ccc(-c2ccccc2)cc1,"(1,1'-Biphenyl)-4-acetic acid",559.75,le15,1
9770,O=C(OCc1ccccc1)c1ccccc1,"Benzoic acid, phenylmethyl ester",421.05,le15,1
9771,C=CC1OCC2(CO1)COC(C=C)OC2,"2,4,8,10-Tetraoxaspiro(5,5)undecane, 3,9-diethenyl- (9CI)",386.15,le15,1
9772,O=C(Nc1ccccc1)Nc1ccccc1,"Urea, N,N'-diphenyl-",364.25,le15,1
9773,O=C(NNc1ccccc1)c1ccccc1,N'-phenylbenzohydrazide,394.15,le15,1
9774,NC(=O)N(c1ccccc1)c1ccccc1,"Urea, N,N-diphenyl-",443.85,le15,1
9775,COc1ccc(N=Nc2ccccc2)cc1,(4-methoxyphenyl)-phenyldiazene,423.95,le15,1
9776,O=c1c2ccccc2sc2ccccc12,thioxanthen-9-one,476.95,le15,1
9777,Nc1ccc(N=Nc2ccccc2)c(N)c1,"1,3-Benzenediamine, 4-(phenylazo)-",487.95,le15,1
9778,OCC(Cc1ccccc1)c1ccccc1,"2,3-diphenylpropan-1-ol",407.55,le15,1
9779,CC(O)(Cc1ccccc1)c1ccccc1,"Benzeneethanol, alpha-methyl-alpha-phenyl-",404.05,le15,1
9780,NN(Cc1ccccc1)Cc1ccccc1,"Hydrazine, 1,1-bis(phenylmethyl)- (9CI)",480.75,le15,1
9781,Cc1ccc2sc3cccc(C)c3c2c1,"1,8-dimethyldibenzothiophene",403.35,le15,1
9782,CCCSP(C)(=O)SCCC,"Phosphonodithioic acid, methyl-, S,S-dipropyl ester",402.95,le15,1
9783,C=C(C)CCCC(C)CCOC(=O)CC,"7-Octen-1-ol, 3,7-dimethyl-, propanoate",362.65,le15,1
9784,CCC(=O)OCCC(C)CCC=C(C)C,"6-Octen-1-ol, 3,7-dimethyl-, propionate (7CI,8CI)",363.95,le15,1
9785,C=CC(=O)OCCCCCCCCCC,"2-Propenoic acid, decyl ester",367.45,le15,1
9786,C=CC(=O)OCCCCCCCC(C)C,"2-Propenoic acid, isodecyl ester",367.45,le15,1
9787,CCCCCCCCCCCCCC=O,Myristaldehyde (8CI),394.65,le15,1
9788,Clc1c2ccccc2cc2ccccc12,"Anthracene, 9-chloro-",452.35,le15,1
9789,Clc1cccc2cc3ccccc3cc12,"Anthracene, 1-chloro- (8CI)(9CI)",452.35,le15,1
9790,Oc1c(Cl)cc(Cl)c2ccccc12,"1-Naphthol, 2,4-dichloro- (8CI)",407.15,le15,1
9791,O=[N+]([O-])c1c(F)c(F)c(F)c(F)c1F,Pentafluoronitrobenzene,363.75,le15,1
9792,CC(Br)C(=O)c1ccccc1,2-bromo-1-phenylpropan-1-one,348.75,le15,1
9793,O=[N+]([O-])c1cc([N+](=O)[O-])cc([N+](=O)[O-])c1,"Benzene, 1,3,5-trinitro-",437.25,le15,1
9794,CC(C)(C)c1ccc(Br)cc1,1-bromo-4-tert-butylbenzene,370.15,le15,1
9795,O=[N+]([O-])c1ccc2c(c1)oc1ccccc12,"Dibenzofuran, 3-nitro-",456.55,le15,1
9796,O=C(Nc1ccccc1)c1ccccc1O,"Benzamide, 2-hydroxy-N-phenyl-",404.95,le15,1
9797,Nc1ccc(N=Nc2ccc(O)cc2)cc1,"Phenol, 4-((4-aminophenyl)azo)-",467.05,le15,1
9798,Nc1ccc(N=Nc2ccccc2)c(N)n1,"2,6-Pyridinediamine, 3-(phenylazo)- (9CI)",494.45,le15,1
9799,CCNc1nc(NCC)nc(SC)n1,"1,3,5-Triazine-2,4-diamine, N,N'-diethyl-6-(methylthio)- (9CI)",464.75,le15,1
9800,CCCCCCCCCCCCN(C)C,"1-Dodecanamine, N,N-dimethyl-",380.05,le15,1
9801,CCCCCCCNCCCCCCC,Diheptylamine (8CI),381.05,le15,1
9802,CC(C)OC(=O)Nc1cccc(Cl)c1,"Carbamic acid, (3-chlorophenyl)-, 1-methylethyl ester (9CI)",378.85,le15,1
9803,CCC(OC(N)=O)c1ccccc1Cl,"Carbamic acid, o-chloro-alpha-ethylbenzyl ester",440.15,le15,1
9804,BrC/C=C/CBr,"2-Butene, 1,4-dibromo-, trans-",345.04999999999984,le15,1
9805,BrCC=CCBr,"2-Butene, 1,4-dibromo-",386.15,le15,1
9806,CCOC(=O)CI,"Acetic acid, iodo-, ethyl ester",350.15,le15,1
9807,O=C(O)C(F)(F)C(F)(F)C(F)(F)F,"2,2,3,3,4,4,4-heptafluorobutanoic acid",291.15,le15,1
9808,O=C(CBr)Nc1ccccc1,2-Bromo-N-phenylacetamide,440.55,le15,1
9809,S=C=Nc1ccc(Br)cc1,"Isothiocyanic acid, p-bromophenyl ester",396.35,le15,1
9810,S=C=Nc1cccc(Br)c1,1-bromo-3-isothiocyanatobenzene,402.05,le15,1
9811,FC(F)(F)c1cccc(C(F)(F)F)c1,"1,3-bis(trifluoromethyl)benzene",299.15,le15,1
9812,FC(F)(F)c1ccc(C(F)(F)F)cc1,"1,4-bis(trifluoromethyl)benzene",294.85,le15,1
9813,Cc1cc2nc(C(F)(F)F)[nH]c2cc1C,"1H-Benzimidazole, 5,6-dimethyl-2-(trifluoromethyl)- (9CI)",411.55,le15,1
9814,O=C(Oc1ccccc1)Oc1ccccc1,"Carbonic acid, diphenyl ester",392.55,le15,1
9815,O=C(Oc1ccccc1)c1ccccc1O,"Benzoic acid, 2-hydroxy-, phenyl ester",410.45,le15,1
9816,O=C(c1ccccc1)c1ccc(O)cc1O,"Methanone, (2,4-dihydroxyphenyl)phenyl-",398.15,le15,1
9817,O=C(Oc1cccc(O)c1)c1ccccc1,"1,3-Benzenediol, monobenzoate",439.35,le15,1
9818,O=C(c1ccccc1O)c1ccccc1O,"2,2'-Dihydroxybenzophenone",439.95,le15,1
9819,O=C(O)c1ccccc1Oc1ccccc1,2-phenoxybenzoic acid,405.15,le15,1
9820,O=[N+]([O-])c1ccc(Nc2ccccc2)cc1,"Benzenamine, 4-nitro-N-phenyl-",458.35,le15,1
9821,Nc1ccc(-c2ccc([N+](=O)[O-])cc2)cc1,"4-Biphenylamine, 4'-nitro-",462.05,le15,1
9822,CCP(c1ccccc1)c1ccccc1,"Phosphine, ethyldiphenyl-",412.75,le15,1
9823,N=C(N)NS(=O)(=O)c1ccc(N)cc1,"Sulfanilamide, N1-amidino- (8CI)",522.3499999999998,le15,1
9824,COc1cccc(-c2cccc(OC)c2)c1,1-methoxy-3-(3-methoxyphenyl)benzene,402.95,le15,1
9825,OC(CNc1ccccn1)c1ccccc1,"Benzenemethanol, alpha-((2-pyridinylamino)methyl)- (9CI)",458.65,le15,1
9826,ClC(Cl)=C(Cl)C(Cl)Cl,"1,1,2,3,3-pentachloroprop-1-ene",345.85,le15,1
9827,CCOC(=O)C1(C(=O)OCC)CCCC1,"diethyl cyclopentane-1,1-dicarboxylate",383.55,le15,1
9828,Cc1ccc(S(=O)(=O)OC(C)C)cc1,Isopropyl toluene-4-sulphonate,416.85,le15,1
9829,CCOP(=S)(OCC)SCC,"Phosphorodithioic acid, O,O,S-triethyl ester",374.65,le15,1
9830,CCCCCCCCCCCC(=O)OC,methyl dodecanoate,367.15,le15,1
9831,CCSP(SCC)SCC,"Phosphorotrithious acid, triethyl ester",399.65,le15,1
9832,CCCCCCCC(=O)OCCC(C)C,"Octanoic acid, 3-methylbutyl ester",377.85,le15,1
9833,CCCCCCCCOC(=O)CCCC,octyl pentanoate,382.75,le15,1
9834,CCCCCCCCCCCCC(C)O,tetradecan-2-ol,379.15,le15,1
9835,CC(C)(Oc1ccc(Cl)cc1)C(=O)O,"Propanoic acid, 2-(4-chlorophenoxy)-2-methyl-",422.95,le15,1
9836,FC(F)(F)c1cc(Cl)ccc1Cl,"Toluene, 2,5-dichloro-alpha,alpha,alpha-trifluoro- (6CI,7CI,8CI)",343.85,le15,1
9837,FC(F)(F)c1ccc(Cl)cc1Cl,"Toluene, 2,4-dichloro-alpha,alpha,alpha-trifluoro- (8CI)",345.15,le15,1
9838,FC(F)(F)c1ccc(Cl)c(Cl)c1,"Toluene, 3,4-dichloro-alpha,alpha,alpha-trifluoro- (6CI,8CI)",338.75,le15,1
9839,O=C(CBr)c1ccc(O)cc1,2-Bromo-1-(4-hydroxyphenyl)ethan-1-one,431.75,le15,1
9840,COC(=O)c1ccccc1Br,methyl 2-bromobenzoate,372.75,le15,1
9841,NC(=O)Nc1ccc(Br)cc1,(4-bromophenyl)urea,402.85,le15,1
9842,COc1c2ccoc2nc2c(O)cccc12,"Furo(2,3-b)quinolin-8-ol, 4-methoxy-",476.05,le15,1
9843,Nc1ccc(Oc2ccc(N)c(N)c2)cc1,"1,2-Benzenediamine, 4-(4-aminophenoxy)- (9CI)",519.65,le15,1
9844,CCCOC(=O)CCC(=O)N(CC)CC,"Butanoic acid, 4-(diethylamino)-4-oxo-, propyl ester (9CI)",415.95,le15,1
9845,CCNC1C2CCC(C2)C1c1ccccc1,"Bicyclo(2.2.1)heptan-2-amine, N-ethyl-3-phenyl-",426.05,le15,1
9846,O=C(C(F)(F)Cl)C(F)(Cl)Cl,"2-Propanone, 1,1,3-trichloro-1,3,3-trifluoro-",295.25,le15,1
9847,CCSC(=O)N(CC)C1CCCCC1,"Cyclohexanecarbamic acid, N-ethylthio-, S-ethyl ester",410.25,le15,1
9848,COC(=O)c1cc([N+](=O)[O-])ccc1Cl,"Benzoic acid, 2-chloro-5-nitro-, methyl ester",418.45,le15,1
9849,OCCN(CCO)c1cccc(Cl)c1,"Ethanol, 2,2'-((m-chlorophenyl)imino)di- (8CI)",467.35,le15,1
9850,CCNc1nc(Cl)nc(NC(C)C)n1,"1,3,5-Triazine-2,4-diamine, 6-chloro-N-ethyl-N'-(1-methylethyl)-",449.85,le15,1
9851,O=CC(Br)CBr,"Propanal, 2,3-dibromo- (9CI)",361.15,le15,1
9852,Clc1cc(Cl)c(Cl)cc1Cl,"Benzene, 1,2,4,5-tetrachloro-",381.35,le15,1
9853,Clc1ccc(Cl)c(Cl)c1Cl,"Benzene, 1,2,3,4-tetrachloro-",385.05,le15,1
9854,Clc1cc(Cl)c(Cl)c(Cl)c1,"Benzene, 1,2,3,5-tetrachloro-",383.15,le15,1
9855,BrCCCCBr,"Butane, 1,4-dibromo-",338.35,le15,1
9856,CCC(Br)CBr,"1,2-dibromobutane",317.15,le15,1
9857,CC(C)(Br)CBr,"Propane, 1,2-dibromo-2-methyl-",299.35,le15,1
9858,CC(Br)C(C)Br,"2,3-dibromobutane",306.15,le15,1
9859,CC(Br)CCBr,"1,3-dibromobutane",321.95,le15,1
9860,O=[N+]([O-])c1ccc(CBr)cc1,"Benzene, 1-(bromomethyl)-4-nitro-",410.95,le15,1
9861,O=[N+]([O-])c1cccc(CBr)c1,"Benzene, 1-(bromomethyl)-3-nitro-",408.95,le15,1
9862,O=[N+]([O-])c1ccccc1CBr,alpha-Bromo-2-nitrotoluene,393.35,le15,1
9863,Cc1cc([N+](=O)[O-])ccc1Br,2-Bromo-5-nitrotoluene,395.05,le15,1
9864,Cc1cc(Br)cc([N+](=O)[O-])c1,1-bromo-3-methyl-5-nitrobenzene,393.15,le15,1
9865,COc1c2occc2cc2ccc(=O)oc12,"7H-Furo(3,2-g)(1)benzopyran-7-one, 9-methoxy-",477.8109999999999,le15,1
9866,COc1c2ccoc2cc2oc(=O)ccc12,"7H-Furo(3,2-g)(1)benzopyran-7-one, 4-methoxy-",476.35,le15,1
9867,O=C(O)c1ccc2cc(C(=O)O)ccc2c1,"2,6-Naphthalenedicarboxylic acid",505.55,le15,1
9868,COC(=O)COc1cccc2ccccc12,"Acetic acid, naphthyloxy-, methyl ester",413.85,le15,1
9869,CCOC=C(C(=O)OCC)C(=O)OCC,"Propanedioic acid, (ethoxymethylene)-, diethyl ester",380.75,le15,1
9870,CCOC(=O)CC(C(C)=O)C(=O)OCC,diethyl 2-acetylbutanedioate,399.25,le15,1
9871,Nc1ccc(-c2ccc(N)c(O)c2)cc1O,"(1,1'-Biphenyl)-3,3'-diol, 4,4'-diamino-",493.45,le15,1
9872,Cc1ccc2ccc3cccc4ccc1c2c34,"Pyrene, 1-methyl-",452.05,le15,1
9873,COP(=O)(OC)SCCSC,"Phosphorothioic acid, O,O-dimethyl S-(2-(methylthio)ethyl) ester",390.45,le15,1
9874,c1ccc2c(c1)Cc1c-2ccc2ccccc12,11H-benzo[a]fluorene,458.55,le15,1
9875,CCOC(=O)C(CC)(CC)C(=O)OCC,"diethyl 2,2-diethylpropanedioate",367.55,le15,1
9876,CCCCC(C(=O)OCC)C(=O)OCC,"Propanedioic acid, butyl-, diethyl ester",366.15,le15,1
9877,CCCCOC(=O)CC(=O)OCCCC,dibutyl propanedioate,390.55,le15,1
9878,CCOC(=O)CCCCCC(=O)OCC,"Heptanedioic acid, diethyl ester",390.55,le15,1
9879,ClC(Cl)C(Cl)C(Cl)Cl,"1,1,2,3,3-pentachloropropane",353.04999999999984,le15,1
9880,CN(C)CCNc1ncnc2ccccc12,"Quinazoline, 4-((2-(dimethylamino)ethyl)amino)-",452.85,le15,1
9881,c1ccc2c(c1)Sc1ccccc1S2,thianthrene,443.95,le15,1
9882,CCCCCCC(C=O)=Cc1ccccc1,"Octanal, 2-(phenylmethylene)-",413.65,le15,1
9883,CCCCCCCCCCCCCS,tridecane-1-thiol,385.55,le15,1
9884,O=C(O)COc1ccc(Cl)cc1CO,"Acetic acid, (4-chloro-2-hydroxymethylphenoxy)-",463.65,le15,1
9885,O=C(c1ccccc1)c1cccc(Cl)c1,3-Chlorobenzophenone,451.45,le15,1
9886,O=C(c1ccccc1)c1ccc(Cl)cc1,"Benzophenone, 4-chloro- (8CI)",449.25,le15,1
9887,CN(C)C(=O)NC1CC2CCC1(Cl)C2,"Urea, 3-(chloro-2-norbornyl)-1,1-dimethyl-",468.05,le15,1
9888,CN(C)C(=O)NC1CC2CCC1(Cl)C2,"Urea, N'-(chlorobicyclo(2.2.1)hept-2-yl)-N,N-dimethyl-",468.05,le15,1
9889,Clc1cc(Cl)c(Cl)nc1Cl,"2,3,5,6-tetrachloropyridine",461.15,le15,1
9890,O=C1OC(=O)c2cc(Cl)c(Cl)cc21,"5,6-dichloro-2-benzofuran-1,3-dione",417.95,le15,1
9891,Nc1ccc([As](=O)(O)O)cc1,"Arsonic acid, (4-aminophenyl)-",546.55,le15,1
9892,COc1ccc(Br)cc1OC,"4-bromo-1,2-dimethoxybenzene",382.15,le15,1
9893,CCOC(=O)C(NC(C)=O)C(=O)OCC,"Propanedioic acid, (acetylamino)-, diethyl ester",418.35,le15,1
9894,CN(C(=O)CF)c1cccc2ccccc12,"Acetamide, 2-fluoro-N-methyl-N-1-naphthalenyl- (9CI)",436.65,le15,1
9895,Nc1ccc2ccc3cccc4ccc1c2c34,Pyren-1-ylamine,519.3499999999998,le15,1
9896,Nc1cc2ccc3cccc4ccc(c1)c2c34,2-Aminopyrene,523.75,le15,1
9897,Nc1ccc2c3c(cccc13)-c1ccccc1-2,Fluoranthen-3-ylamine,519.3499999999998,le15,1
9898,Nc1ccc2c(c1)-c1cccc3cccc-2c13,8-Aminofluoranthene,523.75,le15,1
9899,CCC1(c2ccccc2)CCC(=O)NC1=O,"2,6-Piperidinedione, 3-ethyl-3-phenyl-",434.95,le15,1
9900,CCOc1ccc2c(c1)C(C)=CC(C)(C)N2,"Quinoline, 6-ethoxy-1,2-dihydro-2,2,4-trimethyl-",410.95,le15,1
9901,CCO[Si](CCC#N)(OCC)OCC,"Propionitrile, 3-(triethoxysilyl)- (8CI)",378.45,le15,1
9902,CCCC(Cc1ccccc1)N1CCCC1,"Pyrrolidine, 1-(1-(phenylmethyl)butyl)- (9CI)",396.45,le15,1
9903,CCSC(=O)N(CC(C)C)CC(C)C,"Carbamothioic acid, bis(2-methylpropyl)-, S-ethyl ester",396.45,le15,1
9904,Nc1c(Cl)cc([N+](=O)[O-])cc1[N+](=O)[O-],"Benzenamine, 2-chloro-4,6-dinitro-",454.55,le15,1
9905,Nc1c([N+](=O)[O-])cc(Cl)cc1[N+](=O)[O-],"Aniline, 4-chloro-2,6-dinitro- (8CI)",444.65,le15,1
9906,O=S(=O)(Cl)C(Cl)(Cl)Cl,trichloromethanesulfonyl chloride,336.85,le15,1
9907,Cc1ccc(I)cc1,1-iodo-4-methylbenzene,359.45,le15,1
9908,Cc1cccc(I)c1,1iodo3methylbenzene,355.0,le15,1
9909,CCC(=O)Nc1ccc(Cl)c(Cl)c1,"Propanamide, N-(3,4-dichlorophenyl)-",450.65,le15,1
9910,O=c1oc(=O)c2cc3c(=O)oc(=O)c3cc12,"1,2,4,5-Benzenetetracarboxylic 1,2:4,5-dianhydride (8CI)",456.65,le15,1
9911,ClCCN(CCCl)c1ccccc1,"Benzenamine, N,N-bis(2-chloroethyl)- (9CI)",410.85,le15,1
9912,C=CCOP(=O)(OCC=C)OCC=C,"Phosphoric acid, triallyl ester (8CI)",393.25,le15,1
9913,CCOC(=O)C(=Cc1ccccc1)C(C)=O,Ethyl .alpha.-acetylcinnamate,385.05,le15,1
9914,CCC1(c2ccccc2)C(=O)NCNC1=O,"4,6(1H,5H)-Pyrimidinedione, 5-ethyldihydro-5-phenyl-",501.35,le15,1
9915,CCCC(C)(COC(N)=O)COC(N)=O,"1,3-Propanediol, 2-methyl-2-propyl-, dicarbamate",502.85,le15,1
9916,O=S(=O)(c1ccccc1)c1ccccc1,benzenesulfonylbenzene,499.95,le15,1
9917,Oc1ccc(Sc2ccc(O)cc2)cc1,"Phenol, 4,4'-thiobis-",492.85,le15,1
9918,COP(C)(=S)Sc1ccccc1,"Phosphonodithioic acid, methyl-, O-methyl S-phenyl ester",403.35,le15,1
9919,CC(C)CC(=O)OCC=Cc1ccccc1,"Butanoic acid, 3-methyl-, 3-phenyl-2-propenyl ester",401.45,le15,1
9920,ClC(Cl)[Si](Cl)(Cl)Cl,trichloro(dichloromethyl)silane,353.04999999999984,le15,1
9921,c1ccc(SSc2ccccc2)cc1,Diphenyl disulphide,450.95,le15,1
9922,CCCCOCCOCCOCCCC,"Butane, 1,1'-(oxybis(2,1-ethanediyloxy))bis-",390.35,le15,1
9923,OC(c1ccccc1)c1ccc(Cl)cc1,"Benzhydrol, 4-chloro- (8CI)",439.95,le15,1
9924,Oc1ccc(Cl)cc1Cc1ccccc1,"Phenol, 4-chloro-2-(phenylmethyl)-",432.35,le15,1
9925,O=[N+]([O-])C(Br)Br,"Methane, dibromonitro-",319.25,le15,1
9926,Fc1c(F)c(Cl)c(F)c(Cl)c1F,"1,3-Dichloro-2,4,5,6-tetrafluorobenzene",437.15,le15,1
9927,Nc1ccc(I)cc1,"Benzenamine, 4-iodo-",389.45,le15,1
9928,Nc1ccccc1I,"Benzenamine, 2-iodo-",385.45,le15,1