compound,flashpoint,pure substance,smiles,source,is_silicon
Diethylmethylchlorosilane,288.15,1,CC[Si](C)(Cl)CC,didier12,1
Chloromethyldimethylethoxysilane,299.15,1,CCO[Si](C)(C)CCl,didier12,1
Ethoxytrimethylsilane,246.15,1,CCO[Si](C)(C)C,didier12,1
Ethyltrimethoxysilane,300.15,1,CC[Si](OC)(OC)OC,didier12,1
"(N,N-Dimethylamino)trimethylsilane",254.15,1,CN(C)[Si](C)(C)C,didier12,1
Pentamethyldisiloxane,254.15,1,C[SiH](C)O[Si](C)(C)C,didier12,1
Phenyldichlorosilane,333.15,1,Cl[SiH](Cl)c1ccccc1,didier12,1
Phenylsilane,281.15,1,[SiH3]c1ccccc1,didier12,1
1-Hexenyltrichlorosilane,333.15,1,CCCCC=C[Si](Cl)(Cl)Cl,didier12,1
Cyclohexyltrichlorosilane,358.15,1,Cl[Si](Cl)(Cl)C1CCCCC1,didier12,1
Bis(chloromethyl)tetramethyldisiloxane,346.15,1,C[Si](C)(C)O[Si](C)(CCl)CCl,didier12,1
Propargyloxytrimethylsilane,300.15,1,C#CCO[Si](C)(C)C,didier12,1
Divinyldimethylsilane,281.15,1,C=C[Si](C)(C)C=C,didier12,1
n-Hexyltrichlorosilane,358.15,1,CCCCCC[Si](Cl)(Cl)Cl,didier12,1
Hexyldichlorosilane,337.15,1,CCCCCC[SiH](Cl)Cl,didier12,1
"1,1-Dimethyl-1-sila-2-oxacyclohexane",287.15,1,C[Si]1(C)CCCCO1,didier12,1
Acetoxymethyltrimethylsilane,293.15,1,CC(=O)OC[Si](C)(C)C,didier12,1
Allyltrimethylsilane,280.15,1,C=CC[Si](C)(C)C,didier12,1
Triethylchlorosilane,303.15,1,CC[Si](Cl)(CC)CC,didier12,1
t-Butyldimethylchlorosilane,295.15,1,CC(C)(C)[Si](C)(C)Cl,didier12,1
3-Chloropropylmethyldimethoxysilane,318.15,1,CO[Si](C)(CCCCl)OC,didier12,1
Trimethyl-n-propoxysilane,283.15,1,CCCO[Si](C)(C)C,didier12,1
t-Butyldimethylsilanol,318.15,1,CC(C)(C)[Si](C)(C)O,didier12,1
Dimethyldiethoxysilane,284.15,1,CCO[Si](C)(C)OCC,didier12,1
Triethylsilane,270.15,1,CC[SiH](CC)CC,didier12,1
Hexylsilane,285.15,1,CCCCCC[SiH3],didier12,1
t-Butyldimethylsilane,251.15,1,C[SiH](C)C(C)(C)C,didier12,1
Bis(dimethylamino)dimethylsilane,266.15,1,CN(C)[Si](C)(C)N(C)C,didier12,1
Hexamethylcyclotrisiloxane,305.15,1,C[Si]1(C)O[Si](C)(C)O[Si](C)(C)O1,didier12,1
Hexamethyldisilthiane,299.15,1,C[Si](C)(C)S[Si](C)(C)C,didier12,1
Hexamethyldisilazane,281.15,1,C[Si](C)(C)N[Si](C)(C)C,didier12,1
Tris(dimethylamino)silane,298.15,1,CN(C)[SiH](N(C)C)N(C)C,didier12,1
Hexamethyltrisiloxane,293.15,1,C[Si](C)(C)O[SiH2]O[Si](C)(C)C,didier12,1
Phenylmethyldichlorosilane,340.15,1,Cl[SiH](Cl)Cc1ccccc1,didier12,1
Phenylmethylchlorosilane,355.15,1,Cl[SiH2]Cc1ccccc1,didier12,1
Methyltriacetoxysilane,358.15,1,CC(=O)O[Si](C)(OC(C)=O)OC(C)=O,didier12,1
Trivinylmethylsilane,288.15,1,C=CC([SiH3])(C=C)C=C,didier12,1
Cyclohexylmethyldichlorosilane,355.15,1,Cl[SiH](Cl)CC1CCCCC1,didier12,1
"1-(Trimethylsiloxy)-1,3-butadiene",298.15,1,C=CC=CO[Si](C)(C)C,didier12,1
2-Chloromethyl-3-trimethylsilyl-1-propene,316.15,1,C=C(CCl)C[Si](C)(C)C,didier12,1
n-Heptyltrichlorosilane,337.15,1,CCCCCCC[Si](Cl)(Cl)Cl,didier12,1
n-Hexylmethyldichlorosilane,358.15,1,CCCCCC[Si](C)(Cl)Cl,didier12,1
Vinylmethyldiethoxysilane,289.15,1,C=CC[SiH](OCC)OCC,didier12,1
N-(Trimethylsilyl)morpholine,300.15,1,C[Si](C)(C)N1CCOCC1,didier12,1
t-Butoxytrimethylsilane,287.15,1,CC(C)(C)O[Si](C)(C)C,didier12,1
Vinylpentamethyldisiloxane,285.15,1,C=C[Si](C)(C)O[Si](C)(C)C,didier12,1
(1-Methoxy-2-propoxy)trimethylsilane,293.15,1,COCC(C)O[Si](C)(C)C,didier12,1
Methyltriethoxysilane,297.15,1,CCO[Si](C)(OCC)OCC,didier12,1
(Diethylamino)trimethylsilane,283.15,1,CCN(CC)[Si](C)(C)C,didier12,1
Bis(trimethylsilyl)methane,285.15,1,C[Si](C)(C)C[Si](C)(C)C,didier12,1
Heptamethyldisilazane,300.15,1,CN([Si](C)(C)C)[Si](C)(C)C,didier12,1
Phenylethyldichlorosilane,365.15,1,Cl[SiH](Cl)CCc1ccccc1,didier12,1
Tetravinylsilane,291.15,1,C=C[Si](C=C)(C=C)C=C,didier12,1
Phenyldimethylsilane,311.15,1,C[SiH](C)c1ccccc1,didier12,1
Cyclopentadienyltrimethylsilane,302.15,1,C[Si](C)(C)C1C=CC=C1,didier12,1
(Cyclopentenyloxy)trimethylsilane,311.15,1,C[Si](C)(C)OC1=CCCC1,didier12,1
"(2,4-Pentadienyl)trimethylsilane",291.15,1,C=CC=CC[Si](C)(C)C,didier12,1
n-Octyltrichlorosilane,369.15,1,CCCCCCCC[Si](Cl)(Cl)Cl,didier12,1
n-Heptylmethyldichlorosilane,339.15,1,CCCCCCC[Si](C)(Cl)Cl,didier12,1
Tetramethyldivinyldisiloxane,292.15,1,C=C[Si](C)(C=C)O[Si](C)(C)C,didier12,1
Triethylacetoxysilane,314.15,1,CCC(CC)(CC)C(=O)O[SiH3],didier12,1
Vinyltriethoxysilane,307.15,1,C=C[Si](OCC)(OCC)OCC,didier12,1
"1,3-Divinyltetramethyldisilazane",307.15,1,C=C[Si](C)(C)N[Si](C)(C)C=C,didier12,1
Diethyldiethoxysilane,316.15,1,CCO[Si](CC)(CC)OCC,didier12,1
Tetraethoxysilane,323.15,1,CCO[Si](OCC)(OCC)OCC,didier12,1
Tetraethylsilane,305.15,1,CC[Si](CC)(CC)CC,didier12,1
Aminoethylaminopropyltrimethoxysilane,369.15,1,CO[Si](CCCNCCN)(OC)OC,didier12,1
Tetramethyldiethoxysiloxane,311.15,1,CCO[Si]([O])OC(C)(C)C(C)C,didier12,1
Octamethyltrisiloxane,303.15,1,C[Si](C)(C)O[Si](C)(C)O[Si](C)(C)C,didier12,1
Octamethylcyclotetrasiloxane,330.15,1,C[Si]1(C)O[Si](C)(C)O[Si](C)(C)O[Si](C)(C)O1,didier12,1
Octamethylcyclotetrasilazane,339.15,1,C[Si]1(C)N[Si](C)(C)N[Si](C)(C)N[Si](C)(C)N1,didier12,1
Tetrakisdimethylsiloxysilane,340.15,1,C[SiH](C)O[Si](O[SiH](C)C)(O[SiH](C)C)O[SiH](C)C,didier12,1
p-Chlorophenyltrimethylsilane,322.15,1,C[Si](C)(C)c1ccc(Cl)cc1,didier12,1
Phenyltrimethoxysilane,358.15,1,CO[Si](OC)(OC)c1ccccc1,didier12,1
Trimethylphenylsilane,313.15,1,C[Si](C)(C)c1ccccc1,didier12,1
Cyclohexylmethyldimethoxysilane,343.15,1,CO[SiH](CC1CCCCC1)OC,didier12,1
Hexyltrimethoxysilane,335.15,1,CCCCCC[Si](OC)(OC)OC,didier12,1
Triisopropylsilane,310.15,1,CC(C)[SiH](C(C)C)C(C)C,didier12,1
Tri-n-propylsilane,316.15,1,CCC[SiH](CCC)CCC,didier12,1
Propyltris(dimethylsiloxy)silane,323.15,1,CCC[Si](O[SiH](C)C)(O[SiH](C)C)O[SiH](C)C,didier12,1
Benzyltrimethylsilane,335.15,1,C[Si](C)(C)Cc1ccccc1,didier12,1
3-Methacryloxypropyltrimethoxysilane,365.15,1,C=C(C)C(=O)OCCC[Si](OC)(OC)OC,didier12,1
1-Heptynyltrimethylsilane,315.15,1,CCCCCC#C[Si](C)(C)C,didier12,1
n-Octyldimethylchlorosilane,370.15,1,CCCCCCCC[Si](C)(C)Cl,didier12,1
Bis(diethylamino)dimethylsilane,308.15,1,CCN(CC)[Si](C)(C)N(CC)CC,didier12,1
Decamethyltetrasiloxane,335.15,1,C[Si](C)(C)O[Si](C)(C)O[Si](C)(C)O[Si](C)(C)C,didier12,1
Decamethylcyclopentasiloxane,350.15,1,C[Si]1(C)O[Si](C)(C)O[Si](C)(C)O[Si](C)(C)O[Si](C)(C)O1,didier12,1
"2-(3,4-epoxycyclohexyl)ethyltrimethoxysilane",419.15,1,CO[Si](CCC1CCC2OC2C1)(OC)OC,didier12,1
n-Decylmethyldichlorosilane,393.15,1,CCCCCCCCCC[Si](C)(Cl)Cl,didier12,1
Vinyltriethylsilane,318.15,1,C=C[Si](CC)(CC)CC,didier12,1
Diphenyldichlorosilane,415.15,1,Cl[Si](Cl)(c1ccccc1)c1ccccc1,didier12,1
Phenyltriethoxysilane,393.15,1,CCO[Si](OCC)(OCC)c1ccccc1,didier12,1
Diphenylsilane,371.15,1,c1ccc([SiH2]c2ccccc2)cc1,didier12,1
Tetramethyltetravinylcyclotetrasilane,385.15,1,C=C[Si]1(C)[Si](C)(C=C)[Si](C)(C=C)[Si]1(C)C=C,didier12,1
n-Dodecyltrichlorosilane,435.15,1,CCCCCCCCCCCC[Si](Cl)(Cl)Cl,didier12,1
Tetra-n-propoxysilane,368.15,1,CCCO[Si](OCCC)(OCCC)OCCC,didier12,1
Hexaethyldisiloxane,349.15,1,CC[Si](CC)(CC)O[Si](CC)(CC)CC,didier12,1
Dodecamethylpentasiloxane,352.15,1,C[Si](C)(C)O[Si](C)(C)O[Si](C)(C)O[Si](C)(C)O[Si](C)(C)C,didier12,1
Dodecamethylcyclohexasiloxane,366.15,1,C[Si]1(C)O[Si](C)(C)O[Si](C)(C)O[Si](C)(C)O[Si](C)(C)O[Si](C)(C)O1,didier12,1
Methyldiphenylchlorosilane,411.15,1,C[Si](Cl)(c1ccccc1)c1ccccc1,didier12,1
n-Dodecylmethyldichlorosilane,416.15,1,CCCCCCCCCCCC[Si](C)(Cl)Cl,didier12,1
Diphenyldimethoxysilane,394.15,1,CO[Si](OC)(c1ccccc1)c1ccccc1,didier12,1
Octyltriethoxysilane,373.15,1,CCCCCCCC[Si](OCC)(OCC)OCC,didier12,1
Tetradecamethylhexasiloxane,375.15,1,C[Si](C)(C)O[Si](C)(C)O[Si](C)(C)O[Si](C)(C)O[Si](C)(C)O[Si](C)(C)C,didier12,1
Hexadecamethylheptasiloxane,406.15,1,C[Si](C)(C)O[Si](C)(C)O[Si](C)(C)O[Si](C)(C)O[Si](C)(C)O[Si](C)(C)O[Si](C)(C)C,didier12,1
Octadecamethyloctasiloxane,417.15,1,C[Si](C)(C)O[Si](C)(C)O[Si](C)(C)O[Si](C)(C)O[Si](C)(C)O[Si](C)(C)O[Si](C)(C)O[Si](C)(C)C,didier12,1
Vinyltris(methoxyethoxy)silane,353.15,1,C=C[Si](OCCOC)(OCCOC)OCCOC,didier12,1
Trimethyl(vinyloxy)silane,263.15,1,C=CO[Si](C)(C)C,didier12,1
Trichloro(3-cyanopropyl) Silane,365.15,1,N#CCCC[Si](Cl)(Cl)Cl,didier12,1
Trichloro(2-phenylethyl)silane,364.15,1,Cl[Si](Cl)(Cl)CCc1ccccc1,didier12,1
"Chlorodimethyl(3,3,3-trifluoropropyl) silane",293.15,1,C[Si](C)(Cl)CCC(F)(F)F,didier12,1
Vinylmethylbis (trimethylsiloxy) silane,324.15,1,C=CC[SiH](O[Si](C)(C)C)O[Si](C)(C)C,didier12,1
Trichloro(Chloromethyl) silane,342.15,1,ClC[Si](Cl)(Cl)Cl,didier12,1
Dimethyl(pentafluorophenyl) silane,313.15,1,C[SiH](C)c1c(F)c(F)c(F)c(F)c1F,didier12,1
Trichloro(p-chlorophenyl)silane,397.05,1,Clc1ccc([Si](Cl)(Cl)Cl)cc1,didier12,1
Trisilane,273.15,1,[SiH3][SiH2][SiH3],didier12,1
Trichlorononylsilane,387.15,1,[SiH3]CCCCCCCCC(Cl)(Cl)Cl,didier12,1
Dichloroethylsilane,263.75,1,[SiH3]CC(Cl)Cl,didier12,1
Trichloro(dichlorophenyl)silane,419.15,1,Clc1cccc([Si](Cl)(Cl)Cl)c1Cl,didier12,1
Tris(trimethylsilyl)silane,328.15,1,C[Si](C)(C)[SiH]([Si](C)(C)C)[Si](C)(C)C,didier12,1
Tris(trimethylsiloxy)silane,323.15,1,C[Si](C)(C)O[SiH](O[Si](C)(C)C)O[Si](C)(C)C,didier12,1
Hexadecyltrichlorosilane,427.15,1,CCCCCCCCCCCCCCCC[Si](Cl)(Cl)Cl,didier12,1
Dichlorosilane,236.15,1,Cl[SiH2]Cl,didier12,1
Methyldichlorosilane,241.15,1,C[SiH](Cl)Cl,didier12,1
Iodotrimethylsilane,288.15,1,C[Si](C)(C)I,didier12,1
Dimethyldichlorosilane,257.15,1,C[Si](C)(Cl)Cl,didier12,1
Bromomethyldimethylchlorosilane,314.15,1,C[Si](C)(Cl)CBr,didier12,1
Trimethylsilane,204.15,1,C[SiH](C)C,didier12,1
Dimethylvinylchlorosilane,268.15,1,CC(C)=C[SiH2]Cl,didier12,1
"1,3-Dichlorotetramethyldisiloxane",288.15,1,C[Si](C)(Cl)O[Si](C)(C)Cl,didier12,1
"1,1,3,3-Tetramethyldisiloxane",251.15,1,C[SiH](C)O[SiH](C)C,didier12,1
Tetramethyldisilazane,284.15,1,CN([SiH3])[Si](C)(C)C,didier12,1
Allyldimethylchlorosilane,278.15,1,C=CC[Si](C)(C)Cl,didier12,1
sec-Amyltrichlorosilane,303.15,1,CCCC(C)[Si](Cl)(Cl)Cl,didier12,1
n-Butylmethyldichlorosilane,303.15,1,CCCC[Si](C)(Cl)Cl,didier12,1
Bis(dimethylamino)methylsilane,270.15,1,CN(C)C([SiH3])N(C)C,didier12,1
Phenyltrichlorosilane,364.15,1,Cl[Si](Cl)(Cl)c1ccccc1,didier12,1
Dimethyldiacetoxysilane,310.15,1,CC(=O)O[Si](C)(C)OC(C)=O,didier12,1
1-Trimethylsilylpropyne,270.15,1,CC#C[Si](C)(C)C,didier12,1
Vinyldimethylethoxysilane,277.15,1,C=C[Si](C)(C)OCC,didier12,1
Allyloxytrimethylsilane,273.15,1,C=CCO[Si](C)(C)C,didier12,1
Allyltrimethoxysilane,319.15,1,C=CC[Si](OC)(OC)OC,didier12,1
3-Chloropropyltrimethoxysilane,348.15,1,CO[Si](CCCCl)(OC)OC,didier12,1
n-Propyltrimethoxysilane,298.15,1,CCC[Si](OC)(OC)OC,didier12,1
Hexamethyldisiloxane,270.15,1,C[Si](C)(C)O[Si](C)(C)C,didier12,1
Hexamethyldisilane,272.15,1,C[Si](C)(C)[Si](C)(C)C,didier12,1
Vinyldiethylmethylsilane,288.15,1,C=C[Si](C)(CC)CC,didier12,1
Isobutyltrimethoxysilane,315.15,1,CO[Si](CC(C)C)(OC)OC,didier12,1
Phenyldimethylchlorosilane,334.15,1,C[Si](C)(Cl)c1ccccc1,didier12,1
"(N,N-Dimethylamino)triethylsilane",299.15,1,CC[Si](CC)(CC)N(C)C,didier12,1
Vinyltriacetoxysilane,361.15,1,C=C[Si](OC(C)=O)(OC(C)=O)OC(C)=O,didier12,1
Ethyltriacetoxysilane,377.15,1,CC[Si](OC(C)=O)(OC(C)=O)OC(C)=O,didier12,1
3-(Trimethylsilyl)cyclopentene,299.15,1,C[Si](C)(C)C1C=CCC1,didier12,1
Vinyltriethylsilane,298.15,1,C=C[Si](CC)(CC)CC,didier12,1
n-Octylsilane,309.15,1,CCCCCCCC[SiH3],didier12,1
Methylphenyldimethoxysilane,349.15,1,CO[Si](C)(OC)c1ccccc1,didier12,1
2-Cyanoethyltriethoxysilane,359.15,1,CCO[Si](CCC#N)(OCC)OCC,didier12,1
3-Glycidoxypropyltrimethoxysilane,383.15,1,CO[Si](CCCOCC1CO1)(OC)OC,didier12,1
Di-t-butylmethylchlorosilane,342.15,1,CC(C)(C)[Si](C)(Cl)C(C)(C)C,didier12,1
Tri-n-propylchlorosilane,349.15,1,CCC[Si](Cl)(CCC)CCC,didier12,1
(Diisopropylamino)trimethylsilane,301.15,1,CC(C)N(C(C)C)[Si](C)(C)C,didier12,1
1-Chlorononamethyltetrasiloxane,347.15,1,C[Si](C)(C)O[Si](C)(C)O[Si](C)(C)O[Si](C)(C)Cl,didier12,1
Tristrimethylsiloxymethylsilane,336.15,1,C[Si](C)(C)OC([SiH3])(O[Si](C)(C)C)O[Si](C)(C)C,didier12,1
Diphenylmethylsilane,393.15,1,[SiH3]C(c1ccccc1)c1ccccc1,didier12,1
Trimethyl[(1-methylethenyl)oxy]silane,272.15,1,C=C(C)O[Si](C)(C)C,didier12,1
"Dichloromethyl-3,3,3-trifluoropropylsilane",288.15,1,FC(F)(F)CC[SiH2]C(Cl)Cl,didier12,1
[2-(chloromethoxy)ethyl]trimethylsilane,319.15,1,C[Si](C)(C)CCOCCl,didier12,1
Triphenylsilane,416.35,1,c1ccc([SiH](c2ccccc2)c2ccccc2)cc1,didier12,1
Trichlorosilane,245.15,1,Cl[SiH](Cl)Cl,didier12,1
"1,1dimethyl1sila2oxacyclohexane",287.15,1,C[Si]1(C)CCCCO1,le15,1
"1,2dibromoethyltrichlorosilane",338.15,1,Cl[Si](Cl)(Cl)C(Br)CBr,le15,1
"1,3dichloroTetramethylDisiloxane",288.15,1,C[Si](C)(Cl)O[Si](C)(C)Cl,le15,1
"1,3divinylTetramethylDisilazane",307.15,1,C=C[Si](C)(C)N[Si](C)(C)C=C,le15,1
1bromovinylTrimethylSilane,288.15,1,C=C(Br)[Si](C)(C)C,le15,1
1chloroethyltrichlorosilane,288.15,1,CC(Cl)[Si](Cl)(Cl)Cl,le15,1
1chlorononamethylTetrasiloxane,347.15,1,C[Si](C)(C)O[Si](C)(C)O[Si](C)(C)O[Si](C)(C)Cl,le15,1
1heptynylTrimethylSilane,315.15,1,CCCCCC#C[Si](C)(C)C,le15,1
1hexenylTrichloroSilane,333.15,1,CCCCC=C[Si](Cl)(Cl)Cl,le15,1
1methoxy2propoxyTrimethylSilane,293.15,1,COCC(C)O[Si](C)(C)C,le15,1
1trimethylsilylpropyne-,270.15,1,CC#C[Si](C)(C)C,le15,1
"2,4pentadienylTrimethylSilane",291.15,1,C=CC=CC[Si](C)(C)C,le15,1
2bromoethyltrichlorosilane,313.15,1,Cl[Si](Cl)(Cl)CCBr,le15,1
2bromovinylTrimethylSilane,288.15,1,C[Si](C)(C)C=CBr,le15,1
2chloroethyltrichlorosilane,301.15,1,ClCC[Si](Cl)(Cl)Cl,le15,1
2chloromethyl3trimethylsilyl1propene,316.15,1,C=C(CCl)C[Si](C)(C)C,le15,1
2cyanoethylMethylDichloroSilane,333.15,1,C[Si](Cl)(Cl)CCC#N,le15,1
2cyanoethylTriethoxySilane,359.15,1,CCO[Si](CCC#N)(OCC)OCC,le15,1
3bromo1trimethylsilyl1propyne,335.15,1,C[Si](C)(C)C#CCBr,le15,1
3bromopropyltrichlorosilane,361.15,1,Cl[Si](Cl)(Cl)CCCBr,le15,1
3bromopropylTrimethoxySilane,355.15,1,CO[Si](CCCBr)(OC)OC,le15,1
3chloro2methylpropylMethylDichloroSilane,363.15,1,CC(CCl)C[Si](C)(Cl)Cl,le15,1
3chloropropylDimethylChloroSilane,313.15,1,C[Si](C)(Cl)CCCCl,le15,1
3chloropropylMethylDichloroSilane,359.15,1,C[Si](Cl)(Cl)CCCCl,le15,1
3chloropropylMethylDimethoxySilane,318.15,1,CO[Si](C)(CCCCl)OC,le15,1
3chloropropylTriethoxySilane,335.15,1,CCO[Si](CCCCl)(OCC)OCC,le15,1
3chloropropylTrimethoxySilane,351.15,1,CO[Si](CCCCl)(OC)OC,le15,1
3methacryloxyPropylTrimethoxySilane,365.15,1,C=C(C)C(=O)OCCC[Si](OC)(OC)OC,le15,1
3trimethylsilylCyclopentene,299.15,1,C[Si](C)(C)C1C=CCC1,le15,1
AcetoxymethylTrimethylSilane,293.15,1,CC(=O)OC[Si](C)(C)C,le15,1
AcetoxyTrimethylSilane,277.15,1,CC(=O)O[Si](C)(C)C,le15,1
AllylChloromethylDimethylSilane,300.15,1,C=CC[Si](C)(C)CCl,le15,1
AllylDimethylChloroSilane,278.15,1,C=CC[Si](C)(C)Cl,le15,1
AllylDimethylSilane-,253.15,1,C=CC[SiH](C)C,le15,1
AllylMethylDichloroSilane,300.15,1,C=CCC[SiH](Cl)Cl,le15,1
AllyloxytrimethylSilane,273.15,1,C=CCO[Si](C)(C)C,le15,1
AllylPhenylDichloroSilane,349.15,1,C=CC[Si](Cl)(Cl)c1ccccc1,le15,1
AllylTrichloroSilane,304.15,1,C=CC[Si](Cl)(Cl)Cl,le15,1
AllylTriethoxySilane,320.15,1,C=CC[Si](OCC)(OCC)OCC,le15,1
AllylTrimethoxySilane,319.15,1,C=CC[Si](OC)(OC)OC,le15,1
AllylTrimethylSilane,280.15,1,C=CC[Si](C)(C)C,le15,1
AminoethylAminopropylTrimethoxySilane,369.15,1,CO[Si](CCCNCCN)(OC)OC,le15,1
BenzylDimethylChloroSilane,346.15,1,C[Si](C)(Cl)Cc1ccccc1,le15,1
BenzylDimethylSilane,338.15,1,C[SiH](C)Cc1ccccc1,le15,1
BenzylTrichloroSilane,360.15,1,Cl[Si](Cl)(Cl)Cc1ccccc1,le15,1
BenzylTrimethylSilane,335.15,1,C[Si](C)(C)Cc1ccccc1,le15,1
BischloromethylDimethylSilane,319.15,1,C[Si](C)(CCl)CCl,le15,1
bisChloromethylMethylChloroSilane,315.15,1,C[Si](Cl)(CCl)CCl,le15,1
BisDiethylaminoDimethylSilane,308.15,1,CCN(CC)[Si](C)(C)N(CC)CC,le15,1
BisDimethylaminoDimethylSilane-,266.15,1,CN(C)[Si](C)(C)N(C)C,le15,1
BisDimethylaminoMethylSilane-,270.15,1,CN(C)C([SiH3])N(C)C,le15,1
BistrimethylsilylCarbodiimide,315.15,1,C[Si](C)(C)N=C=N[Si](C)(C)C,le15,1
BisTrimethylsilylMethane,285.15,1,C[Si](C)(C)C[Si](C)(C)C,le15,1
Bromomethyldimethylchlorosilane,314.15,1,C[Si](C)(Cl)CBr,le15,1
BromomethylTrimethylSilane,289.15,1,C[Si](C)(C)CBr,le15,1
ChloromethylDimethylchlorosilane,294.15,1,C[Si](C)(Cl)CCl,le15,1
ChloromethylDimethylEthoxySilane,299.15,1,CCO[Si](C)(C)CCl,le15,1
ChloromethylDimethylPhenylSilane,326.15,1,C[Si](C)(CCl)c1ccccc1,le15,1
Chloromethylmethyldichlorosilane,293.15,1,C[Si](Cl)(Cl)CCl,le15,1
ChloromethylMethylDiethoxySilane,311.15,1,CCO[Si](C)(CCl)OCC,le15,1
ChloromethylTriethoxySilane,320.15,1,CCO[Si](CCl)(OCC)OCC,le15,1
ChloromethylTrimethoxySilane,299.15,1,CO[Si](CCl)(OC)OC,le15,1
ChloromethylTrimethylSilane-,271.15,1,C[Si](C)(C)CCl,le15,1
CyclohexylDimethylSilane,336.15,1,C[SiH](C)C1CCCCC1,le15,1
CyclohexylMethylDichloroSilane,339.15,1,Cl[SiH](Cl)CC1CCCCC1,le15,1
CyclohexylMethylDimethoxySilane,339.15,1,CO[SiH](CC1CCCCC1)OC,le15,1
CyclohexylTrichloroSilane,364.15,1,Cl[Si](Cl)(Cl)C1CCCCC1,le15,1
CyclopentadienylTrimethylSilane,302.15,1,C[Si](C)(C)C1C=CC=C1,le15,1
CyclopentenyloxyTrimethylSilane,311.15,1,C[Si](C)(C)OC1=CCCC1,le15,1
CyclopentylDichloroSilane,316.15,1,Cl[SiH](Cl)C1CCCC1,le15,1
CyclopentylTrichloroSilane,350.15,1,Cl[Si](Cl)(Cl)C1CCCC1,le15,1
DecamethylCyclopentasiloxane,350.15,1,C[Si]1(C)O[Si](C)(C)O[Si](C)(C)O[Si](C)(C)O[Si](C)(C)O1,le15,1
DecamethylTetraSiloxane,335.15,1,C[Si](C)(C)O[Si](C)(C)O[Si](C)(C)O[Si](C)(C)C,le15,1
DichloromethylMethylDichloroSilane,301.15,1,C[Si](Cl)(Cl)C(Cl)Cl,le15,1
DichloroSilane-,236.15,1,Cl[SiH2]Cl,le15,1
DiethylaminoTrimethylSilane,283.15,1,CCN(CC)[Si](C)(C)C,le15,1
DiethylDichloroSilane,300.15,1,CC[Si](Cl)(Cl)CC,le15,1
DiethylDiethoxySilane,316.15,1,CCO[Si](CC)(CC)OCC,le15,1
DiethylMethylChloroSilane,288.15,1,CC[Si](C)(Cl)CC,le15,1
DiethylSilane-,253.15,1,CC[SiH2]CC,le15,1
DiisopropylaminoTrimethylSilane,301.15,1,CC(C)N(C(C)C)[Si](C)(C)C,le15,1
DimethylChloroSilane-,248.15,1,C[SiH](C)Cl,le15,1
DimethylDiacetoxySilane,310.15,1,CC(=O)O[Si](C)(C)OC(C)=O,le15,1
Dimethyldichlorosilane-,263.15,1,C[Si](C)(Cl)Cl,le15,1
DimethylDiethoxySilane,284.15,1,CCO[Si](C)(C)OCC,le15,1
DimethylDimethoxySilane-,265.15,1,CO[Si](C)(C)OC,le15,1
DimethylVinylChloroSilane-,268.15,1,CC(C)=C[SiH2]Cl,le15,1
DiphenylSilane,371.15,1,c1ccc([SiH2]c2ccccc2)cc1,le15,1
DivinylDimethylSilane,281.15,1,C=C[Si](C)(C)C=C,le15,1
DodecamethylCyclohexasiloxane,366.15,1,C[Si]1(C)O[Si](C)(C)O[Si](C)(C)O[Si](C)(C)O[Si](C)(C)O[Si](C)(C)O1,le15,1
DodecamethylPentasiloxane,352.15,1,C[Si](C)(C)O[Si](C)(C)O[Si](C)(C)O[Si](C)(C)O[Si](C)(C)C,le15,1
EthoxyTrimethylSilane-,246.15,1,CCO[Si](C)(C)C,le15,1
Ethyl2trimethylsilylAcetate,308.15,1,CCOC(=O)C[Si](C)(C)C,le15,1
Ethyldichlorosilane-,264.15,1,CC[SiH](Cl)Cl,le15,1
EthylDimethylChloroSilane-,269.15,1,CC[Si](C)(C)Cl,le15,1
EthylDimethylSilane-,248.15,1,CC[SiH](C)C,le15,1
Ethylmethyldichlorosilane,275.15,1,CC[Si](C)(Cl)Cl,le15,1
EthylSilane-,213.15,1,CC[SiH3],le15,1
Ethyltrichlorosilane,300.15,1,CC[Si](Cl)(Cl)Cl,le15,1
EthylTriethoxySilane,313.15,1,CCO[Si](CC)(OCC)OCC,le15,1
EthylTrimethoxySilane,300.15,1,CC[Si](OC)(OC)OC,le15,1
EthylTrimethylSilane,300.15,1,CC[Si](C)(C)C,le15,1
HeptamethylDisilazane,300.15,1,CN([Si](C)(C)C)[Si](C)(C)C,le15,1
HeptamethylTrisiloxane,296.15,1,C[SiH](C)O[Si](C)(C)O[Si](C)(C)C,le15,1
HexaethylDisiloxane,349.15,1,CC[Si](CC)(CC)O[Si](CC)(CC)CC,le15,1
HexamethylCycloTrisiloxane,305.15,1,C[Si]1(C)O[Si](C)(C)O[Si](C)(C)O1,le15,1
HexamethylDisilane-,272.15,1,C[Si](C)(C)[Si](C)(C)C,le15,1
HexamethylDisilaThiane,299.15,1,C[Si](C)(C)S[Si](C)(C)C,le15,1
HexamethylDisilazane,281.15,1,C[Si](C)(C)N[Si](C)(C)C,le15,1
HexamethylTrisiloxane,293.15,1,C[Si](C)(C)O[SiH2]O[Si](C)(C)C,le15,1
HexylDichloroSilane,337.15,1,CCCCCC[SiH](Cl)Cl,le15,1
HexylSilane,285.15,1,CCCCCC[SiH3],le15,1
HexylTrifluoroSilane-,266.15,1,CCCCCC[Si](F)(F)F,le15,1
HexylTrimethoxySilane,335.15,1,CCCCCC[Si](OC)(OC)OC,le15,1
IsobutylTrichloroSilane,310.15,1,CC(C)C[Si](Cl)(Cl)Cl,le15,1
IsobutylTrimethoxySilane,315.15,1,CO[Si](CC(C)C)(OC)OC,le15,1
MethacryloxymethylTrimethylSilane,318.15,1,C=C(C)C(=O)OC[Si](C)(C)C,le15,1
MethoxyTrimethylSilane-,243.15,1,CO[Si](C)(C)C,le15,1
MethyldichloroSilane-,241.15,1,C[SiH](Cl)Cl,le15,1
MethylTriacetoxySilane,358.15,1,CC(=O)O[Si](C)(OC(C)=O)OC(C)=O,le15,1
Methyltrichlorosilane,276.15,1,C[Si](Cl)(Cl)Cl,le15,1
MethylTriethoxySilane,297.15,1,CCO[Si](C)(OCC)OCC,le15,1
MethylVinylDimethoxySilane,277.15,1,CC=C[SiH](OC)OC,le15,1