compound,flashpoint,pure substance,smiles,source
tetramethylsilane,246.15,1,C[Si](C)(C)C,pubchem
chloro(trimethyl)silane,255.15,1,C[Si](C)(C)Cl,pubchem
dichloro(dimethyl)silane,264.15,1,C[Si](C)(Cl)Cl,pubchem
trichloro(methyl)silane,264.15,1,C[Si](Cl)(Cl)Cl,pubchem
trichloro(ethenyl)silane,294.15,1,C=C[Si](Cl)(Cl)Cl,pubchem
tetraethyl silicate,310.15,1,CCO[Si](OCC)(OCC)OCC,pubchem
dichloro(diphenyl)silane,415.15,1,C1=CC=C(C=C1)[Si](C2=CC=CC=C2)(Cl)Cl,pubchem
trichloro(phenyl)silane,364.15,1,C1=CC=C(C=C1)[Si](Cl)(Cl)Cl,pubchem
trichloro(prop-2-enyl)silane,308.15,1,C=CC[Si](Cl)(Cl)Cl,pubchem
trichloro(pentyl)silane,336.15,1,CCCCC[Si](Cl)(Cl)Cl,pubchem
trichloro(octadecyl)silane,362.15,1,CCCCCCCCCCCCCCCCCC[Si](Cl)(Cl)Cl,pubchem
trichloro(ethyl)silane,295.15,1,CC[Si](Cl)(Cl)Cl,pubchem
trichloro(propyl)silane,310.15,1,CCC[Si](Cl)(Cl)Cl,pubchem
dichloro-methyl-phenylsilane,301.15,1,C[Si](C1=CC=CC=C1)(Cl)Cl,pubchem
"2,2,4,4,6,6,8,8,10,10,12,12-dodecamethyl-1,3,5,7,9,11-hexaoxa-2,4,6,8,10,12-hexasilacyclododecane",364.15,1,C[Si]1(O[Si](O[Si](O[Si](O[Si](O[Si](O1)(C)C)(C)C)(C)C)(C)C)(C)C)C,pubchem
"2,2,4,4,6,6,8,8,10,10-decamethyl-1,3,5,7,9,2,4,6,8,10-pentaoxapentasilecane",346.15,1,C[Si]1(O[Si](O[Si](O[Si](O[Si](O1)(C)C)(C)C)(C)C)(C)C)C,pubchem
"2,2,4,4,6,6,8,8-octamethyl-1,3,5,7,2,4,6,8-tetraoxatetrasilocane",328.15,1,C[Si]1(O[Si](O[Si](O[Si](O1)(C)C)(C)C)(C)C)C,pubchem
tetramethyl silicate,369.15,1,CO[Si](OC)(OC)OC,pubchem
3-triethoxysilylpropan-1-amine,371.15,1,CCO[Si](CCCN)(OCC)OCC,pubchem
[dimethyl-(trimethylsilylamino)silyl]methane,282.15,1,C[Si](C)(C)N[Si](C)(C)C,pubchem
trichloro(chloromethyl)silane,342.15,1,C([Si](Cl)(Cl)Cl)Cl,pubchem
dichloro(diethyl)silane,297.15,1,CC[Si](CC)(Cl)Cl,pubchem
3-trimethoxysilylpropyl 2-methylprop-2-enoate,365.15,1,CC(=C)C(=O)OCCC[Si](OC)(OC)OC,pubchem
trichloro(hexadecyl)silane,419.15,1,CCCCCCCCCCCCCCCC[Si](Cl)(Cl)Cl,pubchem
butyl(trichloro)silane,325.15,1,CCCC[Si](Cl)(Cl)Cl,pubchem
dimethyl-bis(trimethylsilyloxy)silane,408.15,1,C[Si](C)(C)O[Si](C)(C)O[Si](C)(C)C,pubchem
trimethyl(trimethylsilyloxy)silane,243.15,1,C[Si](C)(C)O[Si](C)(C)C,pubchem
trimethyl-[methyl-bis(trimethylsilyloxy)silyl]oxysilane,359.15,1,C[Si](C)(C)O[Si](C)(O[Si](C)(C)C)O[Si](C)(C)C,pubchem
trichloro(cyclohexyl)silane,364.15,1,C1CCC(CC1)[Si](Cl)(Cl)Cl,pubchem
dimethyl-octadecyl-(3-trimethoxysilylpropyl)azanium;chloride,288.15,1,CCCCCCCCCCCCCCCCCC[N+](C)(C)CCC[Si](OC)(OC)OC.[Cl-],pubchem
InChI=1S/Cl3Si/c1-4(2)3,259.15,1,[Si](Cl)(Cl)Cl,pubchem
"trichloro-(3,4-dichlorophenyl)silane",414.15,1,C1=CC(=C(C=C1[Si](Cl)(Cl)Cl)Cl)Cl,pubchem
InChI=1S/C2H6ClSi/c1-4(2)3/h1-2H3,264.15,1,C[Si](C)Cl,pubchem
InChI=1S/Cl2Si/c1-3-2,245.15,1,[Si](Cl)Cl,pubchem
"InChI=1S/C2H5Cl2Si/c1-2-5(3)4/h2H2,1H3",272.15,1,CC[Si](Cl)Cl,pubchem
InChI=1S/CH3Cl2Si/c1-4(2)3/h1H3,247.15,1,C[Si](Cl)Cl,pubchem
"InChI=1S/C6H15O3Si/c1-4-7-10(8-5-2)9-6-3/h4-6H2,1-3H3",300.15,1,CCO[Si](OCC)OCC,pubchem
InChI=1S/CH3ClSi/c1-3-2/h1H3,264.15,1,C[Si]Cl,pubchem
ethoxy(trioxido)silane,310.15,1,CCO[Si]([O-])([O-])[O-],pubchem
Trichlorosilane,245.15,1,Cl[SiH](Cl)Cl,chen14
Methyltrichlorosilane,276.15,1,C[Si](Cl)(Cl)Cl,chen14
Vinyltrichlorosilane,294.15,1,C(=C)[Si](Cl)(Cl)Cl,chen14
Dichloromethylmethyldichlorosilane,301.15,1,ClC(Cl)[Si](Cl)(Cl)C,chen14
Ethyltrichlorosilane,263.15,1,C(C)[Si](Cl)(Cl)Cl,chen14
Dimethylchlorosilane,245.15,1,C[SiH](Cl)C,chen14
Ethylsilane,213.15,1,C(C)[SiH3],chen14
"Trichloro(3,3,3-trifluoropropyl)silane",288.15,1,Cl[Si](CCC(F)(F)F)(Cl)Cl,chen14
Allyltrichlorosilane,304.15,1,C(C=C)[Si](Cl)(Cl)Cl,chen14
3-Chloropropyltrichlorosilane,357.15,1,ClCCC[Si](Cl)(Cl)Cl,chen14
n-Propyltrichlorosilane,310.15,1,C(CC)[Si](Cl)(Cl)Cl,chen14
Chloromethyldimethylchlorosilane,295.15,1,ClC[Si](Cl)(C)C,chen14
Trimethyl bromosilane,270.15,1,C[Si](Br)(C)C,chen14
Trimethylchlorosilane,255.15,1,C[Si](Cl)(C)C,chen14
Trimethylfluorosilane,238.15,1,C[Si](F)(C)C,chen14
Trimethoxysilane,264.15,1,CO[SiH](OC)OC,chen14
2-Cyanoethylmethyldichlorosilane,333.15,1,C(#N)CC[Si](Cl)(Cl)C,chen14
Allylmethyldichlorosilane,300.15,1,C(C=C)C[SiH](Cl)Cl,chen14
t-Butyltrichlorosilane,294.15,1,C(C)(C)(C)[Si](Cl)(Cl)Cl,chen14
Isobutyltrichlorosilane,310.15,1,C(C(C)C)[Si](Cl)(Cl)Cl,chen14
n-Butyltrichlorosilane,327.15,1,C(CCC)[Si](Cl)(Cl)Cl,chen14
Trimethylsilylisothiocyanate,308.15,1,C[Si](C)(C)N=C=S,chen14
n-Propylmethyldichlorosilane,300.15,1,C(CC)[Si](Cl)(Cl)C,chen14
Bromomethyltrimethylsilane,289.15,1,BrC[Si](C)(C)C,chen14
ETHYLDIMETHYLCHLOROSILANE,269.15,1,C(C)[Si](Cl)(C)C,chen14
Methoxytrimethylsilane,243.15,1,CO[Si](C)(C)C,chen14
Dimethyldimethoxysilane,265.15,1,C[Si](OC)(OC)C,chen14
Methyltrimethoxysilane,284.15,1,C[Si](OC)(OC)OC,chen14
Tetramethoxysilane,294.15,1,CO[Si](OC)(OC)OC,chen14
Tetramethylsilane,245.15,1,C[Si](C)(C)C,chen14
Diethylsilane,253.15,1,C(C)[SiH2]CC,chen14
"(N,N-Dimethylamino)dimethylsilane",260.15,1,CN(C)[SiH](C)C,chen14
Tetraisocyanatosilane,323.15,1,N(=C=O)[Si](N=C=O)(N=C=O)N=C=O,chen14
Cyclopentyltrichlorosilane,350.15,1,C1(CCCC1)[Si](Cl)(Cl)Cl,chen14
Trimethylsilyltrifluoroacetate,273.15,1,C[Si](C)(C)OC(C(F)(F)F)=O,chen14
Cyclopentyldichlorosilane,316.15,1,C1(CCCC1)[SiH](Cl)Cl,chen14
3-Chloro-2-methylpropylmethyldichlorosilane,363.15,1,ClCC(C[Si](Cl)(Cl)C)C,chen14
Methylvinyldimethoxysilane,277.15,1,CC=C[SiH](OC)OC,chen14
Vinyltrimethoxysilane,296.15,1,C(=C)[Si](OC)(OC)OC,chen14
Trimethylvinylsilane,239.15,1,CC(=C(C)C)[SiH3],chen14
Diethylmethylchlorosilane,288.15,1,C(C)[Si](Cl)(C)CC,chen14
Chloromethyldimethylethoxysilane,299.15,1,ClC[Si](OCC)(C)C,chen14
Ethoxytrimethylsilane,246.15,1,C(C)O[Si](C)(C)C,chen14
Ethyltrimethoxysilane,300.15,1,C(C)[Si](OC)(OC)OC,chen14
"(N,N-Dimethylamino)trimethylsilane",254.5,1,CN(C)[Si](C)(C)C,chen14
Pentamethyldisiloxane,254.15,1,C[SiH](O[Si](C)(C)C)C,chen14
Phenylsilane,281.15,1,C1(=CC=CC=C1)[SiH3],chen14
1-Hexenyltrichlorosilane,333.15,1,C(=CCCCC)[Si](Cl)(Cl)Cl,chen14
Cyclohexyltrichlorosilane,358.15,1,C1(CCCCC1)[Si](Cl)(Cl)Cl,chen14
Bis(chloromethyl)tetramethyldisiloxane,346.15,1,ClC[Si](O[Si](C)(C)C)(C)CCl,chen14
Propargyloxytrimethylsilane,300.15,1,C(C#C)O[Si](C)(C)C,chen14
Divinyldimethylsilane,281.15,1,C(=C)[Si](C)(C)C=C,chen14
n-Hexyltrichlorosilane,358.15,1,C(CCCCC)[Si](Cl)(Cl)Cl,chen14
Hexyldichlorosilane,337.15,1,C(CCCCC)[SiH](Cl)Cl,chen14
"1,1 -Dimethyl-1-sila-2-oxacyclohexane",287.15,1,C[Si]1(OCCCC1)C,chen14
Acetoxymethyltrimethylsilane,293.15,1,C(C)(=O)OC[Si](C)(C)C,chen14
Allyltrimethylsilane,280.15,1,C(C=C)[Si](C)(C)C,chen14
Triethylchlorosilane,303.15,1,C(C)[Si](Cl)(CC)CC,chen14
t-Butyldimethylchlorosilane,295.15,1,C(C)(C)(C)[Si](Cl)(C)C,chen14
3-Chloropropylmethyldimethoxysilane,318.15,1,ClCCC[Si](OC)(OC)C,chen14
Trimethyl-n-propoxysilane,283.15,1,C[Si](OCCC)(C)C,chen14
t-Butyldimethylsilanol,318.15,1,C(C)(C)(C)[Si](O)(C)C,chen14
Dimethyldiethoxysilane,284.15,1,C[Si](OCC)(OCC)C,chen14
Triethylsilane,270.15,1,C(C)[SiH](CC)CC,chen14
Hexylsilane,285.15,1,C(CCCCC)[SiH3],chen14
t-Butyld imethyl silane,251.15,1,C(C)(C)(C)[SiH](C)C,chen14
Bis(dimethylamino)dimethylsilane,266.15,1,CN(C)[Si](C)(C)N(C)C,chen14
Hexamethylcyclotrisiloxane,305.15,1,C[Si]1(O[Si](O[Si](O1)(C)C)(C)C)C,chen14
Hexamethyldisilthiane,299.15,1,C[Si](S[Si](C)(C)C)(C)C,chen14
Hexamethyldisilazane,281.15,1,C[Si](N[Si](C)(C)C)(C)C,chen14
Tris(dimethylamino)silane,298.15,1,CN(C)[SiH](N(C)C)N(C)C,chen14
Hexamethyltrisiloxane,293.15,1,C[Si](O[SiH2]O[Si](C)(C)C)(C)C,chen14
Phenylmethyldichlorosilane,340.15,1,C1(=CC=CC=C1)C[SiH](Cl)Cl,chen14
Phenylmethylchlorosilane,355.15,1,C1(=CC=CC=C1)C[SiH2]Cl,chen14
Methyltriacetoxysilane,358.15,1,C[Si](OC(C)=O)(OC(C)=O)OC(C)=O,chen14
Trivinylmethylsilane,288.15,1,C(=C)C(C=C)(C=C)[SiH3],chen14
Cyclohexylmethyldichlorosilane,355.15,1,C1(CCCCC1)C[SiH](Cl)Cl,chen14
"1-(Trimethylsiloxy)-1,3-butadiene",298.15,1,C[Si](OC=CC=C)(C)C,chen14
2-Chloromethyl-3-trimethylsilyl-1-propene,316.15,1,ClCC(=C)C[Si](C)(C)C,chen14
n-Heptyltrichlorosilane,337.15,1,C(CCCCCC)[Si](Cl)(Cl)Cl,chen14
n-Hexylmethyldichlorosilane,358.15,1,C(CCCCC)[Si](Cl)(Cl)C,chen14
Vinylmethyldiethoxysilane,289.15,1,C(=C)C[SiH](OCC)OCC,chen14
N-(Trimethylsilyl)morpholine,300.15,1,C[Si](N1CCOCC1)(C)C,chen14
t-Butoxytrimethylsilane,287.15,1,C(C)(C)(C)O[Si](C)(C)C,chen14
(1-Methoxy-2-propoxy)trimethylsilane,293.15,1,COCC(C)O[Si](C)(C)C,chen14
Methyltriethoxysilane,297.15,1,C[Si](OCC)(OCC)OCC,chen14
(Diethylamino)trimethylsilane,283.15,1,C(C)N(CC)[Si](C)(C)C,chen14
Bis(trimethylsilyl)methane,285.15,1,C[Si](C)(C)C[Si](C)(C)C,chen14
Heptamethyldisilazane,300.15,1,C[Si](N([Si](C)(C)C)C)(C)C,chen14
Bis(trimethylsiloxy)methylsilane,296.15,1,C[Si](OC(O[Si](C)(C)C)[SiH3])(C)C,chen14
Tetravinylsilane,291.15,1,C(=C)[Si](C=C)(C=C)C=C,chen14
Cyclopentadienyltrimethylsilane,302.15,1,C1(C=CC=C1)[Si](C)(C)C,chen14
(Cyclopentenyloxy)trimethylsilane,311.15,1,C1(=CCCC1)O[Si](C)(C)C,chen14
"(2,4-Pentadienyl)trimethylsilane",291.15,1,C(C=CC=C)[Si](C)(C)C,chen14
n-Octyltrichlorosilane,369.15,1,C(CCCCCCC)[Si](Cl)(Cl)Cl,chen14
n-Heptylmethyldichlorosilane,339.15,1,C(CCCCCC)[Si](Cl)(Cl)C,chen14
Tetramethyldivinyldisiloxane,292.15,1,C[Si](O[Si](C=C)(C=C)C)(C)C,chen14
Triethylacetoxysilane,314.15,1,C(C)C(C(=O)O[SiH3])(CC)CC,chen14
Vinyltriethoxysilane,307.15,1,C(=C)[Si](OCC)(OCC)OCC,chen14
"1,3-Divinyltetramethyldisilazane",307.15,1,C(=C)[Si](N[Si](C=C)(C)C)(C)C,chen14
Diethyldiethoxysilane,316.15,1,C(C)[Si](OCC)(OCC)CC,chen14
Tetraethoxysilane,323.15,1,C(C)O[Si](OCC)(OCC)OCC,chen14
Tetraethylsilane,305.15,1,C(C)[Si](CC)(CC)CC,chen14
Aminoethylaminopropyltrimethoxysilane,269.15,1,NCCNCCC[Si](OC)(OC)OC,chen14
Tetramethyldiethoxysiloxane,311.15,1,CC(C(O[Si]([O])OCC)(C)C)C,chen14
Octamethyltrisiloxane,303.15,1,C[Si](O[Si](O[Si](C)(C)C)(C)C)(C)C,chen14
Octamethylcyclotetrasiloxane,330.15,1,C[Si]1(O[Si](O[Si](O[Si](O1)(C)C)(C)C)(C)C)C,chen14
Octamethylcyclotetrasilazane,339.15,1,C[Si]1(N[Si](N[Si](N[Si](N1)(C)C)(C)C)(C)C)C,chen14
Tetrakisdimethylsiloxysilane,340.15,1,C[SiH](O[Si](O[SiH](C)C)(O[SiH](C)C)O[SiH](C)C)C,chen14
p-Chlorophenyltrimethylsilane,322.15,1,ClC1=CC=C(C=C1)[Si](C)(C)C,chen14
Phenyltrimethoxysilane,358.15,1,C1(=CC=CC=C1)[Si](OC)(OC)OC,chen14
Trimethylphenylsilane,313.15,1,C[Si](C1=CC=CC=C1)(C)C,chen14
Cyclohexylmethyldimethoxysilane,343.15,1,C1(CCCCC1)C[SiH](OC)OC,chen14
Hexyltrimethoxysilane,335.15,1,C(CCCCC)[Si](OC)(OC)OC,chen14
Triisopropylsilane,310.15,1,C(C)(C)[SiH](C(C)C)C(C)C,chen14
Tri-n-propylsilane,316.15,1,C(CC)[SiH](CCC)CCC,chen14
Propyltris(dimethylsiloxy)silane,323.15,1,C(CC)[Si](O[SiH](C)C)(O[SiH](C)C)O[SiH](C)C,chen14
Benzyltrimethylsilane,335.15,1,C(C1=CC=CC=C1)[Si](C)(C)C,chen14
3-Methacryloxypropyltrimethoxysilane,365.15,1,C(C(=C)C)(=O)OCCC[Si](OC)(OC)OC,chen14
1-Heptynyltrimethylsilane,315.15,1,C(#CCCCCC)[Si](C)(C)C,chen14
n-Octyldimethylchlorosilane,370.15,1,C(CCCCCCC)[Si](Cl)(C)C,chen14
Bis(diethylamino)dimethylsilane,308.15,1,C(C)N(CC)[Si](C)(C)N(CC)CC,chen14
Decamethyltetrasiloxane,335.15,1,C[Si](O[Si](O[Si](O[Si](C)(C)C)(C)C)(C)C)(C)C,chen14
Decamethylcyclopentasiloxane,350.15,1,C[Si]1(O[Si](O[Si](O[Si](O[Si](O1)(C)C)(C)C)(C)C)(C)C)C,chen14
"2-(3,4-epoxycyclohexyl)ethyltrimethoxysilane",419.15,1,C1(CC2C(CC1)O2)CC[Si](OC)(OC)OC,chen14
n-Decylmethyldichlorosilane,393.15,1,C(CCCCCCCCC)[Si](Cl)(Cl)C,chen14
Vinyltriethylsilane,318.15,1,C(=C)[Si](CC)(CC)CC,chen14
Diphenyldichlorosilane,415.15,1,C1(=CC=CC=C1)[Si](Cl)(Cl)C1=CC=CC=C1,chen14
Phenyltriethoxysilane,393.15,1,C1(=CC=CC=C1)[Si](OCC)(OCC)OCC,chen14
Diphenylsilane,371.15,1,C1(=CC=CC=C1)[SiH2]C1=CC=CC=C1,chen14
"2,4,6,8-Tetravinyl-2,4,6,8-tetramethylcyclotetrasiloxane",385.15,1,C(=C)[Si]1(O[Si](O[Si](O[Si](O1)(C)C=C)(C)C=C)(C)C=C)C,chen14
n-Dodecyltrichlorosilane,435.15,1,C(CCCCCCCCCCC)[Si](Cl)(Cl)Cl,chen14
Tetra-n-propoxysilane,368.15,1,C(CC)O[Si](OCCC)(OCCC)OCCC,chen14
Hexaethyldisiloxane,349.15,1,C(C)[Si](O[Si](CC)(CC)CC)(CC)CC,chen14
Dodecamethylpentasiloxane,352.15,1,C[Si](O[Si](O[Si](O[Si](O[Si](C)(C)C)(C)C)(C)C)(C)C)(C)C,chen14
Dodecamethylcyclohexasiloxane,366.15,1,C[Si]1(O[Si](O[Si](O[Si](O[Si](O[Si](O1)(C)C)(C)C)(C)C)(C)C)(C)C)C,chen14
Methyldiphenylchlorosilane,411.15,1,C[Si](Cl)(C1=CC=CC=C1)C1=CC=CC=C1,chen14
n-Dodecylmethyldichlorosilane,416.15,1,C(CCCCCCCCCCC)[Si](Cl)(Cl)C,chen14
Diphenyldimethoxysilane,394.15,1,C1(=CC=CC=C1)[Si](OC)(OC)C1=CC=CC=C1,chen14
Octyltriethoxysilane,373.15,1,C(CCCCCCC)[Si](OCC)(OCC)OCC,chen14
Tetradecamethylhexasiloxane,375.15,1,C[Si](O[Si](O[Si](O[Si](O[Si](O[Si](C)(C)C)(C)C)(C)C)(C)C)(C)C)(C)C,chen14
Hexadecamethylheptasiloxane,406.15,1,C[Si](O[Si](O[Si](O[Si](O[Si](O[Si](O[Si](C)(C)C)(C)C)(C)C)(C)C)(C)C)(C)C)(C)C,chen14
n-Octadecyltrichlorosilane,466.15,1,C(CCCCCCCCCCCCCCCCC)[Si](Cl)(Cl)Cl,chen14
Octadecamethyloctasiloxane,417.15,1,C[Si](O[Si](O[Si](O[Si](O[Si](O[Si](O[Si](O[Si](C)(C)C)(C)C)(C)C)(C)C)(C)C)(C)C)(C)C)(C)C,chen14
Vinyltris(methoxyethoxy)silane,353.15,1,C(=C)[Si](OCCOC)(OCCOC)OCCOC,chen14
Trimethyl(vinyloxy)silane,263.15,1,C[Si](OC=C)(C)C,chen14
Trichloro(3-cyanopropyl) Silane,365.15,1,Cl[Si](CCCC#N)(Cl)Cl,chen14
Trichloro(2-phenylethyl)silane,364.15,1,Cl[Si](CCC1=CC=CC=C1)(Cl)Cl,chen14
"Chlorodimethyl(3,3,3-trifluoropropyl) silane",293.15,1,Cl[Si](CCC(F)(F)F)(C)C,chen14
Vinylmethylbis (trimethylsiloxy) silane,324.15,1,C(=C)C[SiH](O[Si](C)(C)C)O[Si](C)(C)C,chen14
Trichloro(Chloromethyl) silane,342.15,1,Cl[Si](CCl)(Cl)Cl,chen14
Dimethyl(pentafluorophenyl) silane,313.15,1,C[SiH](C1=C(C(=C(C(=C1F)F)F)F)F)C,chen14
Trichloro(p-chlorophenyl)silane,397.05,1,Cl[Si](C1=CC=C(C=C1)Cl)(Cl)Cl,chen14
Trisilane,273.15,1,[SiH3][SiH2][SiH3],chen14
Trichlorononylsilane,387.15,1,ClC(CCCCCCCC[SiH3])(Cl)Cl,chen14
Dichloroethylsilane,263.75,1,ClC(C[SiH3])Cl,chen14
Trichloro(dichlorophenyl)silane,419.15,1,Cl[Si](C1=C(C(=CC=C1)Cl)Cl)(Cl)Cl,chen14
Tris(trimethylsilyl)silane,328.15,1,C[Si](C)(C)[SiH]([Si](C)(C)C)[Si](C)(C)C,chen14
Tris(trimethylsiloxy)silane,323.15,1,C[Si](O[SiH](O[Si](C)(C)C)O[Si](C)(C)C)(C)C,chen14
Hexadecyltrichlorosilane,427.15,1,C(CCCCCCCCCCCCCCC)[Si](Cl)(Cl)Cl,chen14
Dichlorosilane,236.15,1,Cl[SiH2]Cl,chen14
Dimethyldichlorosilane,257.15,1,C[Si](Cl)(Cl)C,chen14
Bromomethyldimethylchlorosilane,314.15,1,BrC[Si](Cl)(C)C,chen14
Trimethylsilane,204.15,1,C[SiH](C)C,chen14
Dimethylvinylchlorosilane,268.15,1,CC(=C[SiH2]Cl)C,chen14
"1,3-Dichlorotetramethyldisiloxane",288.15,1,Cl[Si](O[Si](Cl)(C)C)(C)C,chen14
"1,1,3,3-Tetramethyldisiloxane",251.15,1,C[SiH](O[SiH](C)C)C,chen14
Tetramethyldisilazane,284.15,1,CN([Si](C)(C)C)[SiH3],chen14
Allyl Dimethylchlorosilane,278.15,1,C(C=C)[Si](Cl)(C)C,chen14
sec-Amyltrichlorosilane,303.15,1,C(C)(CCC)[Si](Cl)(Cl)Cl,chen14
n-Butylmethyldichlorosilane,303.15,1,C(CCC)[Si](Cl)(Cl)C,chen14
Bis(dimethylamino)methylsilane,270.15,1,CN(C)C(N(C)C)[SiH3],chen14
Phenyltrichlorosilane,364.15,1,C1(=CC=CC=C1)[Si](Cl)(Cl)Cl,chen14
Phenyl trifluorosilane,268.15,1,C1(=CC=CC=C1)[Si](F)(F)F,chen14
Dimethyldiacetoxysilane,310.15,1,C[Si](OC(C)=O)(OC(C)=O)C,chen14
1-Trimethylsilylpropyne,270.15,1,C[Si](C#CC)(C)C,chen14
Vinyldimethylethoxysilane,277.15,1,C(=C)[Si](OCC)(C)C,chen14
Allyloxytrimethylsilane,273.15,1,C(C=C)O[Si](C)(C)C,chen14
Allyltrimethoxysilane,319.15,1,C(C=C)[Si](OC)(OC)OC,chen14
3-Chloropropyltrimethoxysilane,348.15,1,ClCCC[Si](OC)(OC)OC,chen14
n-Propyltrimethoxysilane,298.15,1,C(CC)[Si](OC)(OC)OC,chen14
Hexamethyldisiloxane,270.15,1,C[Si](O[Si](C)(C)C)(C)C,chen14
Hexamethyldisilane,272.15,1,C[Si]([Si](C)(C)C)(C)C,chen14
Vinyldiethylmethylsilane,288.15,1,C(=C)[Si](C)(CC)CC,chen14
Isobutyltrimethoxysilane,315.15,1,C(C(C)C)[Si](OC)(OC)OC,chen14
Phenyldimethylchlorosilane,334.15,1,C1(=CC=CC=C1)[Si](Cl)(C)C,chen14
"(N,N-Dimethylamino)triethylsilane",299.15,1,CN(C)[Si](CC)(CC)CC,chen14
Vinyltriacetoxysilane,361.15,1,C(=C)[Si](OC(C)=O)(OC(C)=O)OC(C)=O,chen14
Ethyltriacetoxysilane,377.15,1,C(C)[Si](OC(C)=O)(OC(C)=O)OC(C)=O,chen14
3-(Trimethylsilyl)cyclopentene,299.15,1,C[Si](C1C=CCC1)(C)C,chen14
Vinyltriethylsilane,298.15,1,C(=C)[Si](CC)(CC)CC,chen14
n-Octylsilane,309.15,1,C(CCCCCCC)[SiH3],chen14
Methyl phenyldimethoxysilane,349.15,1,C[Si](OC)(OC)C1=CC=CC=C1,chen14
2-Cyanoethyltriethoxysilane,359.15,1,C(#N)CC[Si](OCC)(OCC)OCC,chen14
3-Glycidoxypropyltrimethoxysilane,383.15,1,C(C1CO1)OCCC[Si](OC)(OC)OC,chen14
Di-t-butylmethylchlorosilane,342.15,1,C(C)(C)(C)[Si](Cl)(C)C(C)(C)C,chen14
Tri-n-propylchlorosilane,349.15,1,C(CC)[Si](Cl)(CCC)CCC,chen14
(Diisopropylamino)trimethylsilane,301.15,1,C(C)(C)N(C(C)C)[Si](C)(C)C,chen14
1-Chlorononamethyltetrasiloxane,347.15,1,Cl[Si](O[Si](O[Si](O[Si](C)(C)C)(C)C)(C)C)(C)C,chen14
Tristrimethylsiloxymethylsilane,336.15,1,C[Si](OC(O[Si](C)(C)C)(O[Si](C)(C)C)[SiH3])(C)C,chen14
Diphenylmethylsilane,393.15,1,C1(=CC=CC=C1)C(C1=CC=CC=C1)[SiH3],chen14
Trimethyl[(1-methylethenyl)oxy]silane,272.15,1,C[Si](OC(=C)C)(C)C,chen14
"Dichloromethyl-3,3,3-trifluoropropylsilane",288.15,1,ClC(Cl)[SiH2]CCC(F)(F)F,chen14
[2-(chloromethoxy)ethyl]trimethylsilane,319.15,1,ClCOCC[Si](C)(C)C,chen14
Iodotrimethylsilane,288.15,1,I[Si](C)(C)C,chen14
Triphenylsilane,416.35,1,C1(=CC=CC=C1)[SiH](C1=CC=CC=C1)C1=CC=CC=C1,chen14
[3-(mercapto)propyl]triethoxysilane,360.93,1,SCCC[Si](OCC)(OCC)OCC,chen14
Gamma-aminopropylethoxysilane,369.26,1,NCCC[SiH2]OCC,chen14
Dichlorodiethylsilane,297.15,1,Cl[Si](CC)(CC)Cl,chen14
Trichlorosilane,245,1,Cl[SiH](Cl)Cl,pan12
Dichlorosilane,236,1,Cl[SiH2]Cl,pan12
Methyltrichlorosilane,276,1,C[Si](Cl)(Cl)Cl,pan12
Methyldichlorosilane,241,1,C[SiH](Cl)Cl,pan12
Dichloromethylmethyldichlorosilane,301,1,ClC(Cl)[Si](Cl)(Cl)C,pan12
Ethyltrichlorosilane,295,1,C(C)[Si](Cl)(Cl)Cl,pan12
Dimethyldichlorosilane,257,1,C[Si](Cl)(Cl)C,pan12
Dimethylchlorosilane,245,1,C[SiH](Cl)C,pan12
"1,1,1-Trifluoropropyltrichlorosilane",288,1,FC(C(C)[Si](Cl)(Cl)Cl)(F)F,pan12
Allyltrichlorosilane,304,1,C(C=C)[Si](Cl)(Cl)Cl,pan12
Methylvinyldichlorosilane,272,1,CC=C[SiH](Cl)Cl,pan12
3-Chloropropyltrichlorosilane,357,1,ClCCC[Si](Cl)(Cl)Cl,pan12
Bromomethyldimethylchlorosilane,314,1,BrC[Si](Cl)(C)C,pan12
Chloromethyldimethylchlorosilane,295,1,ClC[Si](Cl)(C)C,pan12
Trimethylbromosilane,270,1,C[Si](Br)(C)C,pan12
Trimethylchlorosilane,255,1,C[Si](Cl)(C)C,pan12
Trimethoxysilane,264,1,CO[SiH](OC)OC,pan12
Trimethylsilane,204,1,C[SiH](C)C,pan12
Cyanoethylmethyldichlorosilane,333,1,C(#N)CC[Si](Cl)(Cl)C,pan12
Allylmethyldichlorosilane,300,1,C(C=C)C[SiH](Cl)Cl,pan12
3-Chloropropylmethyldichlorosilane,359,1,ClCCC[Si](Cl)(Cl)C,pan12
t-Butyltrichlorosilane,294,1,C(C)(C)(C)[Si](Cl)(Cl)Cl,pan12
Isobutyltrichlorosilane,310,1,C(C(C)C)[Si](Cl)(Cl)Cl,pan12
n-Butyltrichlorosilane,327,1,C(CCC)[Si](Cl)(Cl)Cl,pan12
n-Propylmethyldichlorosilane,300,1,C(CC)[Si](Cl)(Cl)C,pan12
Bromomethyltrimethylsilane,289,1,BrC[Si](C)(C)C,pan12
Ethyldimethylchlorosilane,269,1,C(C)[Si](Cl)(C)C,pan12
"1,3-Dichlorotetramethyldisiloxane",288,1,Cl[Si](O[Si](Cl)(C)C)(C)C,pan12
Dimethyldimethoxysilane,265,1,C[Si](OC)(OC)C,pan12
Methyltrimethoxysilane,284,1,C[Si](OC)(OC)OC,pan12
Tetramethoxysilane,294,1,CO[Si](OC)(OC)OC,pan12
Tetramethylsilane,245,1,C[Si](C)(C)C,pan12
"(N,N-Dimethylamino)dimethylsilane",260,1,CN(C)[SiH](C)C,pan12
"1,1,3,3-Tetramethyldisiloxane",251,1,C[SiH](O[SiH](C)C)C,pan12
Tetramethyldisilazane,284,1,CN([Si](C)(C)C)[SiH3],pan12
Cyclopentyltrichlorosilane,350,1,C1(CCCC1)[Si](Cl)(Cl)Cl,pan12
Trimethylsilyltrifluoroacetate,273,1,C[Si](C)(C)OC(C(F)(F)F)=O,pan12
Cyclopentyldichlorosilane,316,1,C1(CCCC1)[SiH](Cl)Cl,pan12
Allyldimethylchlorosilane,278,1,C(C=C)[Si](Cl)(C)C,pan12
3-Chloro-2-methylpropylmethyldichlorosilane,363,1,ClCC(C[Si](Cl)(Cl)C)C,pan12
n-Butylmethyldichlorosilane,303,1,C(CCC)[Si](Cl)(Cl)C,pan12
Methylvinyldimethoxysilane,277,1,CC=C[SiH](OC)OC,pan12
Trimethylvinylsilane,239,1,CC(=C(C)C)[SiH3],pan12
Diethylmethylchlorosilane,288,1,C(C)[Si](Cl)(C)CC,pan12
Chloromethyldimethylethoxysilane,299,1,ClC[Si](OCC)(C)C,pan12
Ethyltrimethoxysilane,300,1,C(C)[Si](OC)(OC)OC,pan12
"(N,N-Dimethylamino)trimethylsilane",254,1,CN(C)[Si](C)(C)C,pan12
Bis(dimethylamino)methylsilane,270,1,CN(C)C(N(C)C)[SiH3],pan12
Pentamethyldisiloxane,254,1,C[SiH](O[Si](C)(C)C)C,pan12
Phenyldichlorosilane,333,1,C1(=CC=CC=C1)[SiH](Cl)Cl,pan12
Phenylsilane,281,1,C1(=CC=CC=C1)[SiH3],pan12