compound,flashpoint,pure substance,smiles,source
1-Hexenyltrichlorosilane,333,1,C(=CCCCC)[Si](Cl)(Cl)Cl,pan12
Bis(chloromethyl)tetramethyldisiloxane,346,1,ClC[Si](O[Si](C)(C)C)(C)CCl,pan12
N-Methyl-N-trimethylsilyltrifluoroacetamide,298,1,CN(C(C(F)(F)F)=O)[Si](C)(C)C,pan12
Propargyloxytrimethylsilane,300,1,C(C#C)O[Si](C)(C)C,pan12
Dimethyldiacetoxysilane,310,1,C[Si](OC(C)=O)(OC(C)=O)C,pan12
Divinyldimethylsilane,281,1,C(=C)[Si](C)(C)C=C,pan12
n-Hexyltrichlorosilane,358,1,C(CCCCC)[Si](Cl)(Cl)Cl,pan12
Vinyldimethylethoxysilane,277,1,C(=C)[Si](OCC)(C)C,pan12
"1,1-Dimethyl-1-sila-2-oxacyclohexane",287,1,C[Si]1(OCCCC1)C,pan12
Allyloxytrimethylsilane,273,1,C(C=C)O[Si](C)(C)C,pan12
Acetoxymethyltrimethylsilane,293,1,C(C)(=O)OC[Si](C)(C)C,pan12
Allyltrimethylsilane,280,1,C(C=C)[Si](C)(C)C,pan12
Triethylchlorosilane,303,1,C(C)[Si](Cl)(CC)CC,pan12
t-Butyldimethylchlorosilane,295,1,C(C)(C)(C)[Si](Cl)(C)C,pan12
3-Chloropropyltrimethoxysilane,348,1,ClCCC[Si](OC)(OC)OC,pan12
Trimethyl-n-propoxysilane,283,1,C[Si](OCCC)(C)C,pan12
t-Butyldimethylsilanol,318,1,C(C)(C)(C)[Si](O)(C)C,pan12
Dimethyldiethoxysilane,284,1,C[Si](OCC)(OCC)C,pan12
Triethylsilane,270,1,C(C)[SiH](CC)CC,pan12
Hexylsilane,285,1,C(CCCCC)[SiH3],pan12
t-Butyldimethylsilane,251,1,C(C)(C)(C)[SiH](C)C,pan12
Bis(dimethylamino)dimethylsilane,266,1,CN(C)[Si](C)(C)N(C)C,pan12
Hexamethylcyclotrisiloxane,305,1,C[Si]1(O[Si](O[Si](O1)(C)C)(C)C)C,pan12
Hexamethyldisilthiane,299,1,C[Si](S[Si](C)(C)C)(C)C,pan12
Hexamethyldisilane,272,1,C[Si]([Si](C)(C)C)(C)C,pan12
Tris(dimethylamino)silane,298,1,CN(C)[SiH](N(C)C)N(C)C,pan12
Hexamethyltrisiloxane,293,1,C[Si](O[SiH2]O[Si](C)(C)C)(C)C,pan12
Phenylmethyldichlorosilane,355,1,C1(=CC=CC=C1)C[SiH](Cl)Cl,pan12
Phenylmethylchlorosilane,355,1,C1(=CC=CC=C1)C[SiH2]Cl,pan12
Trivinylmethylsilane,288,1,C(=C)C(C=C)(C=C)[SiH3],pan12
Cyclohexylmethyldichlorosilane,355,1,C1(CCCCC1)C[SiH](Cl)Cl,pan12
"1-(Trimethylsiloxy)-1,3-butadiene",298,1,C[Si](OC=CC=C)(C)C,pan12
2-Chloromethyl-3-trimethylsilyl-1-propene,316,1,ClCC(=C)C[Si](C)(C)C,pan12
n-Hexylmethyldichlorosilane,358,1,C(CCCCC)[Si](Cl)(Cl)C,pan12
Vinylmethyldiethoxysilane,289,1,C(=C)C[SiH](OCC)OCC,pan12
Vinyldiethylmethylsilane,288,1,C(=C)[Si](C)(CC)CC,pan12
N-(Trimethylsilyl)morpholine,300,1,C[Si](N1CCOCC1)(C)C,pan12
Bis(trimethylsilyl)carbodiimide,315,1,C[Si](C)(C)N=C=N[Si](C)(C)C,pan12
t-Butoxytrimethylsilane,287,1,C(C)(C)(C)O[Si](C)(C)C,pan12
Vinylpentamethyldisiloxane,285,1,C(=C)[Si](O[Si](C)(C)C)(C)C,pan12
Isobutyltrimethoxysilane,315,1,C(C(C)C)[Si](OC)(OC)OC,pan12
Methyltriethoxysilane,297,1,C[Si](OCC)(OCC)OCC,pan12
(Diethylamino)trimethylsilane,283,1,C(C)N(CC)[Si](C)(C)C,pan12
Bis(trimethylsilyl)methane,285,1,C[Si](C)(C)C[Si](C)(C)C,pan12
Phenylethyldichlorosilane,365,1,C1(=CC=CC=C1)CC[SiH](Cl)Cl,pan12
Phenyldimethylchlorosilane,334,1,C1(=CC=CC=C1)[Si](Cl)(C)C,pan12
"(N,N-Dimethylamino)triethylsilane",299,1,CN(C)[Si](CC)(CC)CC,pan12
Tetravinylsilane,291,1,C(=C)[Si](C=C)(C=C)C=C,pan12
Phenyldimethylsilane,311,1,C1(=CC=CC=C1)[SiH](C)C,pan12
Ethyltriacetoxysilane,377,1,C(C)[Si](OC(C)=O)(OC(C)=O)OC(C)=O,pan12
Cyclopentadienyltrimethylsilane,302,1,C1(C=CC=C1)[Si](C)(C)C,pan12
3-(Trimethylsilyl)cyclopentene,299,1,C[Si](C1C=CCC1)(C)C,pan12
"(2,4-Pentadienyl)trimethylsilane",291,1,C(C=CC=C)[Si](C)(C)C,pan12
n-Octyltrichlorosilane,369,1,C(CCCCCCC)[Si](Cl)(Cl)Cl,pan12
n-Heptylmethyldichlorosilane,339,1,C(CCCCCC)[Si](Cl)(Cl)C,pan12
Triethylacetoxysilane,314,1,C(C)C(C(=O)O[SiH3])(CC)CC,pan12
Vinyltriethoxysilane,307,1,C(=C)[Si](OCC)(OCC)OCC,pan12
Vinyltriethylsilane,298,1,C(=C)[Si](CC)(CC)CC,pan12
"1,3-Divinyltetramethyldisilazane",307,1,C(=C)[Si](N[Si](C=C)(C)C)(C)C,pan12
Tetraethoxysilane,323,1,C(C)O[Si](OCC)(OCC)OCC,pan12
Tetraethylsilane,299,1,C(C)[Si](CC)(CC)CC,pan12
n-Octylsilane,309,1,C(CCCCCCC)[SiH3],pan12
Aminoethylaminopropyltrimethoxysilane,369,1,NCCNCCC[Si](OC)(OC)OC,pan12
Octamethyltrisiloxane,303,1,C[Si](O[Si](O[Si](C)(C)C)(C)C)(C)C,pan12
Octamethylcyclotetrasiloxane,330,1,C[Si]1(O[Si](O[Si](O[Si](O1)(C)C)(C)C)(C)C)C,pan12
Octamethylcyclotetrasilazane,339,1,C[Si]1(N[Si](N[Si](N[Si](N1)(C)C)(C)C)(C)C)C,pan12
Tetrakisdimethylsiloxysilane,340,1,C[SiH](O[Si](O[SiH](C)C)(O[SiH](C)C)O[SiH](C)C)C,pan12
p-Chlorophenyltrimethylsilane,322,1,ClC1=CC=C(C=C1)[Si](C)(C)C,pan12
Methylphenyldimethoxysilane,349,1,C[Si](OC)(OC)C1=CC=CC=C1,pan12
Phenyltrimethoxysilane,358,1,C1(=CC=CC=C1)[Si](OC)(OC)OC,pan12
Trimethylphenylsilane,313,1,C[Si](C1=CC=CC=C1)(C)C,pan12
2-Cyanoethyltriethoxysilane,359,1,C(#N)CC[Si](OCC)(OCC)OCC,pan12
Cyclohexylmethyldimethoxysilane,343,1,C1(CCCCC1)C[SiH](OC)OC,pan12
3-Glycidoxypropyltrimethoxysilane,383,1,C(C1CO1)OCCC[Si](OC)(OC)OC,pan12
Di-t-butylmethylchlorosilane,342,1,C(C)(C)(C)[Si](Cl)(C)C(C)(C)C,pan12
Hexyltrimethoxysilane,335,1,C(CCCCC)[Si](OC)(OC)OC,pan12
Triisopropylsilane,310,1,C(C)(C)[SiH](C(C)C)C(C)C,pan12
Tri-n-propylsilane,316,1,C(CC)[SiH](CCC)CCC,pan12
(Diisopropylamino)trimethylsilane,301,1,C(C)(C)N(C(C)C)[Si](C)(C)C,pan12
1-Chlorononamethyltetrasiloxane,347,1,Cl[Si](O[Si](O[Si](O[Si](C)(C)C)(C)C)(C)C)(C)C,pan12
Propyltris(dimethylsiloxy)silane,323,1,C(CC)[Si](O[SiH](C)C)(O[SiH](C)C)O[SiH](C)C,pan12
Benzyltrimethylsilane,335,1,C(C1=CC=CC=C1)[Si](C)(C)C,pan12
3-Methacryloxypropyltrimethoxysilane,365,1,C(C(=C)C)(=O)OCCC[Si](OC)(OC)OC,pan12
n-Octyldimethylchlorosilane,370,1,C(CCCCCCC)[Si](Cl)(C)C,pan12
Bis(diethylamino)dimethylsilane,308,1,C(C)N(CC)[Si](C)(C)N(CC)CC,pan12
Decamethyltetrasiloxane,335,1,C[Si](O[Si](O[Si](O[Si](C)(C)C)(C)C)(C)C)(C)C,pan12
Decamethylcyclopentasiloxane,350,1,C[Si]1(O[Si](O[Si](O[Si](O[Si](O1)(C)C)(C)C)(C)C)(C)C)C,pan12
"2-(3,4-epoxycyclohexyl)ethyltrimethoxysilane",419,1,C1(CC2C(CC1)O2)CC[Si](OC)(OC)OC,pan12
n-Decylmethyldichlorosilane,393,1,C(CCCCCCCCC)[Si](Cl)(Cl)C,pan12
Vinyltriethylsilane,318,1,C(=C)[Si](CC)(CC)CC,pan12
Phenyltriethoxysilane,393,1,C1(=CC=CC=C1)[Si](OCC)(OCC)OCC,pan12
Diphenylsilane,371,1,C1(=CC=CC=C1)[SiH2]C1=CC=CC=C1,pan12
Tetramethyltetravinylcyclotetrasilane,385,1,C[Si]1([Si]([Si]([Si]1(C=C)C)(C=C)C)(C=C)C)C=C,pan12
n-Dodecyltrichlorosilane,435,1,C(CCCCCCCCCCC)[Si](Cl)(Cl)Cl,pan12
Hexaethyldisiloxane,349,1,C(C)[Si](O[Si](CC)(CC)CC)(CC)CC,pan12
Dodecamethylpentasiloxane,352,1,C[Si](O[Si](O[Si](O[Si](O[Si](C)(C)C)(C)C)(C)C)(C)C)(C)C,pan12
Dodecamethylcyclohexasiloxane,366,1,C[Si]1(O[Si](O[Si](O[Si](O[Si](O[Si](O1)(C)C)(C)C)(C)C)(C)C)(C)C)C,pan12
Methyldiphenylchlorosilane,411,1,C[Si](Cl)(C1=CC=CC=C1)C1=CC=CC=C1,pan12
n-Dodecylmethyldichlorosilane,416,1,C(CCCCCCCCCCC)[Si](Cl)(Cl)C,pan12
Diphenyldimethoxysilane,394,1,C1(=CC=CC=C1)[Si](OC)(OC)C1=CC=CC=C1,pan12
Octyltriethoxysilane,373,1,C(CCCCCCC)[Si](OCC)(OCC)OCC,pan12
Tetradecamethylhexasiloxane,375,1,C[Si](O[Si](O[Si](O[Si](O[Si](O[Si](C)(C)C)(C)C)(C)C)(C)C)(C)C)(C)C,pan12
n-Octadecyltrichlorosilane,466,1,C(CCCCCCCCCCCCCCCCC)[Si](Cl)(Cl)Cl,pan12
Octadecamethyloctasiloxane,417,1,C[Si](O[Si](O[Si](O[Si](O[Si](O[Si](O[Si](O[Si](C)(C)C)(C)C)(C)C)(C)C)(C)C)(C)C)(C)C)(C)C,pan12
Vinyltrichlorosilane,294,1,C(=C)[Si](Cl)(Cl)Cl,pan12
Ethylsilane,213,1,C(C)[SiH3],pan12
n-Propyltrichlorosilane,310,1,C(CC)[Si](Cl)(Cl)Cl,pan12
Trimethylfluorosilane,238,1,C[Si](F)(C)C,pan12
Dimethylvinylchlorosilane,268,1,CC(=C[SiH2]Cl)C,pan12
Trimethylsilylisothiocyanate,308,1,C[Si](C)(C)N=C=S,pan12
Methoxytrimethylsilane,243,1,CO[Si](C)(C)C,pan12
Diethylsilane,253,1,C(C)[SiH2]CC,pan12
Tetraisocyanatosilane,323,1,N(=C=O)[Si](N=C=O)(N=C=O)N=C=O,pan12
sec-Amyltrichlorosilane,303,1,C(C)(CCC)[Si](Cl)(Cl)Cl,pan12
Vinyltrimethoxysilane,296,1,C(=C)[Si](OC)(OC)OC,pan12
Ethoxytrimethylsilane,246,1,C(C)O[Si](C)(C)C,pan12
Phenyltrichlorosilane,364,1,C1(=CC=CC=C1)[Si](Cl)(Cl)Cl,pan12
Cyclohexyltrichlorosilane,358,1,C1(CCCCC1)[Si](Cl)(Cl)Cl,pan12
1-Trimethylsilylpropyne,270,1,C[Si](C#CC)(C)C,pan12
Hexyldichlorosilane,337,1,C(CCCCC)[SiH](Cl)Cl,pan12
Allyltrimethoxysilane,319,1,C(C=C)[Si](OC)(OC)OC,pan12
3-Chloropropylmethyldimethoxysilane,318,1,ClCCC[Si](OC)(OC)C,pan12
n-Propyltrimethoxysilane,298,1,C(CC)[Si](OC)(OC)OC,pan12
Hexamethyldisiloxane,270,1,C[Si](O[Si](C)(C)C)(C)C,pan12
Hexamethyldisilazane,281,1,C[Si](N[Si](C)(C)C)(C)C,pan12
Methyltriacetoxysilane,358,1,C[Si](OC(C)=O)(OC(C)=O)OC(C)=O,pan12
n-Heptyltrichlorosilane,337,1,C(CCCCCC)[Si](Cl)(Cl)Cl,pan12
(1-Methoxy-2-propoxy)trimethylsilane,293,1,COCC(C)O[Si](C)(C)C,pan12
Heptamethyldisilazane,300,1,C[Si](N([Si](C)(C)C)C)(C)C,pan12
Vinyltriacetoxysilane,361,1,C(=C)[Si](OC(C)=O)(OC(C)=O)OC(C)=O,pan12
(Cyclopentenyloxy)trimethylsilane,311,1,C1(=CCCC1)O[Si](C)(C)C,pan12
Tetramethyldivinyldisiloxane,292,1,C[Si](O[Si](C=C)(C=C)C)(C)C,pan12
Diethyldiethoxysilane,316,1,C(C)[Si](OCC)(OCC)CC,pan12
Tetramethyldiethoxysiloxane,311,1,CC(C(O[Si]([O])OCC)(C)C)C,pan12
Tri-n-propylchlorosilane,349,1,C(CC)[Si](Cl)(CCC)CCC,pan12
Tris(trimethylsiloxy)boron,315,1,C[Si](OB(O[Si](C)(C)C)O[Si](C)(C)C)(C)C,pan12
1-Heptynyltrimethylsilane,315,1,C(#CCCCCC)[Si](C)(C)C,pan12
Tristrimethylsiloxymethylsilane,336,1,C[Si](OC(O[Si](C)(C)C)(O[Si](C)(C)C)[SiH3])(C)C,pan12
Diphenyldichlorosilane,415,1,C1(=CC=CC=C1)[Si](Cl)(Cl)C1=CC=CC=C1,pan12
Tetra-n-propoxysilane,368,1,C(CC)O[Si](OCCC)(OCCC)OCCC,pan12
Diphenylmethylsilane,393,1,C1(=CC=CC=C1)C(C1=CC=CC=C1)[SiH3],pan12
Hexadecamethylheptasiloxane,406,1,C[Si](O[Si](O[Si](O[Si](O[Si](O[Si](O[Si](C)(C)C)(C)C)(C)C)(C)C)(C)C)(C)C)(C)C,pan12
Ethyl silicate,325.15,1,CCO[Si]([O-])([O-])[O-],hazardous materials
diethylsilicon,244.25,1,CC[Si]CC,le15
chloro(dimethyl)silicon,245.15,1,C[Si](C)Cl,le15
trimethyl(prop-2-enyl)silane,280.35,1,C=CC[Si](C)(C)C,le15
"Silane, dichloromethyl-",240.95,1,[SiH3]C(Cl)Cl,le15
"Silane, azidotrimethyl-",279.15,1,C[Si](C)(C)N=[N+]=[N-],le15
N-methyl-N-trimethylsilylmethanamine,254.15,1,CN(C)[Si](C)(C)C,le15
ethoxy(trimethyl)silane,255.15,1,CCO[Si](C)(C)C,le15
[(E)-2-chloroethenyl]-dimethylsilicon,269.15,1,C[Si](C)/C=C/Cl,le15
"Silane, trimethoxy-",268.75,1,CO[SiH](OC)OC,le15
methyl(phenyl)silicon,311.65,1,C[Si]c1ccccc1,le15
Butyltrimethylsilane,281.65,1,CCCC[Si](C)(C)C,le15
"Acetic acid, (trimethylsilyl)-",334.65,1,C[Si](C)(C)CC(=O)O,le15
triethyl(hydroxy)silane,330.372,1,CC[Si](O)(CC)CC,le15
3-trimethylsilylpropan-1-ol,325.95,1,C[Si](C)(C)CCCO,le15
triethyl(fluoro)silane,292.15,1,CC[Si](F)(CC)CC,le15
chloro-dimethyl-prop-2-enylsilane,278.75,1,C=CC[Si](C)(C)Cl,le15
"Silane, methyltrimethoxy-",284.25,1,CO[Si](C)(OC)OC,le15
dimethyl(phenyl)silicon,308.15,1,C[Si](C)c1ccccc1,le15
tetrakis(ethenyl)silane,279.25,1,C=C[Si](C=C)(C=C)C=C,le15
"Silane, dichloroethenylmethyl-",277.55,1,C[SiH2]C=C(Cl)Cl,le15
chloro(phenyl)silicon,327.05,1,Cl[Si]c1ccccc1,le15
chloro-(chloromethyl)-dimethylsilane,295.15,1,C[Si](C)(Cl)CCl,le15
tetraethylsilane,299.25,1,CC[Si](CC)(CC)CC,le15
"Propionic acid, 3-(trimethylsilyl)- (8CI)",362.15,1,C[Si](C)(C)CCC(=O)O,le15
ethyl(trimethoxy)silane,297.35,1,CC[Si](OC)(OC)OC,le15
trimethyl(phenyl)silane,317.15,1,C[Si](C)(C)c1ccccc1,le15
butyl-chloro-dimethylsilane,303.25,1,CCCC[Si](C)(C)Cl,le15
3-chloropropyl(trimethyl)silane,303.65,1,C[Si](C)(C)CCCCl,le15
tetramethyl silicate,302.05,1,CO[Si](OC)(OC)OC,le15
ethenyl-diethoxy-methylsilane,290.95,1,C=C[Si](C)(OCC)OCC,le15
"Silanamine, 1,1,1-trimethyl-N-(trimethylsilyl)-",303.15,1,C[Si](C)(C)N[Si](C)(C)C,le15
"Silane, trichlorovinyl- (8CI)",283.75,1,[SiH3]C(Cl)=C(Cl)Cl,le15
"Silane, phenyltrifluoro-",288.35,1,F[Si](F)(F)c1ccccc1,le15
"Disiloxane, 1,1,1,3,3,3-hexamethyl-",280.85,1,C[Si](C)(C)O[Si](C)(C)C,le15
dichloro-(chloromethyl)-methylsilane,308.15,1,C[Si](Cl)(Cl)CCl,le15
trimethyl(phenoxy)silane,315.906,1,C[Si](C)(C)Oc1ccccc1,le15
trimethyl(2-trimethylsilylethynyl)silane,290.25,1,C[Si](C)(C)C#C[Si](C)(C)C,le15
diethoxy-methyl-prop-2-enylsilane,315.65,1,C=CC[Si](C)(OCC)OCC,le15
[acetyloxy(dimethyl)silyl] acetate,317.85,1,CC(=O)O[Si](C)(C)OC(C)=O,le15
"Silane, dimethylethoxyphenyl-",346.25,1,CCO[Si](C)(C)c1ccccc1,le15
"Butanenitrile, 4-(dichloromethylsilyl)-",365.15,1,N#CCCC[SiH2]C(Cl)Cl,le15
"Silane, dimethoxymethylphenyl-",353.15,1,COC(OC)[SiH2]c1ccccc1,le15
"Ethanethiol, 2-(trimethoxysilyl)-",344.95,1,CO[Si](CCS)(OC)OC,le15
trichloro(chloromethyl)silane,342.55,1,ClC[Si](Cl)(Cl)Cl,le15
chloromethyl-dimethyl-phenylsilane,364.25,1,C[Si](C)(CCl)c1ccccc1,le15
"Silanamine, 1-ethenyl-N-(ethenyldimethylsilyl)-1,1-dimethyl-",325.25,1,C=C[Si](C)(C)N[Si](C)(C)C=C,le15
"Disiloxane, 1,3-diethenyl-1,1,3,3-tetramethyl-",297.15,1,C=C[Si](C)(C)O[Si](C)(C)C=C,le15
bromomethyl-chloro-dimethylsilane,314.25,1,C[Si](C)(Cl)CBr,le15
"Propanenitrile, 3-(trichlorosilyl)-",358.35,1,N#CCC[Si](Cl)(Cl)Cl,le15
"1-Propanamine, 3-(diethoxymethylsilyl)-",348.75,1,CCOC(OCC)[SiH2]CCCN,le15
trichloro(2-methylpropyl)silane,321.25,1,CC(C)C[Si](Cl)(Cl)Cl,le15
"Silane, pentyltrimethoxy-",325.35,1,CCCCC[Si](OC)(OC)OC,le15
"1-Propanethiol, 3-(trimethoxysilyl)-",322.05,1,CO[Si](CCCS)(OC)OC,le15
chloro(triethoxy)silane,313.25,1,CCO[Si](Cl)(OCC)OCC,le15
"Silane, (3-cyanopropyl)diethoxy(methyl)-",377.25,1,CCO[Si](C)(CCCC#N)OCC,le15
"Butanenitrile, 4-(trichlorosilyl)-",365.25,1,N#CCCC[Si](Cl)(Cl)Cl,le15
chloro-[chloro(dimethyl)silyl]oxy-dimethylsilane,306.15,1,C[Si](C)(Cl)O[Si](C)(C)Cl,le15
"Silanetetramine, octamethyl-",348.45,1,CN(C)[Si](N(C)C)(N(C)C)N(C)C,le15
"1-Butanamine, 4-(diethoxymethylsilyl)-",366.55,1,CCOC(OCC)[SiH2]CCCCN,le15
"Silane, pentyltrichloro-",340.25,1,CCCCC[Si](Cl)(Cl)Cl,le15
trichloro(3-chloropropyl)silane,342.55,1,ClCCC[Si](Cl)(Cl)Cl,le15
"Propionitrile, 3-(triethoxysilyl)- (8CI)",378.45,1,CCO[Si](CCC#N)(OCC)OCC,le15
trichloro(dichloromethyl)silane,353.05,1,ClC(Cl)[Si](Cl)(Cl)Cl,le15
"Cyclotrisilazane, 2,2,4,4,6,6-hexamethyl-",332.15,1,C[Si]1(C)N[Si](C)(C)N[Si](C)(C)N1,le15
trichloro(hexyl)silane,353.45,1,CCCCCC[Si](Cl)(Cl)Cl,le15
"Propylamine, 3-(triethoxysilyl)- (8CI)",377.55,1,CCO[Si](CCCN)(OCC)OCC,le15
"1,2-Ethanediamine, N-(3-(trimethoxysilyl)propyl)-",381.25,1,CO[Si](CCCNCCN)(OC)OC,le15
"Butanenitrile, 4-(triethoxysilyl)-",388.85,1,CCO[Si](CCCC#N)(OCC)OCC,le15
ethenyl-tri(propan-2-yloxy)silane,359.75,1,C=C[Si](OC(C)C)(OC(C)C)OC(C)C,le15
"2-Propenoic acid, 3-(trimethoxysilyl)propyl ester",355.45,1,C=CC(=O)OCCC[Si](OC)(OC)OC,le15
"Silane, pentyltriethoxy-",351.05,1,CCCCC[Si](OCC)(OCC)OCC,le15
"Butylamine, 4-(triethoxysilyl)-",378.25,1,CCO[Si](CCCCN)(OCC)OCC,le15
"Silane, trimethoxy(3-(oxiranylmethoxy)propyl)-",355.05,1,CO[Si](CCCOCC1CO1)(OC)OC,le15
"Trisiloxane, 1,1,1,3,3,5,5,5-octamethyl-",302.15,1,C[Si](C)(C)O[Si](C)(C)O[Si](C)(C)C,le15
"Silane, trichloro(2-phenylethyl)-",390.95,1,Cl[Si](Cl)(Cl)CCc1ccccc1,le15
"Silane, trimethoxy(2-(7-oxabicyclo(4.1.0)hept-3-yl)ethyl)-",362.85,1,CO[Si](CCC1CCC2OC2C1)(OC)OC,le15
triethyl(triethylsilyloxy)silane,350.15,1,CC[Si](CC)(CC)O[Si](CC)(CC)CC,le15
"2-Propenoic acid, 2-methyl-, 3-(trimethoxysilyl)propyl ester",365.15,1,C=C(C)C(=O)OCCC[Si](OC)(OC)OC,le15
"2,8,9-Trioxa-5-aza-1-silabicyclo(3.3.3)undecane, 1-phenyl-",398.75,1,c1ccc([Si]23OCCN(CCO2)CCO3)cc1,le15
3-trichlorosilylpropyl 2-methylprop-2-enoate,391.45,1,C=C(C)C(=O)OCCC[Si](Cl)(Cl)Cl,le15
"Silane, tris(1,1-dimethylethoxy)ethenyl- (9CI)",388.05,1,CC(C)(C)OC([SiH3])=C(OC(C)(C)C)OC(C)(C)C,le15
"Silane, hydroxytriphenyl-",461.95,1,O[Si](c1ccccc1)(c1ccccc1)c1ccccc1,le15
"Silane, triethoxyoctyl-",374.45,1,CCOC(CCCCCCC[SiH3])(OCC)OCC,le15
bis[[chloro(dimethyl)silyl]oxy]-dimethylsilane,326.45,1,C[Si](C)(Cl)O[Si](C)(C)O[Si](C)(C)Cl,le15
"6-Ethenyl-6-(methoxyethoxy)-2,5,7,10-tetraoxa-6-silaundecane (9CI)",377.95,1,C=C[Si](OCCOC)(OCCOC)OCCOC,le15
"Cyclotetrasilazane, 2,2,4,4,6,6,8,8-octamethyl-",339.15,1,C[Si]1(C)N[Si](C)(C)N[Si](C)(C)N[Si](C)(C)N1,le15
"Cyclotetrasiloxane, octamethyl-",336.35,1,C[Si]1(C)O[Si](C)(C)O[Si](C)(C)O[Si](C)(C)O1,le15
ethoxy(triphenyl)silane,436.65,1,CCO[Si](c1ccccc1)(c1ccccc1)c1ccccc1,le15
[dimethyl(trimethylsilyloxy)silyl]oxy-dimethyl-trimethylsilyloxysilane,361.25,1,C[Si](C)(C)O[Si](C)(C)O[Si](C)(C)O[Si](C)(C)C,le15
"Cyclotetrasiloxane, 2,4,6,8-tetraethenyl-2,4,6,8-tetramethyl-",367.45,1,C=C[Si]1(C)O[Si](C)(C=C)O[Si](C)(C=C)O[Si](C)(C=C)O1,le15
"Cyclopentasiloxane, decamethyl-",368.75,1,C[Si]1(C)O[Si](C)(C)O[Si](C)(C)O[Si](C)(C)O[Si](C)(C)O1,le15
bis[[dimethyl(trimethylsilyloxy)silyl]oxy]-dimethylsilane,390.55,1,C[Si](C)(C)O[Si](C)(C)O[Si](C)(C)O[Si](C)(C)O[Si](C)(C)C,le15
"Cyclohexasiloxane, dodecamethyl-",397.55,1,C[Si]1(C)O[Si](C)(C)O[Si](C)(C)O[Si](C)(C)O[Si](C)(C)O[Si](C)(C)O1,le15
"Cyclotrisiloxane, 2,4,6-trimethyl-2,4,6-tris(3,3,3-trifluoropropyl)-",380.25,1,C[Si]1(CCC(F)(F)F)O[Si](C)(CCC(F)(F)F)O[Si](C)(CCC(F)(F)F)O1,le15
"Cyclotetrasiloxane, octaphenyl-",473.15,1,c1ccc([Si]2(c3ccccc3)O[Si](c3ccccc3)(c3ccccc3)O[Si](c3ccccc3)(c3ccccc3)O[Si](c3ccccc3)(c3ccccc3)O2)cc1,le15
Methyltrichlorosilane,276.15,1,C[Si](Cl)(Cl)Cl,didier12
Vinyltrichlorosilane,294.15,1,C=C[Si](Cl)(Cl)Cl,didier12
Dichloromethylmethyldichlorosilane,301.15,1,C[Si](Cl)(Cl)C(Cl)Cl,didier12
Ethyltrichlorosilane,263.15,1,CC[Si](Cl)(Cl)Cl,didier12
Dimethylchlorosilane,245.15,1,C[SiH](C)Cl,didier12
Ethylsilane,213.15,1,CC[SiH3],didier12
"1,1,1-Trifluoropropyltrichlorosilane",288.15,1,CC(C(F)(F)F)[Si](Cl)(Cl)Cl,didier12
Allyltrichlorosilane,304.15,1,C=CC[Si](Cl)(Cl)Cl,didier12
Methylvinyldichlorosilane,272.15,1,CC=C[SiH](Cl)Cl,didier12
3-Chloropropyltrichlorosilane,357.15,1,ClCCC[Si](Cl)(Cl)Cl,didier12
n-Propyltrichlorosilane,310.15,1,CCC[Si](Cl)(Cl)Cl,didier12
Chloromethyldimethylchlorosilane,295.15,1,C[Si](C)(Cl)CCl,didier12
Trimethylbromosilane,270.15,1,C[Si](C)(C)Br,didier12
Trimethylchlorosilane,255.15,1,C[Si](C)(C)Cl,didier12
Trimethylfluorosilane,238.15,1,C[Si](C)(C)F,didier12
Trimethoxysilane,264.15,1,CO[SiH](OC)OC,didier12
Cyanoethylmethyldichlorosilane,333.15,1,C[Si](Cl)(Cl)CCC#N,didier12
Allylmethyldichlorosilane,300.15,1,C=CCC[SiH](Cl)Cl,didier12
3-Chloropropylmethyldichlorosilane,359.15,1,C[Si](Cl)(Cl)CCCCl,didier12
t-Butyltrichlorosilane,294.15,1,CC(C)(C)[Si](Cl)(Cl)Cl,didier12
Isobutyltrichlorosilane,310.15,1,CC(C)C[Si](Cl)(Cl)Cl,didier12
n-Butyltrichlorosilane,327.15,1,CCCC[Si](Cl)(Cl)Cl,didier12
Trimethylsilylisothiocyanate,308.15,1,C[Si](C)(C)N=C=S,didier12
n-Propylmethyldichlorosilane,300.15,1,CCC[Si](C)(Cl)Cl,didier12
Bromomethyltrimethylsilane,289.15,1,C[Si](C)(C)CBr,didier12
Ethyldimethylchlorosilane,269.15,1,CC[Si](C)(C)Cl,didier12
Methoxytrimethylsilane,243.15,1,CO[Si](C)(C)C,didier12
Dimethyldimethoxysilane,265.15,1,CO[Si](C)(C)OC,didier12
Methyltrimethoxysilane,284.15,1,CO[Si](C)(OC)OC,didier12
Tetramethoxysilane,294.15,1,CO[Si](OC)(OC)OC,didier12
Tetramethylsilane,245.15,1,C[Si](C)(C)C,didier12
Diethylsilane,253.15,1,CC[SiH2]CC,didier12
"(N,N-Dimethylamino)dimethylsilane",260.15,1,CN(C)[SiH](C)C,didier12
Tetraisocyanatosilane,323.15,1,O=C=N[Si](N=C=O)(N=C=O)N=C=O,didier12
Cyclopentyltrichlorosilane,350.15,1,Cl[Si](Cl)(Cl)C1CCCC1,didier12
Trimethylsilyltrifluoroacetate,273.15,1,C[Si](C)(C)OC(=O)C(F)(F)F,didier12
Cyclopentyldichlorosilane,316.15,1,Cl[SiH](Cl)C1CCCC1,didier12
3-Chloro-2-methylpropylmethyldichlorosilane,363.15,1,CC(CCl)C[Si](C)(Cl)Cl,didier12
Methylvinyldimethoxysilane,277.15,1,CC=C[SiH](OC)OC,didier12
Vinyltrimethoxysilane,296.15,1,C=C[Si](OC)(OC)OC,didier12
Trimethylvinylsilane,239.15,1,CC(C)=C(C)[SiH3],didier12
Diethylmethylchlorosilane,288.15,1,CC[Si](C)(Cl)CC,didier12
Chloromethyldimethylethoxysilane,299.15,1,CCO[Si](C)(C)CCl,didier12
Ethoxytrimethylsilane,246.15,1,CCO[Si](C)(C)C,didier12
Ethyltrimethoxysilane,300.15,1,CC[Si](OC)(OC)OC,didier12
"(N,N-Dimethylamino)trimethylsilane",254.15,1,CN(C)[Si](C)(C)C,didier12
Pentamethyldisiloxane,254.15,1,C[SiH](C)O[Si](C)(C)C,didier12
Phenyldichlorosilane,333.15,1,Cl[SiH](Cl)c1ccccc1,didier12
Phenylsilane,281.15,1,[SiH3]c1ccccc1,didier12
1-Hexenyltrichlorosilane,333.15,1,CCCCC=C[Si](Cl)(Cl)Cl,didier12
Cyclohexyltrichlorosilane,358.15,1,Cl[Si](Cl)(Cl)C1CCCCC1,didier12
Bis(chloromethyl)tetramethyldisiloxane,346.15,1,C[Si](C)(C)O[Si](C)(CCl)CCl,didier12
Propargyloxytrimethylsilane,300.15,1,C#CCO[Si](C)(C)C,didier12
Divinyldimethylsilane,281.15,1,C=C[Si](C)(C)C=C,didier12
n-Hexyltrichlorosilane,358.15,1,CCCCCC[Si](Cl)(Cl)Cl,didier12
Hexyldichlorosilane,337.15,1,CCCCCC[SiH](Cl)Cl,didier12