,compound,flashpoint,pure substance,smiles,source
0,Trichlorosilane,245.0,1,Cl[SiH](Cl)Cl,pan12
1,Dichlorosilane,236.0,1,Cl[SiH2]Cl,pan12
2,Methyltrichlorosilane,276.0,1,C[Si](Cl)(Cl)Cl,pan12
3,Methyldichlorosilane,241.0,1,C[SiH](Cl)Cl,pan12
4,Dichloromethylmethyldichlorosilane,301.0,1,ClC(Cl)[Si](Cl)(Cl)C,pan12
5,Ethyltrichlorosilane,295.0,1,C(C)[Si](Cl)(Cl)Cl,pan12
6,Dimethyldichlorosilane,257.0,1,C[Si](Cl)(Cl)C,pan12
7,Dimethylchlorosilane,245.0,1,C[SiH](Cl)C,pan12
8,"1,1,1-Trifluoropropyltrichlorosilane",288.0,1,FC(C(C)[Si](Cl)(Cl)Cl)(F)F,pan12
9,Allyltrichlorosilane,304.0,1,C(C=C)[Si](Cl)(Cl)Cl,pan12
10,Methylvinyldichlorosilane,272.0,1,CC=C[SiH](Cl)Cl,pan12
11,3-Chloropropyltrichlorosilane,357.0,1,ClCCC[Si](Cl)(Cl)Cl,pan12
12,Bromomethyldimethylchlorosilane,314.0,1,BrC[Si](Cl)(C)C,pan12
13,Chloromethyldimethylchlorosilane,295.0,1,ClC[Si](Cl)(C)C,pan12
14,Trimethylbromosilane,270.0,1,C[Si](Br)(C)C,pan12
15,Trimethylchlorosilane,255.0,1,C[Si](Cl)(C)C,pan12
16,Trimethoxysilane,264.0,1,CO[SiH](OC)OC,pan12
17,Trimethylsilane,204.0,1,C[SiH](C)C,pan12
18,Cyanoethylmethyldichlorosilane,333.0,1,C(#N)CC[Si](Cl)(Cl)C,pan12
19,Allylmethyldichlorosilane,300.0,1,C(C=C)C[SiH](Cl)Cl,pan12
20,3-Chloropropylmethyldichlorosilane,359.0,1,ClCCC[Si](Cl)(Cl)C,pan12
21,t-Butyltrichlorosilane,294.0,1,C(C)(C)(C)[Si](Cl)(Cl)Cl,pan12
22,Isobutyltrichlorosilane,310.0,1,C(C(C)C)[Si](Cl)(Cl)Cl,pan12
23,n-Butyltrichlorosilane,327.0,1,C(CCC)[Si](Cl)(Cl)Cl,pan12
24,n-Propylmethyldichlorosilane,300.0,1,C(CC)[Si](Cl)(Cl)C,pan12
25,Bromomethyltrimethylsilane,289.0,1,BrC[Si](C)(C)C,pan12
26,Ethyldimethylchlorosilane,269.0,1,C(C)[Si](Cl)(C)C,pan12
27,"1,3-Dichlorotetramethyldisiloxane",288.0,1,Cl[Si](O[Si](Cl)(C)C)(C)C,pan12
28,Dimethyldimethoxysilane,265.0,1,C[Si](OC)(OC)C,pan12
29,Methyltrimethoxysilane,284.0,1,C[Si](OC)(OC)OC,pan12
30,Tetramethoxysilane,294.0,1,CO[Si](OC)(OC)OC,pan12
31,Tetramethylsilane,245.0,1,C[Si](C)(C)C,pan12
32,"(N,N-Dimethylamino)dimethylsilane",260.0,1,CN(C)[SiH](C)C,pan12
33,"1,1,3,3-Tetramethyldisiloxane",251.0,1,C[SiH](O[SiH](C)C)C,pan12
34,Tetramethyldisilazane,284.0,1,CN([Si](C)(C)C)[SiH3],pan12
35,Cyclopentyltrichlorosilane,350.0,1,C1(CCCC1)[Si](Cl)(Cl)Cl,pan12
36,Trimethylsilyltrifluoroacetate,273.0,1,C[Si](C)(C)OC(C(F)(F)F)=O,pan12
37,Cyclopentyldichlorosilane,316.0,1,C1(CCCC1)[SiH](Cl)Cl,pan12
38,Allyldimethylchlorosilane,278.0,1,C(C=C)[Si](Cl)(C)C,pan12
39,3-Chloro-2-methylpropylmethyldichlorosilane,363.0,1,ClCC(C[Si](Cl)(Cl)C)C,pan12
40,n-Butylmethyldichlorosilane,303.0,1,C(CCC)[Si](Cl)(Cl)C,pan12
41,Methylvinyldimethoxysilane,277.0,1,CC=C[SiH](OC)OC,pan12
42,Trimethylvinylsilane,239.0,1,CC(=C(C)C)[SiH3],pan12
43,Diethylmethylchlorosilane,288.0,1,C(C)[Si](Cl)(C)CC,pan12
44,Chloromethyldimethylethoxysilane,299.0,1,ClC[Si](OCC)(C)C,pan12
45,Ethyltrimethoxysilane,300.0,1,C(C)[Si](OC)(OC)OC,pan12
46,"(N,N-Dimethylamino)trimethylsilane",254.0,1,CN(C)[Si](C)(C)C,pan12
47,Bis(dimethylamino)methylsilane,270.0,1,CN(C)C(N(C)C)[SiH3],pan12
48,Pentamethyldisiloxane,254.0,1,C[SiH](O[Si](C)(C)C)C,pan12
49,Phenyldichlorosilane,333.0,1,C1(=CC=CC=C1)[SiH](Cl)Cl,pan12
50,Phenylsilane,281.0,1,C1(=CC=CC=C1)[SiH3],pan12
51,1-Hexenyltrichlorosilane,333.0,1,C(=CCCCC)[Si](Cl)(Cl)Cl,pan12
52,Bis(chloromethyl)tetramethyldisiloxane,346.0,1,ClC[Si](O[Si](C)(C)C)(C)CCl,pan12
53,N-Methyl-N-trimethylsilyltrifluoroacetamide,298.0,1,CN(C(C(F)(F)F)=O)[Si](C)(C)C,pan12
54,Propargyloxytrimethylsilane,300.0,1,C(C#C)O[Si](C)(C)C,pan12
55,Dimethyldiacetoxysilane,310.0,1,C[Si](OC(C)=O)(OC(C)=O)C,pan12
56,Divinyldimethylsilane,281.0,1,C(=C)[Si](C)(C)C=C,pan12
57,n-Hexyltrichlorosilane,358.0,1,C(CCCCC)[Si](Cl)(Cl)Cl,pan12
58,Vinyldimethylethoxysilane,277.0,1,C(=C)[Si](OCC)(C)C,pan12
59,"1,1-Dimethyl-1-sila-2-oxacyclohexane",287.0,1,C[Si]1(OCCCC1)C,pan12
60,Allyloxytrimethylsilane,273.0,1,C(C=C)O[Si](C)(C)C,pan12
61,Acetoxymethyltrimethylsilane,293.0,1,C(C)(=O)OC[Si](C)(C)C,pan12
62,Allyltrimethylsilane,280.0,1,C(C=C)[Si](C)(C)C,pan12
63,Triethylchlorosilane,303.0,1,C(C)[Si](Cl)(CC)CC,pan12
64,t-Butyldimethylchlorosilane,295.0,1,C(C)(C)(C)[Si](Cl)(C)C,pan12
65,3-Chloropropyltrimethoxysilane,348.0,1,ClCCC[Si](OC)(OC)OC,pan12
66,Trimethyl-n-propoxysilane,283.0,1,C[Si](OCCC)(C)C,pan12
67,t-Butyldimethylsilanol,318.0,1,C(C)(C)(C)[Si](O)(C)C,pan12
68,Dimethyldiethoxysilane,284.0,1,C[Si](OCC)(OCC)C,pan12
69,Triethylsilane,270.0,1,C(C)[SiH](CC)CC,pan12
70,Hexylsilane,285.0,1,C(CCCCC)[SiH3],pan12
71,t-Butyldimethylsilane,251.0,1,C(C)(C)(C)[SiH](C)C,pan12
72,Bis(dimethylamino)dimethylsilane,266.0,1,CN(C)[Si](C)(C)N(C)C,pan12
73,Hexamethylcyclotrisiloxane,305.0,1,C[Si]1(O[Si](O[Si](O1)(C)C)(C)C)C,pan12
74,Hexamethyldisilthiane,299.0,1,C[Si](S[Si](C)(C)C)(C)C,pan12
75,Hexamethyldisilane,272.0,1,C[Si]([Si](C)(C)C)(C)C,pan12
76,Tris(dimethylamino)silane,298.0,1,CN(C)[SiH](N(C)C)N(C)C,pan12
77,Hexamethyltrisiloxane,293.0,1,C[Si](O[SiH2]O[Si](C)(C)C)(C)C,pan12
78,Phenylmethyldichlorosilane,355.0,1,C1(=CC=CC=C1)C[SiH](Cl)Cl,pan12
79,Phenylmethylchlorosilane,355.0,1,C1(=CC=CC=C1)C[SiH2]Cl,pan12
80,Trivinylmethylsilane,288.0,1,C(=C)C(C=C)(C=C)[SiH3],pan12
81,Cyclohexylmethyldichlorosilane,355.0,1,C1(CCCCC1)C[SiH](Cl)Cl,pan12
82,"1-(Trimethylsiloxy)-1,3-butadiene",298.0,1,C[Si](OC=CC=C)(C)C,pan12
83,2-Chloromethyl-3-trimethylsilyl-1-propene,316.0,1,ClCC(=C)C[Si](C)(C)C,pan12
84,n-Hexylmethyldichlorosilane,358.0,1,C(CCCCC)[Si](Cl)(Cl)C,pan12
85,Vinylmethyldiethoxysilane,289.0,1,C(=C)C[SiH](OCC)OCC,pan12
86,Vinyldiethylmethylsilane,288.0,1,C(=C)[Si](C)(CC)CC,pan12
87,N-(Trimethylsilyl)morpholine,300.0,1,C[Si](N1CCOCC1)(C)C,pan12
88,Bis(trimethylsilyl)carbodiimide,315.0,1,C[Si](C)(C)N=C=N[Si](C)(C)C,pan12
89,t-Butoxytrimethylsilane,287.0,1,C(C)(C)(C)O[Si](C)(C)C,pan12
90,Vinylpentamethyldisiloxane,285.0,1,C(=C)[Si](O[Si](C)(C)C)(C)C,pan12
91,Isobutyltrimethoxysilane,315.0,1,C(C(C)C)[Si](OC)(OC)OC,pan12
92,Methyltriethoxysilane,297.0,1,C[Si](OCC)(OCC)OCC,pan12
93,(Diethylamino)trimethylsilane,283.0,1,C(C)N(CC)[Si](C)(C)C,pan12
94,Bis(trimethylsilyl)methane,285.0,1,C[Si](C)(C)C[Si](C)(C)C,pan12
95,Phenylethyldichlorosilane,365.0,1,C1(=CC=CC=C1)CC[SiH](Cl)Cl,pan12
96,Phenyldimethylchlorosilane,334.0,1,C1(=CC=CC=C1)[Si](Cl)(C)C,pan12
97,"(N,N-Dimethylamino)triethylsilane",299.0,1,CN(C)[Si](CC)(CC)CC,pan12
98,Tetravinylsilane,291.0,1,C(=C)[Si](C=C)(C=C)C=C,pan12
99,Phenyldimethylsilane,311.0,1,C1(=CC=CC=C1)[SiH](C)C,pan12
100,Ethyltriacetoxysilane,377.0,1,C(C)[Si](OC(C)=O)(OC(C)=O)OC(C)=O,pan12
101,Cyclopentadienyltrimethylsilane,302.0,1,C1(C=CC=C1)[Si](C)(C)C,pan12
102,3-(Trimethylsilyl)cyclopentene,299.0,1,C[Si](C1C=CCC1)(C)C,pan12
103,"(2,4-Pentadienyl)trimethylsilane",291.0,1,C(C=CC=C)[Si](C)(C)C,pan12
104,n-Octyltrichlorosilane,369.0,1,C(CCCCCCC)[Si](Cl)(Cl)Cl,pan12
105,n-Heptylmethyldichlorosilane,339.0,1,C(CCCCCC)[Si](Cl)(Cl)C,pan12
106,Triethylacetoxysilane,314.0,1,C(C)C(C(=O)O[SiH3])(CC)CC,pan12
107,Vinyltriethoxysilane,307.0,1,C(=C)[Si](OCC)(OCC)OCC,pan12
108,Vinyltriethylsilane,298.0,1,C(=C)[Si](CC)(CC)CC,pan12
109,"1,3-Divinyltetramethyldisilazane",307.0,1,C(=C)[Si](N[Si](C=C)(C)C)(C)C,pan12
110,Tetraethoxysilane,323.0,1,C(C)O[Si](OCC)(OCC)OCC,pan12
111,Tetraethylsilane,299.0,1,C(C)[Si](CC)(CC)CC,pan12
112,n-Octylsilane,309.0,1,C(CCCCCCC)[SiH3],pan12
113,Aminoethylaminopropyltrimethoxysilane,369.0,1,NCCNCCC[Si](OC)(OC)OC,pan12
114,Octamethyltrisiloxane,303.0,1,C[Si](O[Si](O[Si](C)(C)C)(C)C)(C)C,pan12
115,Octamethylcyclotetrasiloxane,330.0,1,C[Si]1(O[Si](O[Si](O[Si](O1)(C)C)(C)C)(C)C)C,pan12
116,Octamethylcyclotetrasilazane,339.0,1,C[Si]1(N[Si](N[Si](N[Si](N1)(C)C)(C)C)(C)C)C,pan12
117,Tetrakisdimethylsiloxysilane,340.0,1,C[SiH](O[Si](O[SiH](C)C)(O[SiH](C)C)O[SiH](C)C)C,pan12
118,p-Chlorophenyltrimethylsilane,322.0,1,ClC1=CC=C(C=C1)[Si](C)(C)C,pan12
119,Methylphenyldimethoxysilane,349.0,1,C[Si](OC)(OC)C1=CC=CC=C1,pan12
120,Phenyltrimethoxysilane,358.0,1,C1(=CC=CC=C1)[Si](OC)(OC)OC,pan12
121,Trimethylphenylsilane,313.0,1,C[Si](C1=CC=CC=C1)(C)C,pan12
122,2-Cyanoethyltriethoxysilane,359.0,1,C(#N)CC[Si](OCC)(OCC)OCC,pan12
123,Cyclohexylmethyldimethoxysilane,343.0,1,C1(CCCCC1)C[SiH](OC)OC,pan12
124,3-Glycidoxypropyltrimethoxysilane,383.0,1,C(C1CO1)OCCC[Si](OC)(OC)OC,pan12
125,Di-t-butylmethylchlorosilane,342.0,1,C(C)(C)(C)[Si](Cl)(C)C(C)(C)C,pan12
126,Hexyltrimethoxysilane,335.0,1,C(CCCCC)[Si](OC)(OC)OC,pan12
127,Triisopropylsilane,310.0,1,C(C)(C)[SiH](C(C)C)C(C)C,pan12
128,Tri-n-propylsilane,316.0,1,C(CC)[SiH](CCC)CCC,pan12
129,(Diisopropylamino)trimethylsilane,301.0,1,C(C)(C)N(C(C)C)[Si](C)(C)C,pan12
130,1-Chlorononamethyltetrasiloxane,347.0,1,Cl[Si](O[Si](O[Si](O[Si](C)(C)C)(C)C)(C)C)(C)C,pan12
131,Propyltris(dimethylsiloxy)silane,323.0,1,C(CC)[Si](O[SiH](C)C)(O[SiH](C)C)O[SiH](C)C,pan12
132,Benzyltrimethylsilane,335.0,1,C(C1=CC=CC=C1)[Si](C)(C)C,pan12
133,3-Methacryloxypropyltrimethoxysilane,365.0,1,C(C(=C)C)(=O)OCCC[Si](OC)(OC)OC,pan12
134,n-Octyldimethylchlorosilane,370.0,1,C(CCCCCCC)[Si](Cl)(C)C,pan12
135,Bis(diethylamino)dimethylsilane,308.0,1,C(C)N(CC)[Si](C)(C)N(CC)CC,pan12
136,Decamethyltetrasiloxane,335.0,1,C[Si](O[Si](O[Si](O[Si](C)(C)C)(C)C)(C)C)(C)C,pan12
137,Decamethylcyclopentasiloxane,350.0,1,C[Si]1(O[Si](O[Si](O[Si](O[Si](O1)(C)C)(C)C)(C)C)(C)C)C,pan12
138,"2-(3,4-epoxycyclohexyl)ethyltrimethoxysilane",419.0,1,C1(CC2C(CC1)O2)CC[Si](OC)(OC)OC,pan12
139,n-Decylmethyldichlorosilane,393.0,1,C(CCCCCCCCC)[Si](Cl)(Cl)C,pan12
140,Vinyltriethylsilane,318.0,1,C(=C)[Si](CC)(CC)CC,pan12
141,Phenyltriethoxysilane,393.0,1,C1(=CC=CC=C1)[Si](OCC)(OCC)OCC,pan12
142,Diphenylsilane,371.0,1,C1(=CC=CC=C1)[SiH2]C1=CC=CC=C1,pan12
143,Tetramethyltetravinylcyclotetrasilane,385.0,1,C[Si]1([Si]([Si]([Si]1(C=C)C)(C=C)C)(C=C)C)C=C,pan12
144,n-Dodecyltrichlorosilane,435.0,1,C(CCCCCCCCCCC)[Si](Cl)(Cl)Cl,pan12
145,Hexaethyldisiloxane,349.0,1,C(C)[Si](O[Si](CC)(CC)CC)(CC)CC,pan12
146,Dodecamethylpentasiloxane,352.0,1,C[Si](O[Si](O[Si](O[Si](O[Si](C)(C)C)(C)C)(C)C)(C)C)(C)C,pan12
147,Dodecamethylcyclohexasiloxane,366.0,1,C[Si]1(O[Si](O[Si](O[Si](O[Si](O[Si](O1)(C)C)(C)C)(C)C)(C)C)(C)C)C,pan12
148,Methyldiphenylchlorosilane,411.0,1,C[Si](Cl)(C1=CC=CC=C1)C1=CC=CC=C1,pan12
149,n-Dodecylmethyldichlorosilane,416.0,1,C(CCCCCCCCCCC)[Si](Cl)(Cl)C,pan12
150,Diphenyldimethoxysilane,394.0,1,C1(=CC=CC=C1)[Si](OC)(OC)C1=CC=CC=C1,pan12
151,Octyltriethoxysilane,373.0,1,C(CCCCCCC)[Si](OCC)(OCC)OCC,pan12
152,Tetradecamethylhexasiloxane,375.0,1,C[Si](O[Si](O[Si](O[Si](O[Si](O[Si](C)(C)C)(C)C)(C)C)(C)C)(C)C)(C)C,pan12
153,n-Octadecyltrichlorosilane,466.0,1,C(CCCCCCCCCCCCCCCCC)[Si](Cl)(Cl)Cl,pan12
154,Octadecamethyloctasiloxane,417.0,1,C[Si](O[Si](O[Si](O[Si](O[Si](O[Si](O[Si](O[Si](C)(C)C)(C)C)(C)C)(C)C)(C)C)(C)C)(C)C)(C)C,pan12
155,Vinyltrichlorosilane,294.0,1,C(=C)[Si](Cl)(Cl)Cl,pan12
156,Ethylsilane,213.0,1,C(C)[SiH3],pan12
157,n-Propyltrichlorosilane,310.0,1,C(CC)[Si](Cl)(Cl)Cl,pan12
158,Trimethylfluorosilane,238.0,1,C[Si](F)(C)C,pan12
159,Dimethylvinylchlorosilane,268.0,1,CC(=C[SiH2]Cl)C,pan12
160,Trimethylsilylisothiocyanate,308.0,1,C[Si](C)(C)N=C=S,pan12
161,Methoxytrimethylsilane,243.0,1,CO[Si](C)(C)C,pan12
162,Diethylsilane,253.0,1,C(C)[SiH2]CC,pan12
163,Tetraisocyanatosilane,323.0,1,N(=C=O)[Si](N=C=O)(N=C=O)N=C=O,pan12
164,sec-Amyltrichlorosilane,303.0,1,C(C)(CCC)[Si](Cl)(Cl)Cl,pan12
165,Vinyltrimethoxysilane,296.0,1,C(=C)[Si](OC)(OC)OC,pan12
166,Ethoxytrimethylsilane,246.0,1,C(C)O[Si](C)(C)C,pan12
167,Phenyltrichlorosilane,364.0,1,C1(=CC=CC=C1)[Si](Cl)(Cl)Cl,pan12
168,Cyclohexyltrichlorosilane,358.0,1,C1(CCCCC1)[Si](Cl)(Cl)Cl,pan12
169,1-Trimethylsilylpropyne,270.0,1,C[Si](C#CC)(C)C,pan12
170,Hexyldichlorosilane,337.0,1,C(CCCCC)[SiH](Cl)Cl,pan12
171,Allyltrimethoxysilane,319.0,1,C(C=C)[Si](OC)(OC)OC,pan12
172,3-Chloropropylmethyldimethoxysilane,318.0,1,ClCCC[Si](OC)(OC)C,pan12
173,n-Propyltrimethoxysilane,298.0,1,C(CC)[Si](OC)(OC)OC,pan12
174,Hexamethyldisiloxane,270.0,1,C[Si](O[Si](C)(C)C)(C)C,pan12
175,Hexamethyldisilazane,281.0,1,C[Si](N[Si](C)(C)C)(C)C,pan12
176,Methyltriacetoxysilane,358.0,1,C[Si](OC(C)=O)(OC(C)=O)OC(C)=O,pan12
177,n-Heptyltrichlorosilane,337.0,1,C(CCCCCC)[Si](Cl)(Cl)Cl,pan12
178,(1-Methoxy-2-propoxy)trimethylsilane,293.0,1,COCC(C)O[Si](C)(C)C,pan12
179,Heptamethyldisilazane,300.0,1,C[Si](N([Si](C)(C)C)C)(C)C,pan12
180,Vinyltriacetoxysilane,361.0,1,C(=C)[Si](OC(C)=O)(OC(C)=O)OC(C)=O,pan12
181,(Cyclopentenyloxy)trimethylsilane,311.0,1,C1(=CCCC1)O[Si](C)(C)C,pan12
182,Tetramethyldivinyldisiloxane,292.0,1,C[Si](O[Si](C=C)(C=C)C)(C)C,pan12
183,Diethyldiethoxysilane,316.0,1,C(C)[Si](OCC)(OCC)CC,pan12
184,Tetramethyldiethoxysiloxane,311.0,1,CC(C(O[Si]([O])OCC)(C)C)C,pan12
185,Tri-n-propylchlorosilane,349.0,1,C(CC)[Si](Cl)(CCC)CCC,pan12
186,Tris(trimethylsiloxy)boron,315.0,1,C[Si](OB(O[Si](C)(C)C)O[Si](C)(C)C)(C)C,pan12
187,1-Heptynyltrimethylsilane,315.0,1,C(#CCCCCC)[Si](C)(C)C,pan12
188,Tristrimethylsiloxymethylsilane,336.0,1,C[Si](OC(O[Si](C)(C)C)(O[Si](C)(C)C)[SiH3])(C)C,pan12
189,Diphenyldichlorosilane,415.0,1,C1(=CC=CC=C1)[Si](Cl)(Cl)C1=CC=CC=C1,pan12
190,Tetra-n-propoxysilane,368.0,1,C(CC)O[Si](OCCC)(OCCC)OCCC,pan12
191,Diphenylmethylsilane,393.0,1,C1(=CC=CC=C1)C(C1=CC=CC=C1)[SiH3],pan12
192,Hexadecamethylheptasiloxane,406.0,1,C[Si](O[Si](O[Si](O[Si](O[Si](O[Si](O[Si](C)(C)C)(C)C)(C)C)(C)C)(C)C)(C)C)(C)C,pan12