compound,smiles,flashpoint,source,pure substance
dihexyl nonanedioate,CCCCCCOC(=O)CCCCCCCC(=O)OCCCCCC,477.15,pubchem,1
dibutyl decanedioate,CCCCOC(=O)CCCCCCCCC(=O)OCCCC,451.15,pubchem,1
pentanoic acid,CCCCC(=O)O,362.15,pubchem,1
1-ethenoxy-2-methylpropane,CC(C)COC=C,264.15,pubchem,1
"N',N'-dimethylpropane-1,3-diamine",CN(C)CCCN,289.15,pubchem,1
2-propan-2-yloxyethanol,CC(C)OCCO,306.15,pubchem,1
propyl acetate,CCCOC(=O)C,287.15,pubchem,1
propyl carbonochloridate,CCCOC(=O)Cl,223.14999999999998,pubchem,1
"1,3-dibromopropane",C(CBr)CBr,239.14999999999998,pubchem,1
1-bromobutane,CCCCBr,291.15,pubchem,1
pentane,CCCCC,224.14999999999998,pubchem,1
pent-1-ene,CCCC=C,222.14999999999998,pubchem,1
1-chlorobutane,CCCCCl,266.15,pubchem,1
1-bromo-3-chloropropane,C(CCl)CBr,330.15,pubchem,1
butan-1-amine,CCCCN,261.15,pubchem,1
butanenitrile,CCCC#N,290.15,pubchem,1
propanedinitrile,C(C#N)C#N,403.15,pubchem,1
butane-1-thiol,CCCCS,286.15,pubchem,1
"propane-1,3-dithiol",C(CS)CS,332.15,pubchem,1
2-(methylamino)ethanol,CNCCO,347.15,pubchem,1
2-methoxyethanol,COCCO,315.15,pubchem,1
dimethoxymethane,COCOC,255.14999999999998,pubchem,1
N-ethylethanamine,CCNCC,244.14999999999998,pubchem,1
ethyl formate,CCOC=O,253.14999999999998,pubchem,1
ethyl nitrite,CCON=O,238.14999999999998,pubchem,1
1H-pyrrole,C1=CNC=C1,312.15,pubchem,1
oxolane,C1CCOC1,259.15,pubchem,1
thiophene,C1=CSC=C1,272.15,pubchem,1
2-tert-butylperoxy-2-methylpropane,CC(C)(C)OOC(C)(C)C,291.15,pubchem,1
5-methylhexan-2-one,CC(C)CCC(=O)C,309.15,pubchem,1
"hexane-2,5-dione",CC(=O)CCC(=O)C,352.15,pubchem,1
"N,N,N',N'-tetramethylethane-1,2-diamine",CN(C)CCN(C)C,283.15,pubchem,1
2-methylpropyl acetate,CC(C)COC(=O)C,290.15,pubchem,1
acetyl ethaneperoxoate,CC(=O)OOC(=O)C,318.15,pubchem,1
N-[2-(octadecanoylamino)ethyl]octadecanamide,CCCCCCCCCCCCCCCCCC(=O)NCCNC(=O)CCCCCCCCCCCCCCCCC,553.15,pubchem,1
dihexyl hexanedioate,CCCCCCOC(=O)CCCCC(=O)OCCCCCC,436.15,pubchem,1
heptan-2-one,CCCCCC(=O)C,312.15,pubchem,1
2-methoxyethyl acetate,CC(=O)OCCOC,317.15,pubchem,1
hexane,CCCCCC,250.14999999999998,pubchem,1
"1,4-dichlorobutane",C(CCCl)CCl,313.15,pubchem,1
pentan-1-amine,CCCCCN,280.15,pubchem,1
pentanenitrile,CCCCC#N,314.15,pubchem,1
butanedinitrile,C(CC#N)C#N,405.15,pubchem,1
pentanal,CCCCC=O,285.15,pubchem,1
"butane-1,4-diol",C(CCO)CO,392.15,pubchem,1
"but-2-ene-1,4-diol",C(C=CCO)O,401.15,pubchem,1
"but-2-yne-1,4-diol",C(C#CCO)O,401.15,pubchem,1
pentane-1-thiol,CCCCCS,291.15,pubchem,1
N-methylbutan-1-amine,CCCCNC,286.15,pubchem,1
N-butylidenehydroxylamine,CCCC=NO,331.15,pubchem,1
"1,2-dimethoxyethane",COCCOC,273.15,pubchem,1
2-(ethylamino)ethanol,CCNCCO,344.15,pubchem,1
propyl formate,CCCOC=O,270.15,pubchem,1
1-chloro-2-ethenoxyethane,C=COCCCl,289.15,pubchem,1
2-ethoxyethanol,CCOCCO,314.15,pubchem,1
cyclohexane,C1CCCCC1,253.14999999999998,pubchem,1
cyclohexene,C1CCC=CC1,261.15,pubchem,1
"3,4-dihydro-2H-pyran",C1CC=COC1,255.14999999999998,pubchem,1
"1,3,5-trioxane",C1OCOCO1,318.15,pubchem,1
piperidine,C1CCNCC1,276.15,pubchem,1
morpholine,C1COCCN1,311.15,pubchem,1
2-methyl-N-(2-methylpropyl)propan-1-amine,CC(C)CNCC(C)C,302.15,pubchem,1
1-(2-hydroxypropylamino)propan-2-ol,CC(CNCC(C)O)O,399.15,pubchem,1
1-(2-hydroxypropoxy)propan-2-ol,CC(COCC(C)O)O,411.15,pubchem,1
octan-2-one,CCCCCCC(=O)C,325.15,pubchem,1
2-ethoxyethyl acetate,CCOCCOC(=O)C,330.15,pubchem,1
2-[2-(2-acetyloxyethoxy)ethoxy]ethyl acetate,CC(=O)OCCOCCOCCOC(=O)C,447.15,pubchem,1
hexan-1-amine,CCCCCCN,302.15,pubchem,1
hexan-1-ol,CCCCCCO,336.15,pubchem,1
"pentane-1,5-diol",C(CCO)CCO,402.15,pubchem,1
hexane-1-thiol,CCCCCCS,293.15,pubchem,1
1-ethenoxybutane,CCCCOC=C,264.15,pubchem,1
3-ethoxypropan-1-ol,CCOCCCO,327.15,pubchem,1
1-isocyanatobutane,CCCCN=C=O,292.15,pubchem,1
"N'-(2-aminoethyl)ethane-1,2-diamine",C(CNCCN)N,375.15,pubchem,1
2-(2-aminoethylamino)ethanol,C(CNCCO)N,375.15,pubchem,1
2-(2-hydroxyethylamino)ethanol,C(CO)NCCO,410.15,pubchem,1
1-propoxypropane,CCCOCCC,294.15,pubchem,1
1-chloro-2-(2-chloroethoxy)ethane,C(CCl)OCCCl,328.15,pubchem,1
2-(2-hydroxyethoxy)ethanol,C(COCCO)O,416.15,pubchem,1
azepane,C1CCCNCC1,310.15,pubchem,1
2-acetyloxyethyl acetate,CC(=O)OCCOC(=O)C,369.15,pubchem,1
octanoyl chloride,CCCCCCCC(=O)Cl,354.15,pubchem,1
oct-1-ene,CCCCCCC=C,294.15,pubchem,1
hexanedinitrile,C(CCC#N)CC#N,366.15,pubchem,1
heptan-1-ol,CCCCCCCO,350.15,pubchem,1
heptanal,CCCCCCC=O,308.15,pubchem,1
2-butoxyethanol,CCCCOCCO,334.15,pubchem,1
2-(2-methoxyethoxy)ethanol,COCCOCCO,366.15,pubchem,1
nonane,CCCCCCCCC,304.15,pubchem,1
1-chlorooctane,CCCCCCCCCl,343.15,pubchem,1
octane-1-thiol,CCCCCCCCS,319.15,pubchem,1
2-(2-ethoxyethoxy)ethanol,CCOCCOCCO,369.15,pubchem,1
1-chloro-2-(2-chloroethoxymethoxy)ethane,C(CCl)OCOCCCl,383.15,pubchem,1
N-butylbutan-1-amine,CCCCNCCCC,325.15,pubchem,1
3-(2-cyanoethylamino)propanenitrile,C(CNCCC#N)C#N,383.15,pubchem,1
1-methoxy-2-(2-methoxyethoxy)ethane,COCCOCCOC,340.15,pubchem,1
hexadecyl(trimethyl)azanium;chloride,CCCCCCCCCCCCCCCC[N+](C)(C)C.[Cl-],294.15,pubchem,1
trichloro(octadecyl)silane,CCCCCCCCCCCCCCCCCC[Si](Cl)(Cl)Cl,362.15,pubchem,1
nonanoic acid,CCCCCCCCC(=O)O,406.15,pubchem,1
heptyl acetate,CCCCCCCOC(=O)C,341.15,pubchem,1
2-butoxyethyl acetate,CCCCOCCOC(=O)C,344.15,pubchem,1
undecan-2-one,CCCCCCCCCC(=O)C,362.15,pubchem,1
2-(2-ethoxyethoxy)ethyl acetate,CCOCCOCCOC(=O)C,383.15,pubchem,1
2-hexoxyethanol,CCCCCCOCCO,364.15,pubchem,1
"1,2-bis(2-chloroethoxy)ethane",C(COCCCl)OCCCl,523.15,pubchem,1
2-[2-(2-hydroxyethoxy)ethoxy]ethanol,C(COCCOCCO)O,439.15,pubchem,1
decan-1-ol,CCCCCCCCCCO,355.15,pubchem,1
decanal,CCCCCCCCCC=O,358.15,pubchem,1
2-(2-butoxyethoxy)ethanol,CCCCOCCOCCO,351.15,pubchem,1
1-ethoxy-2-(2-ethoxyethoxy)ethane,CCOCCOCCOCC,327.15,pubchem,1
dodecane,CCCCCCCCCCCC,347.15,pubchem,1
dodec-1-ene,CCCCCCCCCCC=C,373.15,pubchem,1
undecan-1-ol,CCCCCCCCCCCO,366.15,pubchem,1
1-(2-butoxyethoxy)butane,CCCCOCCOCCCC,358.15,pubchem,1
1-methoxy-2-[2-(2-methoxyethoxy)ethoxy]ethane,COCCOCCOCCOC,384.15,pubchem,1
2-[2-(2-ethoxyethoxy)ethoxy]ethanol,CCOCCOCCOCCO,408.15,pubchem,1
1-chlorododecane,CCCCCCCCCCCCCl,386.15,pubchem,1
dodecan-1-ol,CCCCCCCCCCCCO,400.15,pubchem,1
dodecane-1-thiol,CCCCCCCCCCCCS,361.15,pubchem,1
2-(2-butoxyethoxy)ethyl thiocyanate,CCCCOCCOCCSC#N,325.15,pubchem,1
"N'-[2-[2-(2-aminoethylamino)ethylamino]ethyl]ethane-1,2-diamine",C(CNCCNCCNCCN)N,436.15,pubchem,1
2-(2-hexoxyethoxy)ethanol,CCCCCCOCCOCCO,414.15,pubchem,1
2-[2-[2-(2-hydroxyethoxy)ethoxy]ethoxy]ethanol,C(COCCOCCOCCO)O,455.15,pubchem,1
methyl octadecanoate,CCCCCCCCCCCCCCCCCC(=O)OC,426.15,pubchem,1
tridecan-1-ol,CCCCCCCCCCCCCO,394.15,pubchem,1
tetradecan-1-ol,CCCCCCCCCCCCCCO,414.15,pubchem,1
1-[2-(2-butoxyethoxy)ethoxy]butane,CCCCOCCOCCOCCCC,391.15,pubchem,1
octadecan-1-ol,CCCCCCCCCCCCCCCCCCO,473.15,pubchem,1
icosane,CCCCCCCCCCCCCCCCCCCC,373.15,pubchem,1
"4-(2-ethylhexyl)-4-azatricyclo[5.2.1.02,6]dec-8-ene-3,5-dione",CCCCC(CC)CN1C(=O)C2C3CC(C2C1=O)C=C3,450.15,pubchem,1
prop-1-ene,CC=C,165.14999999999998,pubchem,1
methoxymethane,COC,269.15,pubchem,1
2-methylprop-1-ene,CC(=C)C,197.14999999999998,pubchem,1
2-methylbut-3-en-2-ol,CC(C)(C=C)O,286.15,pubchem,1
2-methylbut-3-yn-2-ol,CC(C)(C#C)O,298.15,pubchem,1
trichloro(ethyl)silane,CC[Si](Cl)(Cl)Cl,295.15,pubchem,1
"(1,7,7-trimethyl-2-bicyclo[2.2.1]heptanyl) 2-thiocyanatoacetate",CC1(C2CCC1(C(C2)OC(=O)CSC#N)C)C,355.15,pubchem,1
"2,2,2-trichloro-1,1-bis(4-chlorophenyl)ethanol",C1=CC(=CC=C1C(C2=CC=C(C=C2)Cl)(C(Cl)(Cl)Cl)O)Cl,297.15,pubchem,1
"2,2-bis(hydroxymethyl)propane-1,3-diol",C(C(CO)(CO)CO)O,513.15,pubchem,1
triphenyl phosphate,C1=CC=C(C=C1)OP(=O)(OC2=CC=CC=C2)OC3=CC=CC=C3,493.15,pubchem,1
"3,7-dimethylocta-1,6-dien-3-yl acetate",CC(=CCCC(C)(C=C)OC(=O)C)C,367.15,pubchem,1
tris(2-chloroethyl) phosphate,C(CCl)OP(=O)(OCCCl)OCCCl,505.15,pubchem,1
"3,3,5-trimethylcyclohexan-1-ol",CC1CC(CC(C1)(C)C)O,347.15,pubchem,1
tripropan-2-yl phosphite,CC(C)OP(OC(C)C)OC(C)C,347.15,pubchem,1
"methyl 2,2-dichloroacetate",COC(=O)C(Cl)Cl,353.15,pubchem,1
"4,5,6,7-tetrachloro-2-benzofuran-1,3-dione",C12=C(C(=C(C(=C1Cl)Cl)Cl)Cl)C(=O)OC2=O,635.15,pubchem,1
1-chloro-4-[1-(4-chlorophenyl)-2-nitrobutyl]benzene,CCC(C(C1=CC=C(C=C1)Cl)C2=CC=C(C=C2)Cl)[N+](=O)[O-],423.15,pubchem,1
"2-aminoanthracene-9,10-dione",C1=CC=C2C(=C1)C(=O)C3=C(C2=O)C=C(C=C3)N,556.15,pubchem,1
"bis(2-ethylhexyl) benzene-1,2-dicarboxylate",CCCCC(CC)COC(=O)C1=CC=CC=C1C(=O)OCC(CC)CCCC,480.15,pubchem,1
"bis(2-methoxyethyl) benzene-1,2-dicarboxylate",COCCOC(=O)C1=CC=CC=C1C(=O)OCCOC,483.15,pubchem,1
"bis(2-butoxyethyl) benzene-1,2-dicarboxylate",CCCCOCCOC(=O)C1=CC=CC=C1C(=O)OCCOCCCC,680.15,pubchem,1
"dioctyl benzene-1,2-dicarboxylate",CCCCCCCCOC(=O)C1=CC=CC=C1C(=O)OCCCCCCCC,377.15,pubchem,1
"1,3-dichloro-5,5-dimethylimidazolidine-2,4-dione",CC1(C(=O)N(C(=O)N1Cl)Cl)C,447.15,pubchem,1
benzyl 2-hydroxybenzoate,C1=CC=C(C=C1)COC(=O)C2=CC=CC=C2O,453.15,pubchem,1
"1,3-dichloro-2-methylbenzene",CC1=C(C=CC=C1Cl)Cl,355.15,pubchem,1
"1,2,3,4,5,6-hexachlorobenzene",C1(=C(C(=C(C(=C1Cl)Cl)Cl)Cl)Cl)Cl,515.15,pubchem,1
"ditridecyl benzene-1,2-dicarboxylate",CCCCCCCCCCCCCOC(=O)C1=CC=CC=C1C(=O)OCCCCCCCCCCCCC,511.15,pubchem,1
"2-O-decyl 1-O-octyl benzene-1,2-dicarboxylate",CCCCCCCCCCOC(=O)C1=CC=CC=C1C(=O)OCCCCCCCC,508.15,pubchem,1
4-methyl-3-nitroaniline,CC1=C(C=C(C=C1)N)[N+](=O)[O-],430.15,pubchem,1
"1,2,3,4-tetrahydronaphthalene",C1CCC2=CC=CC=C2C1,353.15,pubchem,1
4-(4-amino-3-methoxyphenyl)-2-methoxyaniline,COC1=C(C=CC(=C1)C2=CC(=C(C=C2)N)OC)N,479.15,pubchem,1
4-(4-amino-3-methylphenyl)-2-methylaniline,CC1=C(C=CC(=C1)C2=CC(=C(C=C2)N)C)N,517.15,pubchem,1
anthracene,C1=CC=C2C=C3C=CC=CC3=CC2=C1,394.15,pubchem,1
2-benzyl-4-chlorophenol,C1=CC=C(C=C1)CC2=C(C=CC(=C2)Cl)O,461.15,pubchem,1
"2-(2,4-dichlorophenoxy)propanoic acid",CC(C(=O)O)OC1=C(C=C(C=C1)Cl)Cl,477.15,pubchem,1
2-(2-benzoyloxyethoxy)ethyl benzoate,C1=CC=C(C=C1)C(=O)OCCOCCOC(=O)C2=CC=CC=C2,505.15,pubchem,1
"dimethyl benzene-1,4-dicarboxylate",COC(=O)C1=CC=C(C=C1)C(=O)OC,426.15,pubchem,1
"2-(1,3-benzothiazol-2-yldisulfanyl)-1,3-benzothiazole",C1=CC=C2C(=C1)N=C(S2)SSC3=NC4=CC=CC=C4S3,543.15,pubchem,1
"2,4-dichlorophenol",C1=CC(=C(C=C1Cl)Cl)O,387.15,pubchem,1
cyclopentanone,C1CCC(=O)C1,303.15,pubchem,1
2-tert-butyl-4-methoxyphenol,CC(C)(C)C1=C(C=CC(=C1)OC)O,429.15,pubchem,1
"1-methyl-2,4-dinitrobenzene",CC1=C(C=C(C=C1)[N+](=O)[O-])[N+](=O)[O-],480.15,pubchem,1
3-ethoxy-4-hydroxybenzaldehyde,CCOC1=C(C=CC(=C1)C=O)O,418.15,pubchem,1
"N,N-diethylethanamine",CCN(CC)CC,266.15,pubchem,1
trimethyl phosphite,COP(OC)OC,301.15,pubchem,1
"bicyclo[2.2.1]hepta-2,5-diene",C1C2C=CC1C=C2,252.14999999999998,pubchem,1
1-chloro-3-nitrobenzene,C1=CC(=CC(=C1)Cl)[N+](=O)[O-],400.15,pubchem,1
2-chloro-4-nitroaniline,C1=CC(=C(C=C1[N+](=O)[O-])Cl)N,478.15,pubchem,1
"dimethyl benzene-1,2-dicarboxylate",COC(=O)C1=CC=CC=C1C(=O)OC,419.15,pubchem,1
"bis(prop-2-enyl) benzene-1,2-dicarboxylate",C=CCOC(=O)C1=CC=CC=C1C(=O)OCC=C,383.15,pubchem,1
"dipentyl benzene-1,2-dicarboxylate",CCCCCOC(=O)C1=CC=CC=C1C(=O)OCCCCC,454.15,pubchem,1
methyl 2-aminobenzoate,COC(=O)C1=CC=CC=C1N,377.15,pubchem,1
naphthalen-1-amine,C1=CC=C2C(=C1)C=CC=C2N,430.15,pubchem,1
"1,2-diethylbenzene",CCC1=CC=CC=C1CC,330.15,pubchem,1
naphthalen-2-ol,C1=CC=C2C=C(C=CC2=C1)O,426.15,pubchem,1
butan-2-ylbenzene,CCC(C)C1=CC=CC=C1,325.15,pubchem,1
"dipropyl pyridine-2,5-dicarboxylate",CCCOC(=O)C1=CN=C(C=C1)C(=O)OCCC,366.15,pubchem,1
2-ethylhexanoic acid,CCCCC(CC)C(=O)O,400.15,pubchem,1
butyl benzoate,CCCCOC(=O)C1=CC=CC=C1,380.15,pubchem,1
methyl 2-cyanoprop-2-enoate,COC(=O)C(=C)C#N,352.15,pubchem,1
"zinc;N,N-dimethylcarbamodithioate",CN(C)C(=S)[S-].CN(C)C(=S)[S-].[Zn+2],366.15,pubchem,1
2-methylbutan-1-ol,CCC(C)CO,323.15,pubchem,1
"2,4-di(nonyl)phenol",CCCCCCCCCC1=CC(=C(C=C1)O)CCCCCCCCC,400.15,pubchem,1
butyl 2-hydroxypropanoate,CCCCOC(=O)C(C)O,344.15,pubchem,1
2-[ethyl(2-hydroxyethyl)amino]ethanol,CCN(CCO)CCO,371.15,pubchem,1
trisodium;2-[2-[bis(carboxylatomethyl)amino]ethyl-(2-hydroxyethyl)amino]acetate,C(CN(CC(=O)[O-])CC(=O)[O-])N(CCO)CC(=O)[O-].[Na+].[Na+].[Na+],373.15,pubchem,1
tris(2-chloroethyl) phosphite,C(CCl)OP(OCCCl)OCCCl,411.15,pubchem,1
benzyl acetate,CC(=O)OCC1=CC=CC=C1,364.15,pubchem,1
2-phenylacetonitrile,C1=CC=C(C=C1)CC#N,375.15,pubchem,1
2-piperazin-1-ylethanamine,C1CN(CCN1)CCN,366.15,pubchem,1
N-[4-(2-chloroacetyl)phenyl]acetamide,CC(=O)NC1=CC=C(C=C1)C(=O)CCl,383.15,pubchem,1
1-methoxy-4-prop-2-enylbenzene,COC1=CC=C(C=C1)CC=C,354.15,pubchem,1
5-ethenyl-2-methylpyridine,CC1=NC=C(C=C1)C=C,347.15,pubchem,1
ethyl prop-2-enoate,CCOC(=O)C=C,282.15,pubchem,1
dibutyl butanedioate,CCCCOC(=O)CCC(=O)OCCCC,408.15,pubchem,1
"3,7-dimethylocta-2,6-dienal",CC(=CCCC(=CC=O)C)C,375.15,pubchem,1
butyl prop-2-enoate,CCCCOC(=O)C=C,322.15,pubchem,1
trichloro(propyl)silane,CCC[Si](Cl)(Cl)Cl,310.15,pubchem,1
"2,4,4-trimethylpentane-2-thiol",CC(C)(C)CC(C)(C)S,319.15,pubchem,1
butanoyl chloride,CCCC(=O)Cl,295.15,pubchem,1
ethyl acetate,CCOC(=O)C,269.15,pubchem,1
4-methylpent-3-en-2-one,CC(=CC(=O)C)C,296.15,pubchem,1
ethyl 3-oxobutanoate,CCOC(=O)CC(=O)C,330.15,pubchem,1
aniline;hydrochloride,C1=CC=C(C=C1)N.Cl,466.15,pubchem,1
hexyl 2-methylprop-2-enoate,CCCCCCOC(=O)C(=C)C,355.15,pubchem,1
N-(2-hydroxyethyl)acetamide,CC(=O)NCCO,450.15,pubchem,1
"1,3-dichloropropane",C(CCl)CCl,294.15,pubchem,1
cyclopentene,C1CC=CC1,239.14999999999998,pubchem,1
hexanoic acid,CCCCCC(=O)O,377.15,pubchem,1
oxane,C1CCOCC1,253.14999999999998,pubchem,1
heptane,CCCCCCC,269.15,pubchem,1
N-propylpropan-1-amine,CCCNCCC,290.15,pubchem,1
hexyl acetate,CCCCCCOC(=O)C,310.15,pubchem,1
1-butoxybutane,CCCCOCCCC,298.15,pubchem,1
nonan-1-ol,CCCCCCCCCO,347.15,pubchem,1
decane-1-thiol,CCCCCCCCCCS,371.15,pubchem,1
N-hexylhexan-1-amine,CCCCCCNCCCCCC,368.15,pubchem,1
2-[2-(2-butoxyethoxy)ethoxy]ethanol,CCCCOCCOCCOCCO,416.15,pubchem,1
hexadecan-1-amine,CCCCCCCCCCCCCCCCN,414.15,pubchem,1
"2,2,4-trimethylpentane-1,3-diol",CC(C)C(C(C)(C)CO)O,386.15,pubchem,1
"2,2,4-trimethyl-1H-quinoline",CC1=CC(NC2=CC=CC=C12)(C)C,374.15,pubchem,1
dichloro-methyl-phenylsilane,C[Si](C1=CC=CC=C1)(Cl)Cl,301.15,pubchem,1
tris(butylsulfanyl)phosphane,CCCCSP(SCCCC)SCCCC,419.15,pubchem,1
4-methoxyphenol,COC1=CC=C(C=C1)O,405.15,pubchem,1
"1,4-dimethoxybenzene",COC1=CC=C(C=C1)OC,361.15,pubchem,1
aziridine,C1CN1,262.15,pubchem,1
4-ethoxyaniline,CCOC1=CC=C(C=C1)N,389.15,pubchem,1
3-aminopropan-1-ol,C(CN)CO,352.15,pubchem,1
fluoranthene,C1=CC=C2C(=C1)C3=CC=CC4=C3C2=CC=C4,471.15,pubchem,1
acenaphthylene,C1=CC2=C3C(=C1)C=CC3=CC=C2,395.15,pubchem,1
1-benzofuran,C1=CC=C2C(=C1)C=CO2,329.15,pubchem,1
7-oxabicyclo[4.1.0]heptane,C1CCC2C(C1)O2,354.15,pubchem,1
"1H-1,2,4-triazole",C1=NC=NN1,443.15,pubchem,1
cycloheptane,C1CCCCCC1,279.15,pubchem,1
bis(2-ethylhexyl) hydrogen phosphate,CCCCC(CC)COP(=O)(O)OCC(CC)CCCC,469.15,pubchem,1
N-methyl-1-phenylpropan-2-amine;hydrochloride,CC(CC1=CC=CC=C1)NC.Cl,282.15,pubchem,1
tris(2-ethylhexyl) phosphite,CCCCC(CC)COP(OCC(CC)CCCC)OCC(CC)CCCC,444.15,pubchem,1
hydrazine,NN,325.15,pubchem,1
"1,2-dichloro-4-(trifluoromethyl)benzene",C1=CC(=C(C=C1C(F)(F)F)Cl)Cl,338.15,pubchem,1
methyl trifluoromethanesulfonate,COS(=O)(=O)C(F)(F)F,311.15,pubchem,1
2-fluoroaniline,C1=CC=C(C(=C1)N)F,333.15,pubchem,1
1-fluoro-4-methylbenzene,CC1=CC=C(C=C1)F,314.15,pubchem,1
1-fluoro-3-methylbenzene,CC1=CC(=CC=C1)F,282.15,pubchem,1
ethylsulfanylethane,CCSCC,263.15,pubchem,1
"2,4-difluoroaniline",C1=CC(=C(C=C1F)F)N,336.15,pubchem,1
4-fluoroaniline,C1=CC(=CC=C1N)F,347.15,pubchem,1
2-fluoroethanol,C(CF)O,304.15,pubchem,1
1-nitro-2-(trifluoromethyl)benzene,C1=CC=C(C(=C1)C(F)(F)F)[N+](=O)[O-],369.15,pubchem,1
2-fluorobenzoyl chloride,C1=CC=C(C(=C1)C(=O)Cl)F,355.15,pubchem,1
6-methylhept-5-en-2-one,CC(=CCCC(=O)C)C,330.15,pubchem,1
cyanamide,C(#N)N,414.15,pubchem,1
1-bromo-4-fluorobenzene,C1=CC(=CC=C1F)Br,333.15,pubchem,1
fluorobenzene,C1=CC=C(C=C1)F,258.15,pubchem,1
pyridin-3-amine,C1=CC(=CN=C1)N,463.15,pubchem,1
pentyl nitrite,CCCCCON=O,283.15,pubchem,1
"3,3-dimethylbutan-2-ol",CC(C(C)(C)C)O,351.15,pubchem,1
"(1S,2R,4R)-1,7,7-trimethylbicyclo[2.2.1]heptan-2-ol",CC1(C2CCC1(C(C2)O)C)C,339.15,pubchem,1
prop-2-ynoic acid,C#CC(=O)O,331.15,pubchem,1
"2,6,6-trimethylbicyclo[3.1.1]heptane",CC1CCC2CC1C2(C)C,313.15,pubchem,1
3-methyl-2-pent-2-enylcyclopent-2-en-1-one,CCC=CCC1=C(CCC1=O)C,380.15,pubchem,1
"InChI=1S/C4H4O2/c5-4-2-1-3-6-4/h1-2H,3H2",C1C=CC(=O)O1,374.15,pubchem,1
2-methyl-5-propan-2-ylphenol,CC1=C(C=C(C=C1)C(C)C)O,373.15,pubchem,1
benzyl carbonochloridate,C1=CC=C(C=C1)COC(=O)Cl,381.15,pubchem,1
oxepan-2-one,C1CCC(=O)OCC1,400.15,pubchem,1
nonan-5-one,CCCCC(=O)CCCC,333.15,pubchem,1
2-(fluoromethyl)oxirane,C1C(O1)CF,277.15,pubchem,1
but-2-yne,CC#CC,253.14999999999998,pubchem,1
oxetane,C1COC1,245.14999999999998,pubchem,1
3-methylbutanoic acid,CC(C)CC(=O)O,343.15,pubchem,1
"2,6-dimethylhepta-2,5-dien-4-one",CC(=CC(=O)C=C(C)C)C,358.15,pubchem,1
pyridin-2-amine,C1=CC=NC(=C1)N,365.15,pubchem,1
"propane-1,3-diol",C(CO)CO,447.15,pubchem,1
"1,3-dioxane",C1COCOC1,275.15,pubchem,1
1-chloro-2-(2-chloroethylsulfanyl)ethane,C(CCl)SCCCl,378.15,pubchem,1
acetyl bromide,CC(=O)Br,348.15,pubchem,1
2-bromo-2-methylpropane,CC(C)(C)Br,257.15,pubchem,1
"(1R,2S,4S)-1,7,7-trimethylbicyclo[2.2.1]heptan-2-ol",CC1(C2CCC1(C(C2)O)C)C,339.15,pubchem,1
1-chloro-2-methylpropane,CC(C)CCl,263.15,pubchem,1
1-chloro-2-methylprop-1-ene,CC(=CCl)C,272.15,pubchem,1
2-methylprop-2-en-1-ol,CC(=C)CO,306.15,pubchem,1
butane-2-thiol,CCC(C)S,250.14999999999998,pubchem,1
"(1R,4aR,4bR,10aR)-1,4a-dimethyl-7-propan-2-yl-2,3,4,4b,5,6,10,10a-octahydrophenanthrene-1-carboxylic acid",CC(C)C1=CC2=CCC3C(C2CC1)(CCCC3(C)C(=O)O)C,460.15,pubchem,1
"1,2,3-trimethylbenzene",CC1=C(C(=CC=C1)C)C,317.15,pubchem,1
"1,2,3,5-tetramethylbenzene",CC1=CC(=C(C(=C1)C)C)C,336.15,pubchem,1
"1,2-dinitrobenzene",C1=CC=C(C(=C1)[N+](=O)[O-])[N+](=O)[O-],423.15,pubchem,1
2-methylbenzonitrile,CC1=CC=CC=C1C#N,357.15,pubchem,1
2-methylbenzaldehyde,CC1=CC=CC=C1C=O,340.15,pubchem,1
"3,4-dihydro-2H-naphthalen-1-one",C1CC2=CC=CC=C2C(=O)C1,402.15,pubchem,1
2-chloro-1-phenylethanone,C1=CC=C(C=C1)C(=O)CCl,391.15,pubchem,1
2-hydroxy-2-phenylacetonitrile,C1=CC=C(C=C1)C(C#N)O,355.15,pubchem,1
"3,5-dimethyl-1,3,5-thiadiazinane-2-thione",CN1CN(C(=S)SC1)C,366.15,pubchem,1
2-methylfuran,CC1=CC=CO1,243.14999999999998,pubchem,1
(2S)-N-methyl-1-phenylpropan-2-amine,CC(CC1=CC=CC=C1)NC,282.15,pubchem,1
"2,3-di(octanoyloxy)propyl octanoate",CCCCCCCC(=O)OCC(COC(=O)CCCCCCC)OC(=O)CCCCCCC,450.15,pubchem,1
pentyl butanoate,CCCCCOC(=O)CCC,330.15,pubchem,1
2-bromoethanol,C(CBr)O,314.15,pubchem,1
1-chloropropane,CCCCl,255.14999999999998,pubchem,1
"1,2-dichloroethene",C(=CCl)Cl,277.15,pubchem,1
methoxyethane,CCOC,236.14999999999998,pubchem,1
"2,2,4-trimethylpentane",CC(C)CC(C)(C)C,261.15,pubchem,1
tert-butyl acetate,CC(=O)OC(C)(C)C,295.15,pubchem,1
"2,2,4,4,6,6,8,8,10,10,12,12-dodecamethyl-1,3,5,7,9,11-hexaoxa-2,4,6,8,10,12-hexasilacyclododecane",C[Si]1(O[Si](O[Si](O[Si](O[Si](O[Si](O1)(C)C)(C)C)(C)C)(C)C)(C)C)C,364.15,pubchem,1
"2,2,4,4,6,6,8,8,10,10-decamethyl-1,3,5,7,9,2,4,6,8,10-pentaoxapentasilecane",C[Si]1(O[Si](O[Si](O[Si](O[Si](O1)(C)C)(C)C)(C)C)(C)C)C,346.15,pubchem,1
ethyl carbonochloridate,CCOC(=O)Cl,289.15,pubchem,1
"1,3-dichlorobenzene",C1=CC(=CC(=C1)Cl)Cl,336.15,pubchem,1
chlorocyclohexane,C1CCC(CC1)Cl,305.15,pubchem,1
2-methylpropyl nitrite,CC(C)CON=O,250.14999999999998,pubchem,1
2-hydroxyethyl acetate,CC(=O)OCCO,375.15,pubchem,1
3-chloropropanenitrile,C(CCl)C#N,349.15,pubchem,1
heptan-2-ol,CCCCCC(C)O,344.15,pubchem,1
1-chloropentane,CCCCCCl,274.15,pubchem,1
1-chlorohexane,CCCCCCCl,308.15,pubchem,1
hex-3-en-1-ol,CCC=CCCO,403.15,pubchem,1
hexadecane,CCCCCCCCCCCCCCCC,408.15,pubchem,1
"2,2,2-trichloroacetonitrile",C(#N)C(Cl)(Cl)Cl,347.15,pubchem,1
1-[bis(aziridin-1-yl)phosphoryl]aziridine,C1CN1P(=O)(N2CC2)N3CC3,436.15,pubchem,1
methyl 2-hydroxypropanoate,CC(C(=O)OC)O,324.15,pubchem,1
"1,3-dioxo-2-benzofuran-5-carboxylic acid",C1=CC2=C(C=C1C(=O)O)C(=O)OC2=O,500.15,pubchem,1
"2,4-dichloroaniline",C1=CC(=C(C=C1Cl)Cl)N,388.15,pubchem,1
methyl propanoate,CCC(=O)OC,271.15,pubchem,1
3-methylidene-6-propan-2-ylcyclohexene,CC(C)C1CCC(=C)C=C1,393.15,pubchem,1