,compound,flashpoint,pure substance,smiles,source
0,1-aminopropan-2-ol,350.15,1.0,CC(CN)O,pubchem
1,"1-chloro-2,4-dinitrobenzene",467.15,1.0,C1=CC(=C(C=C1[N+](=O)[O-])[N+](=O)[O-])Cl,pubchem
2,"1,2-dichloroethane",286.15,1.0,C(CCl)Cl,pubchem
3,"1,2,4-trichlorobenzene",383.15,1.0,C1=CC(=C(C=C1Cl)Cl)Cl,pubchem
4,2-chloroacetaldehyde,361.15,1.0,C(C=O)Cl,pubchem
5,2-chloroethanol,333.15,1.0,C(CCl)O,pubchem
6,"ethane-1,2-diol",384.15,1.0,C(CO)O,pubchem
7,acetic acid,313.15,1.0,CC(=O)O,pubchem
8,acetaldehyde,233.15,1.0,CC=O,pubchem
9,3-hydroxybutan-2-one,314.15,1.0,CC(C(=O)C)O,pubchem
10,propan-2-one,255.15,1.0,CC(=O)C,pubchem
11,hexanedioic acid,464.15,1.0,C(CCC(=O)O)CC(=O)O,pubchem
12,azane,405.15,1.0,N,pubchem
13,2-aminobenzoic acid,444.15,1.0,C1=CC=C(C(=C1)C(=O)O)N,pubchem
14,benzaldehyde,337.15,1.0,C1=CC=C(C=C1)C=O,pubchem
15,benzene,262.15,1.0,C1=CC=CC=C1,pubchem
16,benzoate,394.15,1.0,C1=CC=C(C=C1)C(=O)[O-],pubchem
17,benzoic acid,394.15,1.0,C1=CC=C(C=C1)C(=O)O,pubchem
18,phenylmethanol,374.15,1.0,C1=CC=C(C=C1)CO,pubchem
19,butanal,266.15,1.0,CCCC=O,pubchem
20,"butane-2,3-diol",358.15,1.0,CC(C(C)O)O,pubchem
21,butan-1-ol,302.15,1.0,CCCCO,pubchem
22,butanoic acid,350.15,1.0,CCCC(=O)O,pubchem
23,"pentane-1,5-diamine",335.15,1.0,C(CCN)CCN,pubchem
24,formic acid,342.15,1.0,C(=O)O,pubchem
25,"benzene-1,2-diol",400.15,1.0,C1=CC=C(C(=C1)O)O,pubchem
26,methane,85.14999999999998,1.0,C,pubchem
27,2-chloroacetic acid,423.15,1.0,C(C(=O)O)Cl,pubchem
28,3-phenylprop-2-enal,393.15,1.0,C1=CC=C(C=C1)C=CC=O,pubchem
29,3-phenylprop-2-en-1-ol,399.15,1.0,C1=CC=C(C=C1)C=CCO,pubchem
30,"2-hydroxypropane-1,2,3-tricarboxylic acid",373.15,1.0,C(C(=O)O)C(CC(=O)O)(C(=O)O)O,pubchem
31,chromen-2-one,424.15,1.0,C1=CC=C2C(=C1)C=CC(=O)O2,pubchem
32,2-methylphenol,354.15,1.0,CC1=CC=CC=C1O,pubchem
33,2-hydroxybenzoic acid,430.15,1.0,C1=CC=C(C(=C1)C(=O)O)O,pubchem
34,3-methylphenol,359.15,1.0,CC1=CC(=CC=C1)O,pubchem
35,octane,286.15,1.0,CCCCCCCC,pubchem
36,octanoic acid,383.15,1.0,CCCCCCCC(=O)O,pubchem
37,2-nitropropane,297.15,1.0,CC(C)[N+](=O)[O-],pubchem
38,sulfane,480.15,1.0,S,pubchem
39,4-aminophenol,468.15,1.0,C1=CC(=CC=C1N)O,pubchem
40,"propane-1,3-diamine",297.15,1.0,C(CN)CN,pubchem
41,octanal,325.15,1.0,CCCCCCCC=O,pubchem
42,2-methoxyphenol,347.15,1.0,COC1=CC=CC=C1O,pubchem
43,propanal,264.15,1.0,CCC=O,pubchem
44,2-hydroxypropanoic acid,386.15,1.0,CC(C(=O)O)O,pubchem
45,"butane-2,3-dione",300.15,1.0,CC(=O)C(=O)C,pubchem
46,"3,4-dihydrochromen-2-one",403.15,1.0,C1CC(=O)OC2=CC=CC=C21,pubchem
47,N-methylmethanamine,266.15,1.0,CNC,pubchem
48,methylsulfinylmethane,368.15,1.0,CS(=O)C,pubchem
49,2-aminoethanol,366.15,1.0,C(CO)N,pubchem
50,ethanol,286.15,1.0,CCO,pubchem
51,formaldehyde,333.15,1.0,C=O,pubchem
52,formamide,427.15,1.0,C(=O)N,pubchem
53,"propane-1,2,3-triol",433.15,1.0,C(C(CO)O)O,pubchem
54,formonitrile,255.15,1.0,C#N,pubchem
55,"benzene-1,4-diol",438.15,1.0,C1=CC(=CC=C1O)O,pubchem
56,hydroxylamine,402.15,1.0,NO,pubchem
57,1H-imidazole,418.15,1.0,C1=CN=CN1,pubchem
58,"2,3-dihydroxybutanedioic acid",483.15,1.0,C(C(C(=O)O)O)(C(=O)O)O,pubchem
59,methanethiol,255.15,1.0,CS,pubchem
60,methanol,284.15,1.0,CO,pubchem
61,N-phenylacetamide,447.15,1.0,CC(=O)NC1=CC=CC=C1,pubchem
62,naphthalene,361.15,1.0,C1=CC=C2C=CC=CC2=C1,pubchem
63,pyridine-3-carboxamide,455.15,1.0,C1=CC(=CN=C1)C(=O)N,pubchem
64,pyridine-3-carboxylic acid,466.15,1.0,C1=CC(=CN=C1)C(=O)O,pubchem
65,3-(1-methylpyrrolidin-2-yl)pyridine,374.15,1.0,CN1CCCC1C2=CN=CC=C2,pubchem
66,"N,N-dimethylaniline",336.15,1.0,CN(C)C1=CC=CC=C1,pubchem
67,octan-1-ol,354.15,1.0,CCCCCCCCO,pubchem
68,4-nitrophenol,465.15,1.0,C1=CC(=CC=C1[N+](=O)[O-])O,pubchem
69,diethoxy-(4-nitrophenoxy)-sulfanylidene-λ5-phosphane,393.15,1.0,CCOP(=S)(OCC)OC1=CC=C(C=C1)[N+](=O)[O-],pubchem
70,phenanthrene,444.15,1.0,C1=CC=C2C(=C1)C=CC3=CC=CC=C32,pubchem
71,phenol,352.15,1.0,C1=CC=C(C=C1)O,pubchem
72,2-phenylacetic acid,405.15,1.0,C1=CC=C(C=C1)CC(=O)O,pubchem
73,phthalic acid,441.15,1.0,C1=CC=C(C(=C1)C(=O)O)C(=O)O,pubchem
74,"propane-1,2-diol",372.15,1.0,CC(CO)O,pubchem
75,propan-1-ol,298.15,1.0,CCCO,pubchem
76,propanoic acid,327.15,1.0,CCC(=O)O,pubchem
77,pyridine,293.15,1.0,C1=CC=NC=C1,pubchem
78,methylsulfanylmethane,235.15,1.0,CSC,pubchem
79,butanedioic acid,433.15,1.0,C(CC(=O)O)C(=O)O,pubchem
80,thiolane,286.15,1.0,C1CCSC1,pubchem
81,2-sulfanylacetic acid,386.15,1.0,C(C(=O)O)S,pubchem
82,toluene,277.15,1.0,CC1=CC=CC=C1,pubchem
83,4-hydroxy-3-methoxybenzaldehyde,426.15,1.0,COC1=C(C=CC(=C1)C=O)O,pubchem
84,N-methyl-1-phenylpropan-2-amine,282.15,1.0,CC(CC1=CC=CC=C1)NC,pubchem
85,5-methyl-2-propan-2-ylcyclohexan-1-ol,364.15,1.0,CC1CCC(C(C1)O)C(C)C,pubchem
86,2-sulfanylethanol,347.15,1.0,C(CS)O,pubchem
87,pyridin-4-amine,437.15,1.0,C1=CN=CC=C1N,pubchem
88,4-chloro-3-methylphenol,383.15,1.0,CC1=C(C=CC(=C1)O)Cl,pubchem
89,4-nonylphenol,386.15,1.0,CCCCCCCCCC1=CC=C(C=C1)O,pubchem
90,"2-chloro-N-(2,6-diethylphenyl)-N-(methoxymethyl)acetamide",410.15,1.0,CCC1=C(C(=CC=C1)CC)N(COC)C(=O)CCl,pubchem
91,2-acetyloxybenzoic acid,523.15,1.0,CC(=O)OC1=CC=CC=C1C(=O)O,pubchem
92,nonanedioic acid,483.15,1.0,C(CCCC(=O)O)CCCC(=O)O,pubchem
93,benzyl benzoate,421.15,1.0,C1=CC=C(C=C1)COC(=O)C2=CC=CC=C2,pubchem
94,"2-O-benzyl 1-O-butyl benzene-1,2-dicarboxylate",472.15,1.0,CCCCOC(=O)C1=CC=CC=C1C(=O)OCC2=CC=CC=C2,pubchem
95,oxetan-2-one,343.15,1.0,C1COC1=O,pubchem
96,"2-bromo-2-nitropropane-1,3-diol",440.15,1.0,C(C(CO)([N+](=O)[O-])Br)O,pubchem
97,"1,7,7-trimethylbicyclo[2.2.1]heptan-2-one",339.15,1.0,CC1(C2CCC1(C(=O)C2)C)C,pubchem
98,"diethoxy-sulfanylidene-(3,5,6-trichloropyridin-2-yl)oxy-λ5-phosphane",301.15,1.0,CCOP(=S)(OCC)OC1=NC(=C(C=C1Cl)Cl)Cl,pubchem
99,"1,3,3-trimethyl-2-oxabicyclo[2.2.2]octane",322.15,1.0,CC1(C2CCC(O1)(CC2)C)C,pubchem
100,4-methylphenol,359.15,1.0,CC1=CC=C(C=C1)O,pubchem
101,"N,N-bis(2-chloroethyl)-2-oxo-1,3,2λ5-oxazaphosphinan-2-amine",386.15,1.0,C1CNP(=O)(OC1)N(CCCl)CCCl,pubchem
102,decanoic acid,386.15,1.0,CCCCCCCCCC(=O)O,pubchem
103,1-phenylpropan-2-amine,300.15,1.0,CC(CC1=CC=CC=C1)N,pubchem
104,"dibutyl benzene-1,2-dicarboxylate",430.15,1.0,CCCCOC(=O)C1=CC=CC=C1C(=O)OCCCC,pubchem
105,"3,4,5,6,13,13-hexachloro-10-oxapentacyclo[6.3.1.13,6.02,7.09,11]tridec-4-ene",300.15,1.0,C1C2C3C(C1C4C2O4)C5(C(=C(C3(C5(Cl)Cl)Cl)Cl)Cl)Cl,pubchem
106,2-dimethoxyphosphinothioylsulfanyl-N-methylacetamide,324.15,1.0,CNC(=O)CSP(=S)(OC)OC,pubchem
107,2-propylpentanoic acid,384.15,1.0,CCCC(CCC)C(=O)O,pubchem
108,ethoxyethane,228.15,1.0,CCOCC,pubchem
109,diethoxyphosphinothioylsulfanylmethylsulfanyl-diethoxy-sulfanylidene-λ5-phosphane,449.15,1.0,CCOP(=S)(OCC)SCSP(=S)(OCC)OCC,pubchem
110,"6-ethoxy-2,2,4-trimethyl-1H-quinoline",380.15,1.0,CCOC1=CC2=C(C=C1)NC(C=C2C)(C)C,pubchem
111,"ethane-1,2-diamine",307.15,1.0,C(CN)N,pubchem
112,2-methoxy-4-prop-2-enylphenol,377.15,1.0,COC1=C(C=CC(=C1)CC=C)O,pubchem
113,dimethoxy-(3-methyl-4-methylsulfanylphenoxy)-sulfanylidene-λ5-phosphane,443.15,1.0,CC1=C(C=CC(=C1)OP(=S)(OC)OC)SC,pubchem
114,furan-2-ylmethanamine,310.15,1.0,C1=COC(=C1)CN,pubchem
115,"3,4,6-trichloro-2-[(2,3,5-trichloro-6-hydroxyphenyl)methyl]phenol",319.15,1.0,C1=C(C(=C(C(=C1Cl)Cl)CC2=C(C(=CC(=C2Cl)Cl)Cl)O)O)Cl,pubchem
116,pyridine-4-carbohydrazide,463.15,1.0,C1=CN=CC=C1C(=O)NN,pubchem
117,propan-2-ol,285.15,1.0,CC(C)O,pubchem
118,dodecanoic acid,386.15,1.0,CCCCCCCCCCCC(=O)O,pubchem
119,2-methylprop-2-enoic acid,350.15,1.0,CC(=C)C(=O)O,pubchem
120,"1,3,5,7-tetrazatricyclo[3.3.1.13,7]decane",523.15,1.0,C1N2CN3CN1CN(C2)C3,pubchem
121,"2,2-dichloro-1,1-difluoro-1-methoxyethane",336.15,1.0,COC(C(Cl)Cl)(F)F,pubchem
122,methyl 2-hydroxybenzoate,369.15,1.0,COC(=O)C1=CC=CC=C1O,pubchem
123,methyl methanesulfonate,377.15,1.0,COS(=O)(=O)C,pubchem
124,"N,N-diethyl-3-methylbenzamide",428.15,1.0,CCN(CC)C(=O)C1=CC(=CC=C1)C,pubchem
125,(2-hydroxy-4-methoxyphenyl)-phenylmethanone,373.15,1.0,COC1=CC(=C(C=C1)C(=O)C2=CC=CC=C2)O,pubchem
126,"cyclohexa-2,5-diene-1,4-dione",566.15,1.0,C1=CC(=O)C=CC1=O,pubchem
127,4-chlorophenol,394.15,1.0,C1=CC(=CC=C1O)Cl,pubchem
128,"1,4-dichlorobenzene",339.15,1.0,C1=CC(=CC=C1Cl)Cl,pubchem
129,4-[5-(4-carbamimidoylphenoxy)pentoxy]benzenecarboximidamide,376.15,1.0,C1=CC(=CC=C1C(=N)N)OCCCCCOC2=CC=C(C=C2)C(=N)N,pubchem
130,"5-ethyl-5-phenyl-1,3-diazinane-2,4,6-trione",447.15,1.0,CCC1(C(=O)NC(=O)NC1=O)C2=CC=CC=C2,pubchem
131,diethoxy-(ethylsulfanylmethylsulfanyl)-sulfanylidene-λ5-phosphane,433.15,1.0,CCOP(=S)(OCC)SCSCC,pubchem
132,"[13-acetyloxy-1,6-dihydroxy-8-(hydroxymethyl)-4,12,12,15-tetramethyl-5-oxo-14-tetracyclo[8.5.0.02,6.011,13]pentadeca-3,8-dienyl] tetradecanoate",310.15,1.0,CCCCCCCCCCCCCC(=O)OC1C(C2(C(C=C(CC3(C2C=C(C3=O)C)O)CO)C4C1(C4(C)C)OC(=O)C)O)C,pubchem
133,"6-chloro-3-(diethoxyphosphinothioylsulfanylmethyl)-1,3-benzoxazol-2-one",373.15,1.0,CCOP(=S)(OCC)SCN1C2=C(C=C(C=C2)Cl)OC1=O,pubchem
134,piperazine,361.15,1.0,C1CNCCN1,pubchem
135,1-[2-[2-hydroxy-3-(propylamino)propoxy]phenyl]-3-phenylpropan-1-one,472.15,1.0,CCCNCC(COC1=CC=CC=C1C(=O)CCC2=CC=CC=C2)O,pubchem
136,[2-(4-tert-butylphenoxy)cyclohexyl] prop-2-ynyl sulfite,301.15,1.0,CC(C)(C)C1=CC=C(C=C1)OC2CCCCC2OS(=O)OCC#C,pubchem
137,"propyl 3,4,5-trihydroxybenzoate",460.15,1.0,CCCOC(=O)C1=CC(=C(C(=C1)O)O)O,pubchem
138,"2-[2-(4-benzo[b][1,4]benzothiazepin-6-ylpiperazin-1-yl)ethoxy]ethanol",282.15,1.0,C1CN(CCN1CCOCCO)C2=NC3=CC=CC=C3SC4=CC=CC=C42,pubchem
139,"benzene-1,3-diol",400.15,1.0,C1=CC(=CC(=C1)O)O,pubchem
140,2-aminopropan-1-ol,336.15,1.0,CC(CO)N,pubchem
141,"5-prop-2-enyl-1,3-benzodioxole",371.15,1.0,C=CCC1=CC2=C(C=C1)OCO2,pubchem
142,decanedioic acid,493.15,1.0,C(CCCCC(=O)O)CCCC(=O)O,pubchem
143,"hexa-2,4-dienoic acid",400.15,1.0,CC=CC=CC(=O)O,pubchem
144,octadecanoic acid,469.15,1.0,CCCCCCCCCCCCCCCCCC(=O)O,pubchem
145,2-(2-hydroxyethylsulfanyl)ethanol,386.15,1.0,C(CSCCO)O,pubchem
146,"dimethylcarbamothioylsulfanyl N,N-dimethylcarbamodithioate",411.15,1.0,CN(C)C(=S)SSC(=S)N(C)C,pubchem
147,"N,N-diethylpyridine-3-carboxamide",386.15,1.0,CCN(CC)C(=O)C1=CN=CC=C1,pubchem
148,"2,3-diacetyloxypropyl acetate",411.15,1.0,CC(=O)OCC(COC(=O)C)OC(=O)C,pubchem
149,"S-(2,3,3-trichloroprop-2-enyl) N,N-di(propan-2-yl)carbamothioate",363.15,1.0,CC(C)N(C(C)C)C(=O)SCC(=C(Cl)Cl)Cl,pubchem
150,"N'-[2-(2-aminoethylamino)ethyl]ethane-1,2-diamine",408.15,1.0,C(CNCCNCCN)N,pubchem
151,ethyl carbamate,365.15,1.0,CCOC(=O)N,pubchem
152,"(2R,3R,4R,5S)-hexane-1,2,3,4,5,6-hexol",556.15,1.0,C(C(C(C(C(CO)O)O)O)O)O,pubchem
153,"5-[2-(2-butoxyethoxy)ethoxymethyl]-6-propyl-1,3-benzodioxole",444.15,1.0,CCCCOCCOCCOCC1=CC2=C(C=C1CCC)OCO2,pubchem
154,2-aminophenol,441.15,1.0,C1=CC=C(C(=C1)N)O,pubchem
155,"N,N-diethylnitrous amide",336.15,1.0,CCN(CC)N=O,pubchem
156,"N'-(3-aminopropyl)propane-1,3-diamine",352.15,1.0,C(CN)CNCCCN,pubchem
157,3-isothiocyanatoprop-1-ene,319.15,1.0,C=CCN=C=S,pubchem
158,"1,1-dimethylhydrazine",258.15,1.0,CN(C)N,pubchem
159,"1,3,4,7,8,9,10,10-octachlorotricyclo[5.2.1.02,6]dec-8-ene",380.15,1.0,C1C2C(C(C1Cl)Cl)C3(C(=C(C2(C3(Cl)Cl)Cl)Cl)Cl)Cl,pubchem
160,"7,12-dimethylbenzo[a]anthracene",359.15,1.0,CC1=C2C=CC3=CC=CC=C3C2=C(C4=CC=CC=C14)C,pubchem
161,"(8R,9S,10R,13S,14S,17S)-17-hydroxy-10,13,17-trimethyl-2,6,7,8,9,11,12,14,15,16-decahydro-1H-cyclopenta[a]phenanthren-3-one",278.15,1.0,CC12CCC(=O)C=C1CCC3C2CCC4(C3CCC4(C)O)C,pubchem
162,"2,3,4,6-tetrachlorophenol",373.15,1.0,C1=C(C(=C(C(=C1Cl)Cl)Cl)O)Cl,pubchem
163,"2,3-di(butanoyloxy)propyl butanoate",629.15,1.0,CCCC(=O)OCC(COC(=O)CCC)OC(=O)CCC,pubchem
164,2-phenylethanol,369.15,1.0,C1=CC=C(C=C1)CCO,pubchem
165,methylhydrazine,343.15,1.0,CNN,pubchem
166,4-methylbenzenesulfonic acid,457.15,1.0,CC1=CC=C(C=C1)S(=O)(=O)O,pubchem
167,4-nitrobenzoic acid,475.15,1.0,C1=CC(=CC=C1C(=O)O)[N+](=O)[O-],pubchem
168,ethyl methanesulfonate,373.15,1.0,CCOS(=O)(=O)C,pubchem
169,aniline,343.15,1.0,C1=CC=C(C=C1)N,pubchem
170,"N,N-dimethylnitrous amide",334.15,1.0,CN(C)N=O,pubchem
171,diethyl sulfate,377.15,1.0,CCOS(=O)(=O)OCC,pubchem
172,hexanal,305.15,1.0,CCCCCC=O,pubchem
173,2-bromoacetic acid,386.15,1.0,C(C(=O)O)Br,pubchem
174,"N,N-dimethylformamide",340.15,1.0,CN(C)C=O,pubchem
175,4-methylbenzenesulfonamide,475.15,1.0,CC1=CC=C(C=C1)S(=O)(=O)N,pubchem
176,pentan-1-ol,306.15,1.0,CCCCCO,pubchem
177,4-chlorobenzoic acid,511.15,1.0,C1=CC(=CC=C1C(=O)O)Cl,pubchem
178,"1-N,4-N-diphenylbenzene-1,4-diamine",477.15,1.0,C1=CC=C(C=C1)NC2=CC=C(C=C2)NC3=CC=CC=C3,pubchem
179,ethane,138.14999999999998,1.0,CC,pubchem
180,ethene,137.14999999999998,1.0,C=C,pubchem
181,acetylene,255.15,1.0,C#C,pubchem
182,chloromethane,228.15,1.0,CCl,pubchem
183,methanamine,273.15,1.0,CN,pubchem
184,bromoethane,250.15,1.0,CCBr,pubchem
185,propane,169.14999999999995,1.0,CCC,pubchem
186,chloroethane,223.15,1.0,CCCl,pubchem
187,chloroethene,194.15,1.0,C=CCl,pubchem
188,iodoethane,334.15,1.0,CCI,pubchem
189,acetonitrile,279.15,1.0,CC#N,pubchem
190,methanedithione,243.15,1.0,C(=S)=S,pubchem
191,oxirane,255.15,1.0,C1CO1,pubchem
192,2-bromopropane,344.15,1.0,CC(C)Br,pubchem
193,2-methylpropane,190.15,1.0,CC(C)C,pubchem
194,2-chloropropane,241.15,1.0,CC(C)Cl,pubchem
195,propan-2-amine,236.15,1.0,CC(C)N,pubchem
196,propane-2-thiol,239.15,1.0,CC(C)S,pubchem
197,"1,1-dichloroethane",267.15,1.0,CC(Cl)Cl,pubchem
198,"1,1-dichloroethene",263.15,1.0,C=C(Cl)Cl,pubchem
199,acetyl chloride,277.15,1.0,CC(=O)Cl,pubchem
200,nitromethane,308.15,1.0,C[N+](=O)[O-],pubchem
201,2-methylaziridine,269.15,1.0,CC1CN1,pubchem
202,2-methyloxirane,236.15,1.0,CC1CO1,pubchem
203,2-methylpropan-2-amine,283.15,1.0,CC(C)(C)N,pubchem
204,2-methylpropan-2-ol,284.15,1.0,CC(C)(C)O,pubchem
205,tetramethylplumbane,311.15,1.0,C[Pb](C)(C)C,pubchem
206,methanesulfonic acid,462.15,1.0,CS(=O)(=O)O,pubchem
207,tetramethylsilane,246.15,1.0,C[Si](C)(C)C,pubchem
208,chloro(trimethyl)silane,255.15,1.0,C[Si](C)(C)Cl,pubchem
209,dichloro(dimethyl)silane,264.15,1.0,C[Si](C)(Cl)Cl,pubchem
210,trichloro(methyl)silane,264.15,1.0,C[Si](Cl)(Cl)Cl,pubchem
211,"2,2-dimethylbutane",225.15,1.0,CCC(C)(C)C,pubchem
212,"2,2-dimethylpropan-1-ol",310.15,1.0,CC(C)(C)CO,pubchem
213,2-methylbutan-2-ol,292.15,1.0,CCC(C)(C)O,pubchem
214,2-hydroxy-2-methylpropanenitrile,347.15,1.0,CC(C)(C#N)O,pubchem
215,"2,2,2-trichloroacetaldehyde",348.15,1.0,C(=O)C(Cl)(Cl)Cl,pubchem
216,2-hydroperoxy-2-methylpropane,300.15,1.0,CC(C)(C)OO,pubchem
217,trichloro(ethenyl)silane,294.15,1.0,C=C[Si](Cl)(Cl)Cl,pubchem
218,"3,3-dimethylbutan-2-one",278.15,1.0,CC(=O)C(C)(C)C,pubchem
219,"2,2-dimethylpropanoic acid",337.15,1.0,CC(C)(C)C(=O)O,pubchem
220,"(1,7,7-trimethyl-2-bicyclo[2.2.1]heptanyl) acetate",361.15,1.0,CC(=O)OC1CC2CCC1(C2(C)C)C,pubchem
221,"(3-hydroxy-2,2,4-trimethylpentyl) 2-methylpropanoate",393.15,1.0,CC(C)C(C(C)(C)COC(=O)C(C)C)O,pubchem
222,"tricyclo[5.2.1.02,6]deca-3,8-diene",305.15,1.0,C1C=CC2C1C3CC2C=C3,pubchem
223,1-ethenylsulfonylethene,376.15,1.0,C=CS(=O)(=O)C=C,pubchem
224,dimethyl sulfate,356.15,1.0,COS(=O)(=O)OC,pubchem
225,"2,5-dihydrothiophene 1,1-dioxide",386.15,1.0,C1C=CCS1(=O)=O,pubchem
226,[dimethylamino(ethoxy)phosphoryl]formonitrile,351.15,1.0,CCOP(=O)(C#N)N(C)C,pubchem
227,"tributyl 2-acetyloxypropane-1,2,3-tricarboxylate",386.15,1.0,CCCCOC(=O)CC(CC(=O)OCCCC)(C(=O)OCCCC)OC(=O)C,pubchem
228,"triethyl 2-hydroxypropane-1,2,3-tricarboxylate",428.15,1.0,CCOC(=O)CC(CC(=O)OCC)(C(=O)OCC)O,pubchem
229,"2-ethyl-2-(hydroxymethyl)propane-1,3-diol",445.15,1.0,CCC(CO)(CO)CO,pubchem
230,tetraethylplumbane,366.15,1.0,CC[Pb](CC)(CC)CC,pubchem
231,tetraethyl silicate,310.15,1.0,CCO[Si](OCC)(OCC)OCC,pubchem
232,1-(1-hydroperoxycyclohexyl)peroxycyclohexan-1-ol,430.15,1.0,C1CCC(CC1)(O)OOC2(CCCCC2)OO,pubchem
233,tris(2-methylphenyl) phosphate,498.15,1.0,CC1=CC=CC=C1OP(=O)(OC2=CC=CC=C2C)OC3=CC=CC=C3C,pubchem
234,tris(4-methylphenyl) phosphate,483.15,1.0,CC1=CC=C(C=C1)OP(=O)(OC2=CC=C(C=C2)C)OC3=CC=C(C=C3)C,pubchem
235,1-[ethoxy(ethyl)phosphoryl]oxyethane,377.15,1.0,CCOP(=O)(CC)OCC,pubchem
236,triethyl phosphate,389.15,1.0,CCOP(=O)(OCC)OCC,pubchem
237,tris(2-ethylhexyl) phosphate,425.15,1.0,CCCCC(CC)COP(=O)(OCC(CC)CCCC)OCC(CC)CCCC,pubchem
238,1-[butoxy(butyl)phosphoryl]oxybutane,427.15,1.0,CCCCOP(=O)(CCCC)OCCCC,pubchem
239,tris(2-butoxyethyl) phosphate,497.15,1.0,CCCCOCCOP(=O)(OCCOCCCC)OCCOCCCC,pubchem
240,"3,5,5-trimethylcyclohex-2-en-1-one",357.15,1.0,CC1=CC(=O)CC(C1)(C)C,pubchem
241,"2,5-bis(tert-butylperoxy)-2,5-dimethylhexane",358.15,1.0,CC(C)(C)OOC(C)(C)CCC(C)(C)OOC(C)(C)C,pubchem
242,"3,7-dimethylocta-1,6-dien-3-ol",351.15,1.0,CC(=CCCC(C)(C=C)O)C,pubchem
243,2-bromobutane,294.15,1.0,CCC(C)Br,pubchem
244,2-methylbutane,216.15,1.0,CCC(C)C,pubchem
245,"2-methylbuta-1,3-diene",219.15,1.0,CC(=C)C=C,pubchem
246,2-methylpropan-1-amine,264.15,1.0,CC(C)CN,pubchem
247,2-methylpropanenitrile,281.15,1.0,CC(C)C#N,pubchem
248,2-methylpropan-1-ol,301.15,1.0,CC(C)CO,pubchem
249,2-methylpropanal,233.15,1.0,CC(C)C=O,pubchem
250,2-methylprop-2-enal,275.15,1.0,CC(=C)C=O,pubchem
251,"1,2-dichloropropane",289.15,1.0,CC(CCl)Cl,pubchem
252,"2,3-dichloroprop-1-ene",283.15,1.0,C=C(CCl)Cl,pubchem
253,2-chloropropan-1-ol,325.15,1.0,CC(CO)Cl,pubchem
254,"propane-1,2-diamine",306.15,1.0,CC(CN)N,pubchem
255,butan-2-ol,297.15,1.0,CCC(C)O,pubchem
256,butan-2-one,270.15,1.0,CCC(=O)C,pubchem
257,but-3-en-2-one,266.15,1.0,CC(=O)C=C,pubchem
258,1-chloropropan-2-one,313.15,1.0,CC(=O)CCl,pubchem
259,2-hydroxypropanenitrile,350.15,1.0,CC(C#N)O,pubchem
260,"1,1-dichloropropane",294.15,1.0,CCC(Cl)Cl,pubchem
261,"2,2-dichloroacetaldehyde",333.15,1.0,C(=O)C(Cl)Cl,pubchem
262,2-chloroacetyl chloride,373.15,1.0,C(C(=O)Cl)Cl,pubchem
263,prop-2-enamide,411.15,1.0,C=CC(=O)N,pubchem
264,2-chloroacetamide,443.15,1.0,C(C(=O)N)Cl,pubchem
265,prop-2-enoic acid,327.15,1.0,C=CC(=O)O,pubchem
266,N-methylacetamide,381.15,1.0,CC(=O)NC,pubchem
267,methyl acetate,263.15,1.0,CC(=O)OC,pubchem
268,ethaneperoxoic acid,314.15,1.0,CC(=O)OO,pubchem
269,methyl carbonochloridate,285.15,1.0,COC(=O)Cl,pubchem
270,1-nitroethane,314.15,1.0,CC[N+](=O)[O-],pubchem
271,"1,1,2,2-tetrabromoethane",608.15,1.0,C(C(Br)Br)(Br)Br,pubchem
272,"2,3-dimethylbutane",244.15,1.0,CC(C)C(C)C,pubchem
273,2-methylpropanoic acid,329.15,1.0,CC(C)C(=O)O,pubchem
274,"2,2-dichloroacetyl chloride",339.15,1.0,C(C(=O)Cl)(Cl)Cl,pubchem
275,"1-chloro-1,2,2-trifluoroethene",246.15,1.0,C(=C(F)Cl)(F)F,pubchem
276,"N,N-dimethylcarbamoyl chloride",341.15,1.0,CN(C)C(=O)Cl,pubchem
277,"2,2-dimethyl-3-methylidenebicyclo[2.2.1]heptane",306.15,1.0,CC1(C2CCC(C2)C1=C)C,pubchem
278,4-[2-(4-hydroxyphenyl)propan-2-yl]phenol,352.15,1.0,CC(C)(C1=CC=C(C=C1)O)C2=CC=C(C=C2)O,pubchem
279,dichloro(diphenyl)silane,415.15,1.0,C1=CC=C(C=C1)[Si](C2=CC=CC=C2)(Cl)Cl,pubchem
280,2-hydroperoxypropan-2-ylbenzene,330.15,1.0,CC(C)(C1=CC=CC=C1)OO,pubchem
281,ethyl 4-methylbenzenesulfonate,431.15,1.0,CCOS(=O)(=O)C1=CC=C(C=C1)C,pubchem
282,4-(2-methylbutan-2-yl)phenol,384.15,1.0,CCC(C)(C)C1=CC=C(C=C1)O,pubchem
283,1-(2-hydroperoxypropan-2-yl)-4-methylcyclohexane,326.15,1.0,CC1CCC(CC1)C(C)(C)OO,pubchem
284,methyl 4-methylbenzenesulfonate,425.15,1.0,CC1=CC=C(C=C1)S(=O)(=O)OC,pubchem
285,4-(2-aminopropan-2-yl)-1-methylcyclohexan-1-amine,366.15,1.0,CC1(CCC(CC1)C(C)(C)N)N,pubchem
286,"2,6,6-trimethylbicyclo[3.1.1]hept-2-ene",306.15,1.0,CC1=CCC2CC1C2(C)C,pubchem
287,methyl 2-methylprop-2-enoate,283.15,1.0,CC(=C)C(=O)OC,pubchem
288,"1,3-dimethyl-2-nitrobenzene",361.15,1.0,CC1=C(C(=CC=C1)C)[N+](=O)[O-],pubchem
289,"3-oxatricyclo[7.3.1.05,13]trideca-1(12),5,7,9(13),10-pentaene-2,4-dione",545.15,1.0,C1=CC2=C3C(=C1)C(=O)OC(=O)C3=CC=C2,pubchem
290,"1,2,3,4,5-pentachloro-6-nitrobenzene",400.15,1.0,C1(=C(C(=C(C(=C1Cl)Cl)Cl)Cl)Cl)[N+](=O)[O-],pubchem
291,"1,2-dihydroacenaphthylene",398.15,1.0,C1CC2=CC=CC3=C2C1=CC=C3,pubchem
292,"2,6-dichlorobenzaldehyde",408.15,1.0,C1=CC(=C(C(=C1)Cl)C=O)Cl,pubchem
293,"1,2-dimethyl-3-nitrobenzene",380.15,1.0,CC1=C(C(=CC=C1)[N+](=O)[O-])C,pubchem
294,"naphthalene-1,5-diol",525.15,1.0,C1=CC2=C(C=CC=C2O)C(=C1)O,pubchem
295,"1,2-diphenylbenzene",436.15,1.0,C1=CC=C(C=C1)C2=CC=CC=C2C3=CC=CC=C3,pubchem
296,"dicyclohexyl benzene-1,2-dicarboxylate",480.15,1.0,C1CCC(CC1)OC(=O)C2=CC=CC=C2C(=O)OC3CCCCC3,pubchem