compound,smiles,flashpoint,source,pure substance
"2,3-dimethylaniline",CC1=C(C(=CC=C1)N)C,370.15,pubchem,1
"1,2,3-trichlorobenzene",C1=CC(=C(C(=C1)Cl)Cl)Cl,385.15,pubchem,1
"2,6-dimethylaniline",CC1=C(C(=CC=C1)C)N,364.15,pubchem,1
"1,1,2,3,4,4-hexachlorobuta-1,3-diene",C(=C(Cl)Cl)(C(=C(Cl)Cl)Cl)Cl,363.15,pubchem,1
"2,4,6-trichlorophenol",C1=C(C=C(C(=C1Cl)O)Cl)Cl,372.15,pubchem,1
1-ethenylpyrrolidin-2-one,C=CN1CCCC1=O,366.15,pubchem,1
2-tert-butylphenol,CC(C)(C)C1=CC=CC=C1O,383.15,pubchem,1
2-propan-2-ylphenol,CC(C)C1=CC=CC=C1O,377.15,pubchem,1
1-methyl-2-nitrobenzene,CC1=CC=CC=C1[N+](=O)[O-],379.15,pubchem,1
1-chloro-2-nitrobenzene,C1=CC=C(C(=C1)[N+](=O)[O-])Cl,400.15,pubchem,1
2-nitroaniline,C1=CC=C(C(=C1)N)[N+](=O)[O-],441.15,pubchem,1
2-nitrophenol,C1=CC=C(C(=C1)[N+](=O)[O-])O,381.15,pubchem,1
"2,4,6-trinitrophenol",C1=C(C=C(C(=C1[N+](=O)[O-])O)[N+](=O)[O-])[N+](=O)[O-],423.15,pubchem,1
"1,4-dichloro-2-nitrobenzene",C1=CC(=C(C=C1Cl)[N+](=O)[O-])Cl,408.15,pubchem,1
4-methyl-2-nitroaniline,CC1=CC(=C(C=C1)N)[N+](=O)[O-],430.15,pubchem,1
2-butan-2-ylphenol,CCC(C)C1=CC=CC=C1O,385.15,pubchem,1
5-methyl-2-propan-2-ylphenol,CC1=CC(=C(C=C1)C(C)C)O,383.15,pubchem,1
"2,4-dimethyl-1-nitrobenzene",CC1=CC(=C(C=C1)[N+](=O)[O-])C,380.15,pubchem,1
1-(bromomethyl)-2-methylbenzene,CC1=CC=CC=C1CBr,355.15,pubchem,1
2-chlorobenzaldehyde,C1=CC=C(C(=C1)C=O)Cl,361.15,pubchem,1
2-ethylphenol,CCC1=CC=CC=C1O,351.15,pubchem,1
2-hydroxybenzaldehyde,C1=CC=C(C(=C1)C=O)O,351.15,pubchem,1
2-methoxyaniline,COC1=CC=CC=C1N,372.15,pubchem,1
1-chloronaphthalene,C1=CC=C2C(=C1)C=CC=C2Cl,394.15,pubchem,1
naphthalen-1-ol,C1=CC=C2C(=C1)C=CC=C2O,426.15,pubchem,1
2-phenylphenol,C1=CC=C(C=C1)C2=CC=CC=C2O,397.15,pubchem,1
"2,4,6-tris[(dimethylamino)methyl]phenol",CN(C)CC1=CC(=C(C(=C1)CN(C)C)O)CN(C)C,397.15,pubchem,1
"1,3-diisocyanato-2-methylbenzene",CC1=C(C=CC=C1N=C=O)N=C=O,405.15,pubchem,1
"benzene-1,2-dicarbonitrile",C1=CC=C(C(=C1)C#N)C#N,435.15,pubchem,1
"1,2,3,4,4a,5,6,7,8,8a-decahydronaphthalene",C1CCC2CCCCC2C1,330.15,pubchem,1
quinoline,C1=CC=C2C(=C1)C=CC=N2,332.15,pubchem,1
1-methoxy-2-nitrobenzene,COC1=CC=CC=C1[N+](=O)[O-],415.15,pubchem,1
N-butyl-N-phenylacetamide,CCCCN(C1=CC=CC=C1)C(=O)C,414.15,pubchem,1
2-methylnaphthalene,CC1=CC2=CC=CC=C2C=C1,371.15,pubchem,1
2-chloronaphthalene,C1=CC=C2C=C(C=CC2=C1)Cl,398.15,pubchem,1
naphthalen-2-amine,C1=CC=C2C=C(C=CC2=C1)N,430.15,pubchem,1
2-methylquinoline,CC1=NC2=CC=CC=C2C=C1,352.15,pubchem,1
"N,N-diethylaniline",CCN(CC)C1=CC=CC=C1,358.15,pubchem,1
"1,3-diphenylbenzene",C1=CC=C(C=C1)C2=CC(=CC=C2)C3=CC=CC=C3,464.15,pubchem,1
6-methylchromen-2-one,CC1=CC2=C(C=C1)OC(=O)C=C2,403.15,pubchem,1
"1,1'-biphenyl",C1=CC=C(C=C1)C2=CC=CC=C2,386.15,pubchem,1
1-bromo-4-phenylbenzene,C1=CC=C(C=C1)C2=CC=C(C=C2)Br,416.15,pubchem,1
4-phenylphenol,C1=CC=C(C=C1)C2=CC=C(C=C2)O,439.15,pubchem,1
10H-phenothiazine,C1=CC=C2C(=C1)NC3=CC=CC=C3S2,475.15,pubchem,1
1-nitro-4-phenylbenzene,C1=CC=C(C=C1)C2=CC=C(C=C2)[N+](=O)[O-],416.15,pubchem,1
"1,4-diphenylbenzene",C1=CC=C(C=C1)C2=CC=C(C=C2)C3=CC=CC=C3,480.15,pubchem,1
"1,2-dimethoxy-4-prop-2-enylbenzene",COC1=C(C=C(C=C1)CC=C)OC,372.15,pubchem,1
methyl benzoate,COC(=O)C1=CC=CC=C1,356.15,pubchem,1
"2-chloro-N,N-bis(prop-2-enyl)acetamide",C=CCN(CC=C)C(=O)CCl,459.15,pubchem,1
butyl 4-hydroxybenzoate,CCCCOC(=O)C1=CC=C(C=C1)O,454.15,pubchem,1
benzoyl benzenecarboperoxoate,C1=CC=C(C=C1)C(=O)OOC(=O)C2=CC=CC=C2,353.15,pubchem,1
"2-ethylhexane-1,3-diol",CCCC(C(CC)CO)O,400.15,pubchem,1
2-[2-[2-(2-ethylbutanoyloxy)ethoxy]ethoxy]ethyl 2-ethylbutanoate,CCC(CC)C(=O)OCCOCCOCCOC(=O)C(CC)CC,469.15,pubchem,1
1H-indene,C1C=CC2=CC=CC=C21,351.15,pubchem,1
2H-benzotriazole,C1=CC2=NNN=C2C=C1,443.15,pubchem,1
1-bromo-2-methylbenzene,CC1=CC=CC=C1Br,352.15,pubchem,1
"1,2-xylene",CC1=CC=CC=C1C,290.15,pubchem,1
1-chloro-2-methylbenzene,CC1=CC=CC=C1Cl,325.15,pubchem,1
"1,2-dichlorobenzene",C1=CC=C(C(=C1)Cl)Cl,339.15,pubchem,1
2-chloroaniline,C1=CC=C(C(=C1)N)Cl,371.15,pubchem,1
1-fluoro-2-methylbenzene,CC1=CC=CC=C1F,286.15,pubchem,1
2-methylaniline,CC1=CC=CC=C1N,358.15,pubchem,1
"benzene-1,2-diamine",C1=CC=C(C(=C1)N)N,429.15,pubchem,1
2-bromophenol,C1=CC=C(C(=C1)O)Br,315.15,pubchem,1
2-chlorophenol,C1=CC=C(C(=C1)O)Cl,337.15,pubchem,1
"1,2,4-trimethylbenzene",CC1=CC(=C(C=C1)C)C,317.15,pubchem,1
"3,4-dimethylaniline",CC1=C(C=C(C=C1)N)C,371.15,pubchem,1
"2,4-dimethylaniline",CC1=CC(=C(C=C1)N)C,369.15,pubchem,1
4-chloro-2-methylaniline,CC1=C(C=CC(=C1)Cl)N,433.15,pubchem,1
"2,4-dichloro-1-methylbenzene",CC1=C(C=C(C=C1)Cl)Cl,472.15,pubchem,1
3-chloro-4-methylaniline,CC1=C(C=C(C=C1)N)Cl,373.15,pubchem,1
"3,4-dichloroaniline",C1=CC(=C(C=C1N)Cl)Cl,439.15,pubchem,1
"2,5-dimethylaniline",CC1=CC(=C(C=C1)C)N,367.15,pubchem,1
"4-methylbenzene-1,3-diamine",CC1=C(C=C(C=C1)N)N,422.15,pubchem,1
"2,5-dichloroaniline",C1=CC(=C(C=C1Cl)N)Cl,386.15,pubchem,1
2-amino-4-chlorophenol,C1=CC(=C(C=C1Cl)N)O,443.15,pubchem,1
diethyl oxalate,CCOC(=O)C(=O)OCC,349.15,pubchem,1
"1,2,4,5-tetramethylbenzene",CC1=CC(=C(C=C1C)C)C,327.15,pubchem,1
"1,2,4,5-tetrachlorobenzene",C1=C(C(=CC(=C1Cl)Cl)Cl)Cl,428.15,pubchem,1
"2,4,5-trichlorophenol",C1=C(C(=CC(=C1Cl)Cl)Cl)O,406.15,pubchem,1
2-phenyloxirane,C1C(O1)C2=CC=CC=C2,352.15,pubchem,1
chloro(diethyl)alumane,CC[Al](CC)Cl,250.14999999999998,pubchem,1
"1,2-dibromo-3-chloropropane",C(C(CBr)Br)Cl,350.15,pubchem,1
"1,2,3-trichloropropane",C(C(CCl)Cl)Cl,355.15,pubchem,1
"1,2,3-trichloroprop-1-ene",C(C(=CCl)Cl)Cl,358.15,pubchem,1
pentan-3-one,CCC(=O)CC,286.15,pubchem,1
"1,3-dichloropropan-2-ol",C(C(CCl)O)Cl,347.15,pubchem,1
"3-chloropropane-1,2-diol",C(C(CCl)O)O,332.15,pubchem,1
N-butan-2-ylidenehydroxylamine,CCC(=NO)C,332.15,pubchem,1
"1,3-dimethylurea",CNC(=O)NC,427.15,pubchem,1
methyl prop-2-enoate,COC(=O)C=C,280.15,pubchem,1
methyl 2-chloroacetate,COC(=O)CCl,325.15,pubchem,1
methylcyclopentane,CC1CCCC1,249.14999999999998,pubchem,1
cyclopentanol,C1CCC(C1)O,324.15,pubchem,1
oxolan-2-one,C1CC(=O)OC1,371.15,pubchem,1
"1,3-dioxolan-2-one",C1COC(=O)O1,416.15,pubchem,1
2-tert-butyl-4-(5-tert-butyl-4-hydroxy-2-methylphenyl)sulfanyl-5-methylphenol,CC1=CC(=C(C=C1SC2=CC(=C(C=C2C)O)C(C)(C)C)C(C)(C)C)O,489.15,pubchem,1
2-[di(propan-2-yl)amino]ethanol,CC(C)N(CCO)C(C)C,352.15,pubchem,1
"2,4-dinitroaniline",C1=CC(=C(C=C1[N+](=O)[O-])[N+](=O)[O-])N,497.15,pubchem,1
(2-methyl-5-prop-1-en-2-ylcyclohex-2-en-1-yl) acetate,CC1=CCC(CC1OC(=O)C)C(=C)C,370.15,pubchem,1
ethyl 2-methylprop-2-enoate,CCOC(=O)C(=C)C,289.15,pubchem,1
ethyl 2-hydroxypropanoate,CCOC(=O)C(C)O,319.15,pubchem,1
2-methylpropanoyl 2-methylpropanoate,CC(C)C(=O)OC(=O)C(C)C,332.15,pubchem,1
"1-N,1-N,3-N,3-N-tetramethylbutane-1,3-diamine",CC(CCN(C)C)N(C)C,319.15,pubchem,1
2-methylpropyl 2-methylpropanoate,CC(C)COC(=O)C(C)C,310.15,pubchem,1
2-methylpropyl 2-methylprop-2-enoate,CC(C)COC(=O)C(=C)C,322.15,pubchem,1
butyl 2-methylprop-2-enoate,CCCCOC(=O)C(=C)C,325.15,pubchem,1
2-(2-methylprop-2-enoyloxy)ethyl 2-methylprop-2-enoate,CC(=C)C(=O)OCCOC(=O)C(=C)C,374.15,pubchem,1
triethylborane,B(CC)(CC)CC,237.14999999999998,pubchem,1
2-ethylbutan-1-ol,CCC(CC)CO,326.15,pubchem,1
2-ethylbutanal,CCC(CC)C=O,294.15,pubchem,1
oxolan-2-ylmethanol,C1CC(OC1)CO,348.15,pubchem,1
furan-2-ylmethanol,C1=COC(=C1)CO,348.15,pubchem,1
furan-2-carbaldehyde,C1=COC(=C1)C=O,333.15,pubchem,1
tert-butylbenzene,CC(C)(C)C1=CC=CC=C1,333.15,pubchem,1
trichloromethylbenzene,C1=CC=C(C=C1)C(Cl)(Cl)Cl,400.15,pubchem,1
trifluoromethylbenzene,C1=CC=C(C=C1)C(F)(F)F,285.15,pubchem,1
benzenesulfonic acid,C1=CC=C(C=C1)S(=O)(=O)O,386.15,pubchem,1
trichloro(phenyl)silane,C1=CC=C(C=C1)[Si](Cl)(Cl)Cl,364.15,pubchem,1
1-chloro-3-(trifluoromethyl)benzene,C1=CC(=CC(=C1)Cl)C(F)(F)F,320.15,pubchem,1
3-(trifluoromethyl)aniline,C1=CC(=CC(=C1)N)C(F)(F)F,358.15,pubchem,1
1-nitro-3-(trifluoromethyl)benzene,C1=CC(=CC(=C1)[N+](=O)[O-])C(F)(F)F,374.15,pubchem,1
1-tert-butyl-4-methylbenzene,CC1=CC=C(C=C1)C(C)(C)C,331.15,pubchem,1
4-tert-butylphenol,CC(C)(C)C1=CC=C(C=C1)O,386.15,pubchem,1
1-chloro-4-(trifluoromethyl)benzene,C1=CC(=CC=C1C(F)(F)F)Cl,320.15,pubchem,1
4-methylbenzenesulfonyl chloride,CC1=CC=C(C=C1)S(=O)(=O)Cl,401.15,pubchem,1
cumene,CC(C)C1=CC=CC=C1,309.15,pubchem,1
prop-1-en-2-ylbenzene,CC(=C)C1=CC=CC=C1,327.15,pubchem,1
1-phenylethanamine,CC(C1=CC=CC=C1)N,352.15,pubchem,1
1-phenylethanol,CC(C1=CC=CC=C1)O,358.15,pubchem,1
1-phenylethanone,CC(=O)C1=CC=CC=C1,355.15,pubchem,1
dichloromethylbenzene,C1=CC=C(C=C1)C(Cl)Cl,365.15,pubchem,1
benzoyl chloride,C1=CC=C(C=C1)C(=O)Cl,345.15,pubchem,1
"N,N-dimethylcyclohexanamine",CN(C)C1CCCCC1,315.15,pubchem,1
nitrobenzene,C1=CC=C(C=C1)[N+](=O)[O-],361.15,pubchem,1
1-methyl-3-nitrobenzene,CC1=CC(=CC=C1)[N+](=O)[O-],379.15,pubchem,1
"1,2-dimethyl-4-nitrobenzene",CC1=C(C=C(C=C1)[N+](=O)[O-])C,380.15,pubchem,1
"1,2-dichloro-4-nitrobenzene",C1=CC(=C(C=C1[N+](=O)[O-])Cl)Cl,397.15,pubchem,1
"benzene-1,3-dicarbonyl chloride",C1=CC(=CC(=C1)C(=O)Cl)C(=O)Cl,453.15,pubchem,1
"1,3-dinitrobenzene",C1=CC(=CC(=C1)[N+](=O)[O-])[N+](=O)[O-],423.15,pubchem,1
methyl 4-methylbenzoate,CC1=CC=C(C=C1)C(=O)OC,369.15,pubchem,1
1-methyl-4-propan-2-ylbenzene,CC1=CC=C(C=C1)C(C)C,320.15,pubchem,1
"N,N,4-trimethylaniline",CC1=CC=C(C=C1)N(C)C,349.15,pubchem,1
"4-N,4-N-dimethylbenzene-1,4-diamine",CN(C)C1=CC=C(C=C1)N,364.15,pubchem,1
1-methyl-4-nitrobenzene,CC1=CC=C(C=C1)[N+](=O)[O-],379.15,pubchem,1
1-chloro-4-nitrobenzene,C1=CC(=CC=C1[N+](=O)[O-])Cl,383.15,pubchem,1
4-nitroaniline,C1=CC(=CC=C1N)[N+](=O)[O-],472.15,pubchem,1
1-(4-methoxyphenyl)ethanone,CC(=O)C1=CC=C(C=C1)OC,411.15,pubchem,1
"benzene-1,4-dicarbonyl chloride",C1=CC(=CC=C1C(=O)Cl)C(=O)Cl,453.15,pubchem,1
terephthalic acid,C1=CC(=CC=C1C(=O)O)C(=O)O,533.15,pubchem,1
"1,4-dinitrobenzene",C1=CC(=CC=C1[N+](=O)[O-])[N+](=O)[O-],423.15,pubchem,1
2-(diethylamino)ethanol,CCN(CC)CCO,333.15,pubchem,1
bromomethylbenzene,C1=CC=C(C=C1)CBr,360.15,pubchem,1
4-ethenylcyclohexene,C=CC1CCC=CC1,289.15,pubchem,1
ethylbenzene,CCC1=CC=CC=C1,288.15,pubchem,1
styrene,C=CC1=CC=CC=C1,304.15,pubchem,1
chloromethylbenzene,C1=CC=C(C=C1)CCl,340.15,pubchem,1
phenylmethanamine,C1=CC=C(C=C1)CN,349.15,pubchem,1
benzonitrile,C1=CC=C(C=C1)C#N,345.15,pubchem,1
cyclohex-3-ene-1-carbaldehyde,C1CC(CC=C1)C=O,330.15,pubchem,1
phenylmethanethiol,C1=CC=C(C=C1)CS,343.15,pubchem,1
N-methylaniline,CNC1=CC=CC=C1,352.15,pubchem,1
phenylhydrazine,C1=CC=C(C=C1)NN,361.15,pubchem,1
anisole,COC1=CC=CC=C1,325.15,pubchem,1
2-ethenylpyridine,C=CC1=CC=CC=N1,315.15,pubchem,1
4-ethylmorpholine,CCN1CCOCC1,301.15,pubchem,1
"(2,2-dimethyl-1,3-dioxolan-4-yl)methanol",CC1(OCC(O1)CO)C,353.15,pubchem,1
1-ethenyl-3-methylbenzene,CC1=CC=CC(=C1)C=C,333.15,pubchem,1
triphenyl phosphite,C1=CC=C(C=C1)OP(OC2=CC=CC=C2)OC3=CC=CC=C3,491.15,pubchem,1
4-[(4-amino-3-chlorophenyl)methyl]-2-chloroaniline,C1=CC(=C(C=C1CC2=CC(=C(C=C2)N)Cl)Cl)N,386.15,pubchem,1
4-chlorobut-2-ynyl N-(3-chlorophenyl)carbamate,C1=CC(=CC(=C1)Cl)NC(=O)OCC#CCCl,323.15,pubchem,1
2-methyl-3-phenylprop-2-enal,CC(=CC1=CC=CC=C1)C=O,352.15,pubchem,1
"4-N-phenylbenzene-1,4-diamine",C1=CC=C(C=C1)NC2=CC=C(C=C2)N,466.15,pubchem,1
"4-[[4-(dimethylamino)phenyl]methyl]-N,N-dimethylaniline",CN(C)C1=CC=C(C=C1)CC2=CC=C(C=C2)N(C)C,484.15,pubchem,1
4-octyl-N-(4-octylphenyl)aniline,CCCCCCCCC1=CC=C(C=C1)NC2=CC=C(C=C2)CCCCCCCC,486.15,pubchem,1
1-isocyanato-4-[(4-isocyanatophenyl)methyl]benzene,C1=CC(=CC=C1CC2=CC=C(C=C2)N=C=O)N=C=O,491.15,pubchem,1
"1-N-phenyl-4-N-propan-2-ylbenzene-1,4-diamine",CC(C)NC1=CC=C(C=C1)NC2=CC=CC=C2,424.15,pubchem,1
4-[(4-aminophenyl)methyl]aniline,C1=CC(=CC=C1CC2=CC=C(C=C2)N)N,494.15,pubchem,1
4-(4-aminophenoxy)aniline,C1=CC(=CC=C1N)OC2=CC=C(C=C2)N,492.15,pubchem,1
benzylbenzene,C1=CC=C(C=C1)CC2=CC=CC=C2,403.15,pubchem,1
phenoxybenzene,C1=CC=C(C=C1)OC2=CC=CC=C2,388.15,pubchem,1
2-[[3-(oxiran-2-ylmethoxy)phenoxy]methyl]oxirane,C1C(O1)COC2=CC(=CC=C2)OCC3CO3,450.15,pubchem,1
"1-N,4-N-di(butan-2-yl)benzene-1,4-diamine",CCC(C)NC1=CC=C(C=C1)NC(C)CC,414.15,pubchem,1
ethyl 2-phenylacetate,CCOC(=O)CC1=CC=CC=C1,372.15,pubchem,1
3-oxo-N-phenylbutanamide,CC(=O)CC(=O)NC1=CC=CC=C1,436.15,pubchem,1
"1,2-diphenylguanidine",C1=CC=C(C=C1)NC(=NC2=CC=CC=C2)N,471.15,pubchem,1
"InChI=1S/C5H6/c1-2-4-5-3-1/h1-4H,5H2",C1C=CC=C1,298.15,pubchem,1
"N,N-dipropylpropan-1-amine",CCCN(CCC)CCC,310.15,pubchem,1
"N,N-bis(prop-2-enyl)prop-2-en-1-amine",C=CCN(CC=C)CC=C,312.15,pubchem,1
2-[bis(2-hydroxyethyl)amino]ethanol,C(CO)N(CCO)CCO,458.15,pubchem,1
2-(dibutylamino)ethanol,CCCCN(CCCC)CCO,372.15,pubchem,1
"N,N-dibutylbutan-1-amine",CCCCN(CCCC)CCCC,358.15,pubchem,1
2-ethylhexyl acetate,CCCCC(CC)COC(=O)C,361.15,pubchem,1
2-ethylhexyl prop-2-enoate,CCCCC(CC)COC(=O)C=C,355.15,pubchem,1
bis(2-ethylhexyl) hexanedioate,CCCCC(CC)COC(=O)CCCCC(=O)OCC(CC)CCCC,469.15,pubchem,1
4-(morpholin-4-yldisulfanyl)morpholine,C1COCCN1SSN2CCOCC2,394.15,pubchem,1
phenylmethoxymethylbenzene,C1=CC=C(C=C1)COCC2=CC=CC=C2,408.15,pubchem,1
propylbenzene,CCCC1=CC=CC=C1,321.15,pubchem,1
N-ethylaniline,CCNC1=CC=CC=C1,358.15,pubchem,1
isocyanatobenzene,C1=CC=C(C=C1)N=C=O,329.15,pubchem,1
ethoxybenzene,CCOC1=CC=CC=C1,336.15,pubchem,1
"2-ethoxy-3,4-dihydro-2H-pyran",CCOC1CCC=CO1,310.15,pubchem,1
"N,N-dimethyl-1-phenylmethanamine",CN(C)CC1=CC=CC=C1,330.15,pubchem,1
N-(4-methylphenyl)acetamide,CC1=CC=C(C=C1)NC(=O)C,441.15,pubchem,1
1-chloro-4-isocyanatobenzene,C1=CC(=CC=C1N=C=O)Cl,383.15,pubchem,1
butylbenzene,CCCCC1=CC=CC=C1,344.15,pubchem,1
decylbenzene,CCCCCCCCCCC1=CC=CC=C1,380.15,pubchem,1
2-ethylhexan-1-amine,CCCCC(CC)CN,333.15,pubchem,1
2-ethylhexan-1-ol,CCCCC(CC)CO,354.15,pubchem,1
1-(bromomethyl)-4-methylbenzene,CC1=CC=C(C=C1)CBr,371.15,pubchem,1
4-methylbenzonitrile,CC1=CC=C(C=C1)C#N,358.15,pubchem,1
4-chlorobenzaldehyde,C1=CC(=CC=C1C=O)Cl,361.15,pubchem,1
5-ethyl-2-methylpyridine,CCC1=CN=C(C=C1)C,341.15,pubchem,1
4-methoxyaniline,COC1=CC=C(C=C1)N,278.15,pubchem,1
"1,4-diethylbenzene",CCC1=CC=C(C=C1)CC,329.15,pubchem,1
[4-(hydroxymethyl)cyclohexyl]methanol,C1CC(CCC1CO)CO,439.15,pubchem,1
2-methylpentan-1-ol,CCCC(C)CO,327.15,pubchem,1
ethyl 2-bromoacetate,CCOC(=O)CBr,321.15,pubchem,1
ethyl propanoate,CCC(=O)OCC,285.15,pubchem,1
ethyl 2-chloroacetate,CCOC(=O)CCl,311.15,pubchem,1
ethyl N-methylcarbamate,CCOC(=O)NC,346.15,pubchem,1
methyl 3-oxobutanoate,CC(=O)CC(=O)OC,343.15,pubchem,1
butan-2-yl acetate,CCC(C)OC(=O)C,290.15,pubchem,1
diethyl propanedioate,CCOC(=O)CC(=O)OCC,366.15,pubchem,1
ethyl butanoate,CCCC(=O)OCC,297.15,pubchem,1
ethyl 2-cyanoacetate,CCOC(=O)CC#N,383.15,pubchem,1
"1,1-diethoxyethane",CCOC(C)OCC,252.14999999999998,pubchem,1
diethyl carbonate,CCOC(=O)OCC,298.15,pubchem,1
2-[2-hydroxyethyl(methyl)amino]ethanol,CN(CCO)CCO,400.15,pubchem,1
azepan-2-one,C1CCC(=O)NCC1,398.15,pubchem,1
dibutyl hexanedioate,CCCCOC(=O)CCCCC(=O)OCCCC,386.15,pubchem,1
2-ethyl-N-(2-ethylhexyl)hexan-1-amine,CCCCC(CC)CNCC(CC)CCCC,405.15,pubchem,1
"3,7-dimethyloct-6-enal",CC(CCC=C(C)C)CC=O,347.15,pubchem,1
butanoyl butanoate,CCCC(=O)OC(=O)CCC,355.15,pubchem,1
heptan-3-one,CCCCC(=O)CC,319.15,pubchem,1
1-bromo-4-methylbenzene,CC1=CC=C(C=C1)Br,358.15,pubchem,1
"1,4-xylene",CC1=CC=C(C=C1)C,300.15,pubchem,1
1-chloro-4-methylbenzene,CC1=CC=C(C=C1)Cl,413.15,pubchem,1
4-chloroaniline,C1=CC(=CC=C1N)Cl,386.15,pubchem,1
4-methylaniline,CC1=CC=C(C=C1)N,360.15,pubchem,1
"benzene-1,4-diamine",C1=CC(=CC=C1N)N,428.15,pubchem,1
2-methylpropyl prop-2-enoate,CC(C)COC(=O)C=C,303.15,pubchem,1
dimethyl butanedioate,COC(=O)CCC(=O)OC,358.15,pubchem,1
5-methylheptan-3-one,CCC(C)CC(=O)CC,316.15,pubchem,1
methyl hexanoate,CCCCCC(=O)OC,346.15,pubchem,1
2-cyanoethyl prop-2-enoate,C=CC(=O)OCCC#N,397.15,pubchem,1
2-(2-carbonochloridoyloxyethoxy)ethyl carbonochloridate,C(COC(=O)Cl)OCCOC(=O)Cl,568.15,pubchem,1
octyl 8-(3-octyloxiran-2-yl)octanoate,CCCCCCCCC1C(O1)CCCCCCCC(=O)OCCCCCCCC,490.15,pubchem,1
3-(oxiran-2-yl)-7-oxabicyclo[4.1.0]heptane,C1CC2C(O2)CC1C3CO3,383.15,pubchem,1
2-ethyloxirane,CCC1CO1,261.15,pubchem,1
2-(chloromethyl)oxirane,C1C(O1)CCl,307.15,pubchem,1
oxiran-2-ylmethyl prop-2-enoate,C=CC(=O)OCC1CO1,334.15,pubchem,1
oxiran-2-ylmethyl 2-methylprop-2-enoate,CC(=C)C(=O)OCC1CO1,356.15,pubchem,1
2-(prop-2-enoxymethyl)oxirane,C=CCOCC1CO1,330.15,pubchem,1
1-bromopropane,CCCBr,299.15,pubchem,1
3-bromoprop-1-ene,C=CCBr,271.15,pubchem,1
3-bromoprop-1-yne,C#CCBr,283.15,pubchem,1
butane,CCCC,213.14999999999998,pubchem,1
but-1-ene,CCC=C,194.14999999999998,pubchem,1
"buta-1,3-diene",C=CC=C,197.14999999999998,pubchem,1
prop-2-enal,C=CC=O,247.14999999999998,pubchem,1
propane-1-thiol,CCCS,258.15,pubchem,1
3-chloroprop-1-ene,C=CCCl,241.14999999999998,pubchem,1
propan-1-amine,CCCN,236.14999999999998,pubchem,1
prop-2-en-1-amine,C=CCN,244.14999999999998,pubchem,1
propanenitrile,CCC#N,275.15,pubchem,1
prop-2-enenitrile,C=CC#N,273.15,pubchem,1
2-chloroacetonitrile,C(C#N)Cl,321.15,pubchem,1
prop-2-en-1-ol,C=CCO,295.15,pubchem,1
prop-2-yn-1-ol,C#CCO,306.15,pubchem,1
oxaldehyde,C(=O)C=O,493.15,pubchem,1
methoxyethene,COC=C,217.14999999999998,pubchem,1
chloro(methoxy)methane,COCCl,273.15,pubchem,1
methyl formate,COC=O,241.14999999999998,pubchem,1
trichloro(prop-2-enyl)silane,C=CC[Si](Cl)(Cl)Cl,308.15,pubchem,1
"2,4,4-trimethylpent-1-ene",CC(=C)CC(C)(C)C,275.15,pubchem,1
"2,4,4-trimethylpent-2-ene",CC(=CC(C)(C)C)C,275.15,pubchem,1
"2-methylpentane-2,4-diol",CC(CC(C)(C)O)O,366.15,pubchem,1
dibutyl hydrogen phosphate,CCCCOP(=O)(O)OCCCC,461.15,pubchem,1
4-methoxy-4-methylpentan-2-one,CC(=O)CC(C)(C)OC,334.15,pubchem,1
trichloro(pentyl)silane,CCCCC[Si](Cl)(Cl)Cl,336.15,pubchem,1
2-bromopentane,CCCC(C)Br,294.15,pubchem,1
2-methylpentane,CCCC(C)C,244.14999999999998,pubchem,1
pentan-2-one,CCCC(=O)C,280.15,pubchem,1
"butane-1,3-diol",CC(CCO)O,394.15,pubchem,1
3-hydroxybutanal,CC(CC=O)O,339.15,pubchem,1
1-methoxypropan-2-ol,CC(COC)O,309.15,pubchem,1
2-(dimethylamino)ethanol,CN(C)CCO,314.15,pubchem,1
1-nitropropane,CCC[N+](=O)[O-],307.15,pubchem,1
ethenyl acetate,CC(=O)OC=C,265.15,pubchem,1
4-methylpentan-2-amine,CC(C)CC(C)N,286.15,pubchem,1
4-methylpentan-2-one,CC(C)CC(=O)C,296.15,pubchem,1
4-methylpentan-2-ol,CC(C)CC(C)O,314.15,pubchem,1
N-propan-2-ylpropan-2-amine,CC(C)NC(C)C,272.15,pubchem,1
2-propan-2-yloxypropane,CC(C)OC(C)C,245.14999999999998,pubchem,1
propan-2-yl acetate,CC(C)OC(=O)C,275.15,pubchem,1
prop-1-en-2-yl acetate,CC(=C)OC(=O)C,289.15,pubchem,1
propan-2-yl carbonochloridate,CC(C)OC(=O)Cl,289.15,pubchem,1
acetyl acetate,CC(=O)OC(=O)C,322.15,pubchem,1
5-methyloxolan-2-one,CC1CCC(=O)O1,354.15,pubchem,1
"oxolane-2,5-dione",C1CC(=O)OC1=O,430.15,pubchem,1
"furan-2,5-dione",C1=CC(=O)OC1=O,376.15,pubchem,1
"4-methyl-1,3-dioxolan-2-one",CC1COC(=O)O1,389.15,pubchem,1
"1,3-xylene",CC1=CC(=CC=C1)C,302.15,pubchem,1
1-chloro-3-methylbenzene,CC1=CC(=CC=C1)Cl,325.15,pubchem,1
3-chloroaniline,C1=CC(=CC(=C1)Cl)N,397.15,pubchem,1
3-methylaniline,CC1=CC(=CC=C1)N,359.15,pubchem,1
"benzene-1,3-diamine",C1=CC(=CC(=C1)N)N,411.15,pubchem,1
1-chloro-2-(1-chloropropan-2-yloxy)propane,CC(CCl)OC(C)CCl,358.15,pubchem,1
1-methoxypropan-2-yl acetate,CC(COC)OC(=O)C,319.15,pubchem,1
"1,3,5-trimethylbenzene",CC1=CC(=CC(=C1)C)C,323.15,pubchem,1
"3,5-dimethylphenol",CC1=CC(=CC(=C1)O)C,353.15,pubchem,1
"3,5-dimethylaniline",CC1=CC(=CC(=C1)N)C,366.15,pubchem,1
"1,3,5-trichlorobenzene",C1=C(C=C(C=C1Cl)Cl)Cl,380.15,pubchem,1
"2,4,6-trimethylpyridine",CC1=CC(=NC(=C1)C)C,331.15,pubchem,1
"2,6-dimethylheptan-4-ol",CC(C)CC(CC(C)C)O,347.15,pubchem,1
"2,6-dimethylheptan-4-one",CC(C)CC(=O)CC(C)C,333.15,pubchem,1
4-methylpentan-2-yl acetate,CC(C)CC(C)OC(=O)C,318.15,pubchem,1
bromobenzene,C1=CC=C(C=C1)Br,324.15,pubchem,1
methylcyclohexane,CC1CCCCC1,269.15,pubchem,1
4-methylpyridine,CC1=CC=NC=C1,330.15,pubchem,1
chlorobenzene,C1=CC=C(C=C1)Cl,297.15,pubchem,1
cyclohexanamine,C1CCC(CC1)N,304.15,pubchem,1
cyclohexanol,C1CCC(CC1)O,341.15,pubchem,1
cyclohexanone,C1CCC(=O)CC1,317.15,pubchem,1
benzenethiol,C1=CC=C(C=C1)S,326.15,pubchem,1
3-methylpyridine,CC1=CN=CC=C1,309.15,pubchem,1
4-methylmorpholine,CN1CCOCC1,297.15,pubchem,1
2-methylpyridine,CC1=CC=CC=N1,309.15,pubchem,1
butyl 3-methylbutanoate,CCCCOC(=O)CC(C)C,326.15,pubchem,1
butyl butanoate,CCCCOC(=O)CCC,326.15,pubchem,1