compound,smiles,flashpoint,source,pure substance
oxiran-2-ylmethanol,C1C(O1)CO,345.15,pubchem,1
methylimino(sulfanylidene)methane,CN=C=S,308.15,pubchem,1
"2,2,4,4,6,6,8,8-octamethyl-1,3,5,7,2,4,6,8-tetraoxatetrasilocane",C[Si]1(O[Si](O[Si](O[Si](O1)(C)C)(C)C)(C)C)C,328.15,pubchem,1
3-methylbut-2-en-1-ol,CC(=CCO)C,323.15,pubchem,1
zinc;octadecanoate,CCCCCCCCCCCCCCCCCC(=O)[O-].CCCCCCCCCCCCCCCCCC(=O)[O-].[Zn+2],550.15,pubchem,1
3-prop-2-enoxyprop-1-ene,C=CCOCC=C,266.15,pubchem,1
ethenol,C=CO,352.15,pubchem,1
4-methyl-1-propan-2-ylcyclohex-3-en-1-ol,CC1=CCC(CC1)(C(C)C)O,352.15,pubchem,1
tris(3-methylphenyl) phosphate,CC1=CC(=CC=C1)OP(=O)(OC2=CC=CC(=C2)C)OC3=CC=CC(=C3)C,483.15,pubchem,1
3-chloro-2-methylprop-1-ene,CC(=C)CCl,260.15,pubchem,1
3-methylbutan-2-one,CC(C)C(=O)C,279.15,pubchem,1
"2,6-dimethylphenol",CC1=C(C(=CC=C1)C)O,347.15,pubchem,1
"1,2-di(propan-2-yl)benzene",CC(C)C1=CC=CC=C1C(C)C,350.15,pubchem,1
2-ethylaniline,CCC1=CC=CC=C1N,358.15,pubchem,1
2-methylcyclohexan-1-ol,CC1CCCCC1O,332.15,pubchem,1
2-methylcyclohexan-1-one,CC1CCCCC1=O,321.15,pubchem,1
2-hydroxy-4-methylsulfanylbutanoic acid,CSCCC(C(=O)O)O,394.15,pubchem,1
pentan-3-ol,CCC(CC)O,303.15,pubchem,1
"butane-1,2-diol",CCC(CO)O,313.15,pubchem,1
"2,4-diisocyanato-1-methylbenzene",CC1=C(C=C(C=C1)N=C=O)N=C=O,405.15,pubchem,1
1-bromoethylbenzene,CC(C1=CC=CC=C1)Br,369.15,pubchem,1
1-methyl-4-propan-2-ylidenecyclohexene,CC1=CCC(=C(C)C)CC1,337.15,pubchem,1
N-phenylaniline,C1=CC=C(C=C1)NC2=CC=CC=C2,426.15,pubchem,1
4-methylcyclohexan-1-ol,CC1CCC(CC1)O,343.15,pubchem,1
butyl propanoate,CCCCOC(=O)CC,311.15,pubchem,1
1-methylcyclohexan-1-ol,CC1(CCCCC1)O,340.15,pubchem,1
3-methylbutanal,CC(C)CC=O,286.15,pubchem,1
1-bromo-3-methylbenzene,CC1=CC(=CC=C1)Br,333.15,pubchem,1
3-bromophenol,C1=CC(=CC(=C1)Br)O,383.15,pubchem,1
3-methylcyclohexan-1-ol,CC1CCCC(C1)O,335.15,pubchem,1
iodobenzene,C1=CC=C(C=C1)I,350.15,pubchem,1
2-methylhexane,CCCCC(C)C,255.14999999999998,pubchem,1
hexan-2-one,CCCCC(=O)C,296.15,pubchem,1
prop-2-enyl acetate,CC(=O)OCC=C,295.15,pubchem,1
"penta-1,4-diene",C=CCC=C,277.15,pubchem,1
2-methylheptane,CCCCCC(C)C,277.15,pubchem,1
hex-1-ene,CCCCC=C,247.14999999999998,pubchem,1
"cyclohexa-1,3-diene",C1CC=CC=C1,299.15,pubchem,1
acetyloxymethylimino-methyl-oxidoazanium,CC(=O)OCN=[N+](C)[O-],372.15,pubchem,1
hept-1-ene,CCCCCC=C,269.15,pubchem,1
butyl formate,CCCCOC=O,291.15,pubchem,1
tridecan-2-one,CCCCCCCCCCCC(=O)C,380.15,pubchem,1
octadecane,CCCCCCCCCCCCCCCCCC,373.15,pubchem,1
dimethylmercury,C[Hg]C,278.15,pubchem,1
2-chloro-2-nitropropane,CC(C)([N+](=O)[O-])Cl,330.15,pubchem,1
"1,1-dichloro-1-nitroethane",CC([N+](=O)[O-])(Cl)Cl,349.15,pubchem,1
1-bromopropan-2-one,CC(=O)CBr,324.15,pubchem,1
"2,2-dichloroethanol",C(C(Cl)Cl)O,351.15,pubchem,1
3-methylbutan-2-ol,CC(C)C(C)O,306.15,pubchem,1
2-chloropropanoic acid,CC(C(=O)O)Cl,380.15,pubchem,1
"pentane-2,3-dione",CCC(=O)C(=O)C,292.15,pubchem,1
1-chloro-1-nitropropane,CCC([N+](=O)[O-])Cl,335.15,pubchem,1
2-ethylpropanedioic acid,CCC(C(=O)O)C(=O)O,358.15,pubchem,1
"1-methyl-2,3-dinitrobenzene",CC1=C(C(=CC=C1)[N+](=O)[O-])[N+](=O)[O-],480.15,pubchem,1
"N,N-diphenylaniline",C1=CC=C(C=C1)N(C2=CC=CC=C2)C3=CC=CC=C3,453.15,pubchem,1
triphenylphosphane,C1=CC=C(C=C1)P(C2=CC=CC=C2)C3=CC=CC=C3,453.15,pubchem,1
2-amino-2-methylpropan-1-ol,CC(C)(CO)N,340.15,pubchem,1
"2-methyl-1,3-dinitrobenzene",CC1=C(C=CC=C1[N+](=O)[O-])[N+](=O)[O-],480.15,pubchem,1
"N,N,2-trimethylaniline",CC1=CC=CC=C1N(C)C,356.15,pubchem,1
"4-methyl-1,2-dinitrobenzene",CC1=CC(=C(C=C1)[N+](=O)[O-])[N+](=O)[O-],480.15,pubchem,1
1-ethenyl-2-methylbenzene,CC1=CC=CC=C1C=C,333.15,pubchem,1
1-(bromomethyl)-2-chlorobenzene,C1=CC=C(C(=C1)CBr)Cl,382.15,pubchem,1
1-chloro-2-(chloromethyl)benzene,C1=CC=C(C(=C1)CCl)Cl,364.15,pubchem,1
8-methylquinoline,CC1=CC=CC2=C1N=CC=C2,378.15,pubchem,1
7-methylquinoline,CC1=CC2=C(C=CC=N2)C=C1,383.15,pubchem,1
tert-butyl benzenecarboperoxoate,CC(C)(C)OOC(=O)C1=CC=CC=C1,366.15,pubchem,1
"2,4-dibromophenol",C1=CC(=C(C=C1Br)Br)O,386.15,pubchem,1
"2,3-dichloropropan-1-ol",C(C(CCl)Cl)O,364.15,pubchem,1
dimethyl carbonate,COC(=O)OC,272.15,pubchem,1
pyrrolidin-2-one,C1CC(=O)NC1,402.15,pubchem,1
"1,3-dichloro-5-nitrobenzene",C1=C(C=C(C=C1Cl)Cl)[N+](=O)[O-],413.15,pubchem,1
"1-methyl-3,5-dinitrobenzene",CC1=CC(=CC(=C1)[N+](=O)[O-])[N+](=O)[O-],480.15,pubchem,1
"2-methyl-1,4-dinitrobenzene",CC1=C(C=CC(=C1)[N+](=O)[O-])[N+](=O)[O-],480.15,pubchem,1
1-(bromomethyl)-3-methylbenzene,CC1=CC(=CC=C1)CBr,355.15,pubchem,1
3-methylbenzonitrile,CC1=CC=CC(=C1)C#N,360.15,pubchem,1
"N,N-dipentylpentan-1-amine",CCCCCN(CCCCC)CCCCC,375.15,pubchem,1
2-phenylmethoxyethanol,C1=CC=C(C=C1)COCCO,402.15,pubchem,1
2-chloroethenylbenzene,C1=CC=C(C=C1)C=CCl,331.15,pubchem,1
cyclohexyl acetate,CC(=O)OC1CCCCC1,331.15,pubchem,1
1-ethenyl-4-methylbenzene,CC1=CC=C(C=C1)C=C,325.15,pubchem,1
furan-2-ylmethyl acetate,CC(=O)OCC1=CC=CO1,339.15,pubchem,1
methyl butanoate,CCCC(=O)OC,287.15,pubchem,1
2-acetyloxypropyl acetate,CC(COC(=O)C)OC(=O)C,359.15,pubchem,1
methyl pentanoate,CCCCC(=O)OC,295.15,pubchem,1
pentyl propanoate,CCCCCOC(=O)CC,314.15,pubchem,1
methylimino(oxo)methane,CN=C=O,266.15,pubchem,1
(methyldisulfanyl)methane,CSSC,297.15,pubchem,1
2-methylbutan-2-yl acetate,CCC(C)(C)OC(=O)C,299.15,pubchem,1
propan-2-yl formate,CC(C)OC=O,267.15,pubchem,1
ethyl nitrate,CCO[N+](=O)[O-],283.15,pubchem,1
"2,5-dimethylfuran",CC1=CC=C(O1)C,272.15,pubchem,1
pentan-2-yl acetate,CCCC(C)OC(=O)C,305.15,pubchem,1
hexan-2-ol,CCCCC(C)O,314.15,pubchem,1
2-ethoxyacetic acid,CCOCC(=O)O,371.15,pubchem,1
propyl nitrate,CCCO[N+](=O)[O-],293.15,pubchem,1
3-bromopropan-1-ol,C(CO)CBr,367.15,pubchem,1
3-chloropropan-1-ol,C(CO)CCl,346.15,pubchem,1
dimethyl hexanedioate,COC(=O)CCCCC(=O)OC,380.15,pubchem,1
pentyl acetate,CCCCCOC(=O)C,306.15,pubchem,1
1-ethoxybutane,CCCCOCC,277.15,pubchem,1
"hexane-1,6-diol",C(CCCO)CCO,375.15,pubchem,1
"1,2-diethoxyethane",CCOCCOCC,308.15,pubchem,1
2-formyloxyethyl formate,C(COC=O)OC=O,366.15,pubchem,1
1-(propyldisulfanyl)propane,CCCSSCCC,339.15,pubchem,1
tridecane,CCCCCCCCCCCCC,352.15,pubchem,1
tetradecane,CCCCCCCCCCCCCC,373.15,pubchem,1
heptadecane,CCCCCCCCCCCCCCCCC,422.15,pubchem,1
henicosane,CCCCCCCCCCCCCCCCCCCCC,386.15,pubchem,1
docosane,CCCCCCCCCCCCCCCCCCCCCC,386.15,pubchem,1
pentacosane,CCCCCCCCCCCCCCCCCCCCCCCCC,393.15,pubchem,1
"2,2-dibromoacetic acid",C(C(=O)O)(Br)Br,386.15,pubchem,1
2-ethoxy-2-methylpropane,CCOC(C)(C)C,254.14999999999998,pubchem,1
pentyl formate,CCCCCOC=O,299.15,pubchem,1
tricosane,CCCCCCCCCCCCCCCCCCCCCCC,386.15,pubchem,1
dichloro(phenyl)phosphane,C1=CC=C(C=C1)P(Cl)Cl,375.15,pubchem,1
1-iodo-3-nitrobenzene,C1=CC(=CC(=C1)I)[N+](=O)[O-],345.15,pubchem,1
2-ethylhex-2-enal,CCCC=C(CC)C=O,341.15,pubchem,1
"1,3-dioxolane",C1COCO1,275.15,pubchem,1
4-methylideneoxetan-2-one,C=C1CC(=O)O1,307.15,pubchem,1
"cyclododeca-1,5,9-triene",C1CC=CCCC=CCCC=C1,344.15,pubchem,1
N-[bis(dimethylamino)phosphoryl]-N-methylmethanamine,CN(C)P(=O)(N(C)C)N(C)C,379.15,pubchem,1
tetramethyl silicate,CO[Si](OC)(OC)OC,369.15,pubchem,1
dibutyl(dichloro)stannane,CCCC[Sn](CCCC)(Cl)Cl,441.15,pubchem,1
"N,N-diethylacetamide",CCN(CC)C(=O)C,350.15,pubchem,1
tributyl borate,B(OCCCC)(OCCCC)OCCCC,366.15,pubchem,1
2-ethylhexyl 2-methylprop-2-enoate,CCCCC(CC)COC(=O)C(=C)C,365.15,pubchem,1
4-methylpent-1-ene,CC(C)CC=C,241.14999999999998,pubchem,1
propan-2-ylcyclohexane,CC(C)C1CCCCC1,309.15,pubchem,1
"2,4,6-tritert-butylphenol",CC(C)(C)C1=CC(=C(C(=C1)C(C)(C)C)O)C(C)(C)C,403.15,pubchem,1
N-[2-di(propan-2-yloxy)phosphinothioylsulfanylethyl]benzenesulfonamide,CC(C)OP(=S)(OC(C)C)SCCNS(=O)(=O)C1=CC=CC=C1,588.15,pubchem,1
[methoxy(methyl)phosphoryl]oxymethane,COP(=O)(C)OC,316.15,pubchem,1
"S-ethyl N,N-dipropylcarbamothioate",CCCN(CCC)C(=O)SCC,389.15,pubchem,1
"3,4-dichlorobut-1-ene",C=CC(CCl)Cl,386.15,pubchem,1
2-methylpent-1-ene,CCCC(=C)C,247.14999999999998,pubchem,1
ethyl 3-ethoxypropanoate,CCOCCC(=O)OCC,332.15,pubchem,1
oxirane-2-carbaldehyde,C1C(O1)C=O,304.15,pubchem,1
N-propan-2-ylaniline,CC(C)NC1=CC=CC=C1,361.15,pubchem,1
"4-N-(4-methylpentan-2-yl)-1-N-phenylbenzene-1,4-diamine",CC(C)CC(C)NC1=CC=C(C=C1)NC2=CC=CC=C2,477.15,pubchem,1
prop-2-enoyl chloride,C=CC(=O)Cl,287.15,pubchem,1
2-hydroxyethyl prop-2-enoate,C=CC(=O)OCCO,374.15,pubchem,1
nonan-2-one,CCCCCCCC(=O)C,337.15,pubchem,1
undec-1-ene,CCCCCCCCCC=C,344.15,pubchem,1
"1,6-diisocyanatohexane",C(CCCN=C=O)CCN=C=O,413.15,pubchem,1
5-methyl-1H-imidazole,CC1=CN=CN1,430.15,pubchem,1
"(2,6-dimethyl-1,3-dioxan-4-yl) acetate",CC1CC(OC(O1)C)OC(=O)C,334.15,pubchem,1
4-nitro-N-phenylaniline,C1=CC=C(C=C1)NC2=CC=C(C=C2)[N+](=O)[O-],463.15,pubchem,1
2-hydroxyethyl 2-methylprop-2-enoate,CC(=C)C(=O)OCCO,370.15,pubchem,1
dec-1-ene,CCCCCCCCC=C,326.15,pubchem,1
1-pentylsulfanylpentane,CCCCCSCCCCC,358.15,pubchem,1
1-methylpyrrolidin-2-one,CN1CCCC1=O,369.15,pubchem,1
"2,4-dichlorobenzaldehyde",C1=CC(=C(C=C1Cl)Cl)C=O,408.15,pubchem,1
3-triethoxysilylpropan-1-amine,CCO[Si](CCCN)(OCC)OCC,371.15,pubchem,1
"4-methylpenta-1,3-diene",CC(=CC=C)C,239.14999999999998,pubchem,1
"1,3-dichlorobut-2-ene",CC(=CCCl)Cl,300.15,pubchem,1
2-(2-aminoethoxy)ethanol,C(COCCO)N,400.15,pubchem,1
dodecan-1-amine,CCCCCCCCCCCCN,451.15,pubchem,1
2-ethenyloxirane,C=CC1CO1,227.14999999999998,pubchem,1
1-nitrosopyrrolidine,C1CCN(C1)N=O,356.15,pubchem,1
"2,3,6-trichlorophenol",C1=CC(=C(C(=C1Cl)O)Cl)Cl,352.15,pubchem,1
2-ethylnaphthalene,CCC1=CC2=CC=CC=C2C=C1,377.15,pubchem,1
"3-(dimethoxyphosphinothioylsulfanylmethyl)-5-methoxy-1,3,4-thiadiazol-2-one",COC1=NN(C(=O)S1)CSP(=S)(OC)OC,373.15,pubchem,1
[dimethyl-(trimethylsilylamino)silyl]methane,C[Si](C)(C)N[Si](C)(C)C,282.15,pubchem,1
2-(aziridin-1-yl)ethanol,C1CN1CCO,340.15,pubchem,1
S-propyl N-butyl-N-ethylcarbamothioate,CCCCN(CC)C(=O)SCCC,324.15,pubchem,1
"2-methyl-N,N-bis(2-methylpropyl)propan-1-amine",CC(C)CN(CC(C)C)CC(C)C,324.15,pubchem,1
butyl(trichloro)stannane,CCCC[Sn](Cl)(Cl)Cl,354.15,pubchem,1
dimethyl pentanedioate,COC(=O)CCCC(=O)OC,376.15,pubchem,1
undecane,CCCCCCCCCCC,338.15,pubchem,1
tetradec-1-ene,CCCCCCCCCCCCC=C,383.15,pubchem,1
S-ethyl N-cyclohexyl-N-ethylcarbamothioate,CCN(C1CCCCC1)C(=O)SCC,412.15,pubchem,1
2-(4-methylphenyl)propan-2-ol,CC1=CC=C(C=C1)C(C)(C)O,369.15,pubchem,1
"1,1-diphenylguanidine",C1=CC=C(C=C1)N(C2=CC=CC=C2)C(=N)N,443.15,pubchem,1
2-ethylhexyl diphenyl phosphate,CCCCC(CC)COP(=O)(OC1=CC=CC=C1)OC2=CC=CC=C2,497.15,pubchem,1
didecyl phenyl phosphite,CCCCCCCCCCOP(OCCCCCCCCCC)OC1=CC=CC=C1,698.15,pubchem,1
8-methylnonanal,CC(C)CCCCCCC=O,358.15,pubchem,1
"6,6-dimethyl-2-methylidenebicyclo[3.1.1]heptane",CC1(C2CCC(=C)C1C2)C,304.15,pubchem,1
8-methylnonyl prop-2-enoate,CC(C)CCCCCCCOC(=O)C=C,389.15,pubchem,1
1-chloro-2-ethenylbenzene,C=CC1=CC=CC=C1Cl,332.15,pubchem,1
nonane-1-thiol,CCCCCCCCCS,351.15,pubchem,1
"dimethyl benzene-1,3-dicarboxylate",COC(=O)C1=CC(=CC=C1)C(=O)OC,411.15,pubchem,1
dimethylcyanamide,CN(C)C#N,344.15,pubchem,1
"1,4-dichlorobut-2-ene",C(C=CCCl)Cl,326.15,pubchem,1
[3-(aminomethyl)phenyl]methanamine,C1=CC(=CC(=C1)CN)CN,390.15,pubchem,1
trichloro(chloromethyl)silane,C([Si](Cl)(Cl)Cl)Cl,342.15,pubchem,1
1-propoxypropan-2-ol,CCCOCC(C)O,321.15,pubchem,1
1-ethoxypropan-2-ol,CCOCC(C)O,313.15,pubchem,1
cyclohexanethiol,C1CCC(CC1)S,316.15,pubchem,1
"penta-1,3-diene",CC=CC=C,245.14999999999998,pubchem,1
2-methoxy-2-methylpropane,CC(C)(C)OC,247.14999999999998,pubchem,1
heptane-1-thiol,CCCCCCCS,319.15,pubchem,1
6-methylheptan-1-ol,CC(C)CCCCCO,355.15,pubchem,1
1-ethenoxy-2-methoxyethane,COCCOC=C,291.15,pubchem,1
tert-butyl prop-2-enoate,CC(C)(C)OC(=O)C=C,292.15,pubchem,1
ethylcyclohexane,CCC1CCCCC1,308.15,pubchem,1
"(2,6-dibromo-4-cyanophenyl) octanoate",CCCCCCCC(=O)OC1=C(C=C(C=C1Br)C#N)Br,375.15,pubchem,1
dichloro(diethyl)silane,CC[Si](CC)(Cl)Cl,297.15,pubchem,1
decane,CCCCCCCCCC,319.15,pubchem,1
3-(dimethylamino)propanenitrile,CN(C)CCC#N,337.15,pubchem,1
"2,3,7,8-tetrachlorodibenzo-p-dioxin",C1=C2C(=CC(=C1Cl)Cl)OC3=CC(=C(C=C3O2)Cl)Cl,277.15,pubchem,1
4-octylphenol,CCCCCCCCC1=CC=C(C=C1)O,386.15,pubchem,1
octadecan-1-amine,CCCCCCCCCCCCCCCCCCN,422.15,pubchem,1
phenyl carbonochloridate,C1=CC=C(C=C1)OC(=O)Cl,342.15,pubchem,1
"S-propyl N,N-dipropylcarbamothioate",CCCN(CCC)C(=O)SCCC,395.15,pubchem,1
2-chloro-6-(trichloromethyl)pyridine,C1=CC(=NC(=C1)Cl)C(Cl)(Cl)Cl,373.15,pubchem,1
"2-tert-butylbenzene-1,4-diol",CC(C)(C)C1=C(C=CC(=C1)O)O,444.15,pubchem,1
"S-ethyl N,N-bis(2-methylpropyl)carbamothioate",CCSC(=O)N(CC(C)C)CC(C)C,389.15,pubchem,1
2-propan-2-ylnaphthalene,CC(C)C1=CC2=CC=CC=C2C=C1,395.15,pubchem,1
N-pentylpentan-1-amine,CCCCCNCCCCC,324.15,pubchem,1
"hexane-1,6-diamine",C(CCCN)CCN,354.15,pubchem,1
decyl prop-2-enoate,CCCCCCCCCCOC(=O)C=C,400.15,pubchem,1
octyl 2-methylprop-2-enoate,CCCCCCCCOC(=O)C(=C)C,364.15,pubchem,1
"1,6-dichlorohexane",C(CCCCl)CCCl,347.15,pubchem,1
1-(prop-2-enyldisulfanyl)propane,CCCSSCC=C,329.15,pubchem,1
propyl 2-methylprop-2-enoate,CCCOC(=O)C(=C)C,303.15,pubchem,1
2-[(2-methylphenoxy)methyl]oxirane,CC1=CC=CC=C1OCC2CO2,366.15,pubchem,1
S-ethyl azepane-1-carbothioate,CCSC(=O)N1CCCCCC1,412.15,pubchem,1
"(1R,2S,5R)-5-methyl-2-propan-2-ylcyclohexan-1-ol",CC1CCC(C(C1)O)C(C)C,364.15,pubchem,1
"(2,2-dimethyl-3-prop-2-enoyloxypropyl) prop-2-enoate",CC(C)(COC(=O)C=C)COC(=O)C=C,388.15,pubchem,1
"N,N-diethyl-3-oxobutanamide",CCN(CC)C(=O)CC(=O)C,523.15,pubchem,1
2-(oxiran-2-ylmethoxymethyl)oxirane,C1C(O1)COCC2CO2,337.15,pubchem,1
"naphthalene-1,5-diamine",C1=CC2=C(C=CC=C2N)C(=C1)N,499.15,pubchem,1
(5S)-2-methyl-5-prop-1-en-2-ylcyclohex-2-en-1-one,CC1=CCC(CC1=O)C(=C)C,362.15,pubchem,1
2-octyloxirane,CCCCCCCCC1CO1,351.15,pubchem,1
2-(butoxymethyl)oxirane,CCCCOCC1CO1,327.15,pubchem,1
2-(diethylamino)ethyl prop-2-enoate,CCN(CC)CCOC(=O)C=C,364.15,pubchem,1
"2,3,4-trichlorobut-1-ene",C=C(C(CCl)Cl)Cl,336.15,pubchem,1
tridec-1-ene,CCCCCCCCCCCC=C,352.15,pubchem,1
2-(dimethylamino)ethyl prop-2-enoate,CN(C)CCOC(=O)C=C,302.15,pubchem,1
2-(2-ethylhexoxymethyl)oxirane,CCCCC(CC)COCC1CO1,370.15,pubchem,1
octyl prop-2-enoate,CCCCCCCCOC(=O)C=C,355.15,pubchem,1
hexyl prop-2-enoate,CCCCCCOC(=O)C=C,341.15,pubchem,1
chloro-diethoxy-sulfanylidene-λ5-phosphane,CCOP(=S)(OCC)Cl,365.15,pubchem,1
3-trimethoxysilylpropyl 2-methylprop-2-enoate,CC(=C)C(=O)OCCC[Si](OC)(OC)OC,365.15,pubchem,1
"5-ethoxy-3-(trichloromethyl)-1,2,4-thiadiazole",CCOC1=NC(=NS1)C(Cl)(Cl)Cl,427.15,pubchem,1
4-dimethoxyphosphinothioyloxybenzonitrile,COP(=S)(OC)OC1=CC=C(C=C1)C#N,377.15,pubchem,1
"1,4-dichloro-2,5-dimethoxybenzene",COC1=CC(=C(C=C1Cl)OC)Cl,434.15,pubchem,1
bromo(triethyl)stannane,CC[Sn](CC)(CC)Br,372.15,pubchem,1
2-propoxyethanol,CCCOCCO,322.15,pubchem,1
prop-2-enyl 3-methylbutanoate,CC(C)CC(=O)OCC=C,312.15,pubchem,1
"3-(aminomethyl)-3,5,5-trimethylcyclohexan-1-amine",CC1(CC(CC(C1)(C)CN)N)C,383.15,pubchem,1
2-decyloxirane,CCCCCCCCCCC1CO1,317.15,pubchem,1
2-(dimethylamino)ethyl 2-methylprop-2-enoate,CC(=C)C(=O)OCCN(C)C,347.15,pubchem,1
octadecane-1-thiol,CCCCCCCCCCCCCCCCCCS,458.15,pubchem,1
hexadecane-1-thiol,CCCCCCCCCCCCCCCCS,375.15,pubchem,1
"hexane-2,5-diol",CC(CCC(C)O)O,374.15,pubchem,1
prop-2-enyl carbonochloridate,C=CCOC(=O)Cl,304.15,pubchem,1
S-ethyl chloromethanethioate,CCSC(=O)Cl,304.15,pubchem,1
"2-[2-(dimethylamino)ethoxy]-N,N-dimethylethanamine",CN(C)CCOCCN(C)C,352.15,pubchem,1
"2,3-dibromopropyl 2-methylprop-2-enoate",CC(=C)C(=O)OCC(CBr)Br,332.15,pubchem,1
4-methyloxetan-2-one,CC1CC(=O)O1,333.15,pubchem,1
tridecyl prop-2-enoate,CCCCCCCCCCCCCOC(=O)C=C,405.15,pubchem,1
2-(trichloromethyl)oxirane,C1C(O1)C(Cl)(Cl)Cl,340.15,pubchem,1
2-[(4-tert-butylphenoxy)methyl]oxirane,CC(C)(C)C1=CC=C(C=C1)OCC2CO2,375.15,pubchem,1
2-methoxyethyl prop-2-enoate,COCCOC(=O)C=C,355.15,pubchem,1
2-(bromomethyl)oxirane,C1C(O1)CBr,329.15,pubchem,1
isocyanatocyclohexane,C1CCC(CC1)N=C=O,322.15,pubchem,1
"1,5-diisocyanatonaphthalene",C1=CC2=C(C=CC=C2N=C=O)C(=C1)N=C=O,428.15,pubchem,1
"1,2-dichloro-3-nitrobenzene",C1=CC(=C(C(=C1)Cl)Cl)[N+](=O)[O-],397.15,pubchem,1
dipropoxyphosphinothioyloxy-dipropoxy-sulfanylidene-λ5-phosphane,CCCOP(=S)(OCCC)OP(=S)(OCCC)OCCC,422.15,pubchem,1
"2,3-dimethyloxirane",CC1C(O1)C,255.14999999999998,pubchem,1
3-methylsulfanylpropanal,CSCCC=O,334.15,pubchem,1
"3,5,5-trimethylhexan-1-ol",CC(CCO)CC(C)(C)C,366.15,pubchem,1
"3-(2-methylpiperidin-1-yl)propyl 3,4-dichlorobenzoate",CC1CCCCN1CCCOC(=O)C2=CC(=C(C=C2)Cl)Cl,344.15,pubchem,1
"2,2,5-trimethylhexane",CC(C)CCC(C)(C)C,304.15,pubchem,1
"(1R,2R,5R)-5-methyl-2-propan-2-ylcyclohexan-1-ol",CC1CCC(C(C1)O)C(C)C,364.15,pubchem,1
"diheptyl benzene-1,2-dicarboxylate",CCCCCCCOC(=O)C1=CC=CC=C1C(=O)OCCCCCCC,497.15,pubchem,1
"octa-1,7-diene",C=CCCCCC=C,282.15,pubchem,1
"N,N-diethylhydroxylamine",CCN(CC)O,318.15,pubchem,1
but-2-enoic acid,CC=CC(=O)O,361.15,pubchem,1
2-(tert-butylamino)ethyl 2-methylprop-2-enoate,CC(=C)C(=O)OCCNC(C)(C)C,369.15,pubchem,1
"hexane-2,3-dione",CCCC(=O)C(=O)C,301.15,pubchem,1
"tris(2,4-dimethylphenyl) phosphate",CC1=CC(=C(C=C1)OP(=O)(OC2=C(C=C(C=C2)C)C)OC3=C(C=C(C=C3)C)C)C,505.15,pubchem,1
2-ethylbutyl prop-2-enoate,CCC(CC)COC(=O)C=C,325.15,pubchem,1
2-(propan-2-yloxymethyl)oxirane,CC(C)OCC1CO1,306.15,pubchem,1
2-(2-prop-2-enoyloxyethoxy)ethyl prop-2-enoate,C=CC(=O)OCCOCCOC(=O)C=C,351.15,pubchem,1
octan-2-ol,CCCCCCC(C)O,349.15,pubchem,1
3-methoxybutyl acetate,CC(CCOC(=O)C)OC,350.15,pubchem,1
N-butyl-N-ethylnitrous amide,CCCCN(CC)N=O,366.15,pubchem,1
2-methylpentanedinitrile,CC(CCC#N)C#N,399.15,pubchem,1
propan-2-yl 2-methylprop-2-enoate,CC(C)OC(=O)C(=C)C,294.15,pubchem,1
"4,4a-dimethyl-6-prop-1-en-2-yl-3,4,5,6,7,8-hexahydronaphthalen-2-one",CC1CC(=O)C=C2C1(CC(CC2)C(=C)C)C,373.15,pubchem,1
1-butoxypropan-2-ol,CCCCOCC(C)O,336.15,pubchem,1
"6-methyl-N-phenyl-2,3-dihydro-1,4-oxathiine-5-carboxamide",CC1=C(SCCO1)C(=O)NC2=CC=CC=C2,476.15,pubchem,1
"6-methyl-4,4-dioxo-N-phenyl-2,3-dihydro-1,4-oxathiine-5-carboxamide",CC1=C(S(=O)(=O)CCO1)C(=O)NC2=CC=CC=C2,492.15,pubchem,1
2-hydroxyethyl carbamate,C(COC(=O)N)O,461.15,pubchem,1
tripropan-2-yl borate,B(OC(C)C)(OC(C)C)OC(C)C,301.15,pubchem,1
"3,5,5-trimethylhexanal",CC(CC=O)CC(C)(C)C,389.15,pubchem,1
N-ethylcyclohexanamine,CCNC1CCCCC1,302.15,pubchem,1
"bis(oxiran-2-ylmethyl) cyclohexane-1,2-dicarboxylate",C1CCC(C(C1)C(=O)OCC2CO2)C(=O)OCC3CO3,463.15,pubchem,1
butan-1-olate;titanium(4+),CCCC[O-].CCCC[O-].CCCC[O-].CCCC[O-].[Ti+4],350.15,pubchem,1
"dimethoxy-sulfanylidene-(3,5,6-trichloropyridin-2-yl)oxy-λ5-phosphane",COP(=S)(OC)OC1=NC(=C(C=C1Cl)Cl)Cl,455.15,pubchem,1
"1,2-dihydropyridazine-3,6-dione",C1=CC(=O)NNC1=O,573.15,pubchem,1
trichloro(hexadecyl)silane,CCCCCCCCCCCCCCCC[Si](Cl)(Cl)Cl,419.15,pubchem,1
1-methyl-4-prop-1-en-2-ylcyclohexene,CC1=CCC(CC1)C(=C)C,319.15,pubchem,1
pentan-2-ol,CCCC(C)O,308.15,pubchem,1
"bis(2-ethylhexyl) benzene-1,4-dicarboxylate",CCCCC(CC)COC(=O)C1=CC=C(C=C1)C(=O)OCC(CC)CCCC,511.15,pubchem,1
undecylbenzene,CCCCCCCCCCCC1=CC=CC=C1,414.15,pubchem,1
"[2,2,4-trimethyl-3-(2-methylpropanoyloxy)pentyl] 2-methylpropanoate",CC(C)C(C(C)(C)COC(=O)C(C)C)OC(=O)C(C)C,394.15,pubchem,1
N-butyl-N-methylnitrous amide,CCCCN(C)N=O,305.15,pubchem,1
(2-bromo-2-nitroethenyl)benzene,C1=CC=C(C=C1)C=C([N+](=O)[O-])Br,327.15,pubchem,1
butyl(trichloro)silane,CCCC[Si](Cl)(Cl)Cl,325.15,pubchem,1
2-[(2-methylpropan-2-yl)oxymethyl]oxirane,CC(C)(C)OCC1CO1,316.15,pubchem,1
"InChI=1S/2Na.H2O4S2/c;;1-5(2)6(3)4/h;;(H,1,2)(H,3,4)/q2*+1;/p-2",[O-]S(=O)S(=O)[O-].[Na+].[Na+],373.15,pubchem,1
2-tert-butyl-4-methoxyphenol;3-tert-butyl-4-methoxyphenol,CC(C)(C)C1=C(C=CC(=C1)O)OC.CC(C)(C)C1=C(C=CC(=C1)OC)O,386.15,pubchem,1
"1,1'-biphenyl;phenoxybenzene",C1=CC=C(C=C1)C2=CC=CC=C2.C1=CC=C(C=C1)OC2=CC=CC=C2,397.15,pubchem,1
"6-methylheptyl 2-(2,4-dichlorophenoxy)acetate",CC(C)CCCCCOC(=O)COC1=C(C=C(C=C1)Cl)Cl,321.15,pubchem,1
"4-(2,6,6-trimethylcyclohex-2-en-1-yl)but-3-en-2-one",CC1=CCCC(C1C=CC(=O)C)(C)C,391.15,pubchem,1
dimethyl-bis(trimethylsilyloxy)silane,C[Si](C)(C)O[Si](C)(C)O[Si](C)(C)C,408.15,pubchem,1
diethoxy-(2-ethylsulfanylethoxy)-sulfanylidene-λ5-phosphane;1-diethoxyphosphorylsulfanyl-2-ethylsulfanylethane,CCOP(=O)(OCC)SCCSCC.CCOP(=S)(OCC)OCCSCC,318.15,pubchem,1
"(E)-1,3-dichloroprop-1-ene",C(C=CCl)Cl,308.15,pubchem,1