compound,smiles,flashpoint,source,pure substance
(E)-3-phenylprop-2-enal,C1=CC=C(C=C1)C=CC=O,344.15,pubchem,1
"[(1R,2R,4R)-1,7,7-trimethyl-2-bicyclo[2.2.1]heptanyl] acetate",CC(=O)OC1CC2CCC1(C2(C)C)C,361.15,pubchem,1
1-methoxy-4-[(E)-prop-1-enyl]benzene,CC=CC1=CC=C(C=C1)OC,364.15,pubchem,1
"(2E)-3,7-dimethylocta-2,6-dien-1-ol",CC(=CCCC(=CCO)C)C,381.15,pubchem,1
"(Z)-1,3-dichlorobut-2-ene",CC(=CCCl)Cl,300.15,pubchem,1
"(2E)-3,7-dimethylocta-2,6-dienal",CC(=CCCC(=CC=O)C)C,375.15,pubchem,1
"(1E,5E,9E)-cyclododeca-1,5,9-triene",C1CC=CCCC=CCCC=C1,344.15,pubchem,1
diethyl (E)-but-2-enedioate,CCOC(=O)C=CC(=O)OCC,377.15,pubchem,1
"(E)-1,2-dichloroethene",C(=CCl)Cl,277.15,pubchem,1
"(E)-1,4-dichlorobut-2-ene",C(C=CCCl)Cl,326.15,pubchem,1
"(2E,4E)-hexa-2,4-dienoic acid",CC=CC=CC(=O)O,400.15,pubchem,1
"(2Z)-3,7-dimethylocta-2,6-dienal",CC(=CCCC(=CC=O)C)C,375.15,pubchem,1
"(Z)-but-2-ene-1,4-diol",C(C=CCO)O,401.15,pubchem,1
(Z)-but-2-enoic acid,CC=CC(=O)O,361.15,pubchem,1
"(2Z)-3,7-dimethylocta-2,6-dien-1-ol",CC(=CCCC(=CCO)C)C,380.15,pubchem,1
"(Z)-1,2-dichloroethene",C(=CCl)Cl,277.15,pubchem,1
"(E)-1,3-dichlorobut-2-ene",CC(=CCCl)Cl,300.15,pubchem,1
"(1R,4R)-1,7,7-trimethylbicyclo[2.2.1]heptan-2-ol",CC1(C2CCC1(C(C2)O)C)C,339.15,pubchem,1
"3H-1,3-benzothiazole-2-thione",C1=CC=C2C(=C1)NC(=S)S2,473.15,pubchem,1
2-methoxy-4-[(E)-prop-1-enyl]phenol,CC=CC1=CC(=C(C=C1)O)OC,386.15,pubchem,1
"(1S,2R,4S)-1,7,7-trimethylbicyclo[2.2.1]heptan-2-ol",CC1(C2CCC1(C(C2)O)C)C,339.15,pubchem,1
"(4R,4aS,6R)-4,4a-dimethyl-6-prop-1-en-2-yl-3,4,5,6,7,8-hexahydronaphthalen-2-one",CC1CC(=O)C=C2C1(CC(CC2)C(=C)C)C,373.15,pubchem,1
(E)-N-[(4-hydroxy-3-methoxyphenyl)methyl]-8-methylnon-6-enamide,CC(C)C=CCCCCC(=O)NCC1=CC(=C(C=C1)O)OC,386.15,pubchem,1
3-methyl-2-[(Z)-pent-2-enyl]cyclopent-2-en-1-one,CCC=CCC1=C(CCC1=O)C,380.15,pubchem,1
3-methyl-2-[(E)-pent-2-enyl]cyclopent-2-en-1-one,CCC=CCC1=C(CCC1=O)C,380.15,pubchem,1
"(2Z,4E)-hexa-2,4-dienoic acid",CC=CC=CC(=O)O,400.15,pubchem,1
"(2E,4E)-hexa-2,4-dienoate",CC=CC=CC(=O)[O-],400.15,pubchem,1
methyl (2S)-5-(diaminomethylideneamino)-2-[(4-methylphenyl)sulfonylamino]pentanoate,CC1=CC=C(C=C1)S(=O)(=O)NC(CCCN=C(N)N)C(=O)OC,262.15,pubchem,1
"(1S,2S,5S)-5-methyl-2-propan-2-ylcyclohexan-1-ol",CC1CCC(C(C1)O)C(C)C,364.15,pubchem,1
imidazolidine-2-thione,C1CNC(=S)N1,525.15,pubchem,1
"(E)-2,3-dichloro-4-oxobut-2-enoic acid",C(=O)C(=C(C(=O)O)Cl)Cl,373.15,pubchem,1
3-[bis(2-carboxyethyl)phosphanyl]propanoic acid;hydrochloride,C(CP(CCC(=O)O)CCC(=O)O)C(=O)O.Cl,475.15,pubchem,1
"(Z)-2,3-dichloro-4-oxobut-2-enoic acid",C(=O)C(=C(C(=O)O)Cl)Cl,373.15,pubchem,1
"7a-methyl-4,5,6,7-tetrahydro-3aH-2-benzofuran-1,3-dione",CC12CCCCC1C(=O)OC2=O,623.15,pubchem,1
manganese(2+);N-[2-(sulfidocarbothioylamino)ethyl]carbamodithioate,C(CNC(=S)[S-])NC(=S)[S-].[Mn+2],411.15,pubchem,1
"1,2-diisocyanatonaphthalene",C1=CC=C2C(=C1)C=CC(=C2N=C=O)N=C=O,465.15,pubchem,1
chromium(3+);octadecanoate;tetrachloride;hydroxide,CCCCCCCCCCCCCCCCCC(=O)[O-].[OH-].[Cl-].[Cl-].[Cl-].[Cl-].[Cr+3].[Cr+3],275.15,pubchem,1
zinc;manganese(2+);N-[2-(sulfidocarbothioylamino)ethyl]carbamodithioate,C(CNC(=S)[S-])NC(=S)[S-].C(CNC(=S)[S-])NC(=S)[S-].[Mn+2].[Zn+2],411.15,pubchem,1
1-(3-methoxypropoxy)propyl acetate,CCC(OCCCOC)OC(=O)C,359.15,pubchem,1
"[(1S,2S,4S)-1,7,7-trimethyl-2-bicyclo[2.2.1]heptanyl] 2-thiocyanatoacetate",CC1(C2CCC1(C(C2)OC(=O)CSC#N)C)C,355.15,pubchem,1
sodium;chloro-(4-methylphenyl)sulfonylazanide,CC1=CC=C(C=C1)S(=O)(=O)[N-]Cl.[Na+],465.15,pubchem,1
2-hydroperoxy-2-(2-hydroperoxybutan-2-ylperoxy)butane,CCC(C)(OO)OOC(C)(CC)OO,355.15,pubchem,1
dichlorochromium;1-hydroxyoctadecylideneoxidanium;hydrate,CCCCCCCCCCCCCCCCCC(=[OH+])O.O.Cl[Cr]Cl.Cl[Cr]Cl,275.15,pubchem,1
"5-(4-chlorophenyl)-N-cyclohexyl-4-methyl-2-oxo-1,3-thiazolidine-3-carboxamide",CC1C(SC(=O)N1C(=O)NC2CCCCC2)C3=CC=C(C=C3)Cl,373.15,pubchem,1
"trichloro-(3,4-dichlorophenyl)silane",C1=CC(=C(C=C1[Si](Cl)(Cl)Cl)Cl)Cl,414.15,pubchem,1
methyl carbonate,COC(=O)[O-],291.15,pubchem,1
"2-amino-4,6-dinitrophenol",C1=C(C=C(C(=C1[N+](=O)[O-])O)N)[N+](=O)[O-],483.15,pubchem,1
2-sulfanylacetate,C(C(=O)[O-])S,403.15,pubchem,1
(Z)-3-phenylprop-2-en-1-ol,C1=CC=C(C=C1)C=CCO,399.15,pubchem,1
"(2R,3S,4S,5R,6R)-2-(hydroxymethyl)-6-[(E)-3-phenylprop-2-enoxy]oxane-3,4,5-triol",C1=CC=C(C=C1)C=CCOC2C(C(C(C(O2)CO)O)O)O,460.15,pubchem,1
(Z)-hex-3-en-1-ol,CCC=CCCO,403.15,pubchem,1
"(1R,4E,9S)-4,11,11-trimethyl-8-methylidenebicyclo[7.2.0]undec-4-ene",CC1=CCCC(=C)C2CC(C2CC1)(C)C,374.15,pubchem,1
"(1R,4Z,9S)-4,11,11-trimethyl-8-methylidenebicyclo[7.2.0]undec-4-ene",CC1=CCCC(=C)C2CC(C2CC1)(C)C,374.15,pubchem,1
"(2-methyl-3-phenylphenyl)methyl 3-[(Z)-2-chloro-3,3,3-trifluoroprop-1-enyl]-2,2-dimethylcyclopropane-1-carboxylate",CC1=C(C=CC=C1COC(=O)C2C(C2(C)C)C=C(C(F)(F)F)Cl)C3=CC=CC=C3,438.15,pubchem,1
"(E)-4-(2,6,6-trimethylcyclohex-2-en-1-yl)but-3-en-2-one",CC1=CCCC(C1C=CC(=O)C)(C)C,391.15,pubchem,1
"(4R,4aR,7S,7aR,12bS)-9-methoxy-3-methyl-2,4,4a,7,7a,13-hexahydro-1H-4,12-methanobenzofuro[3,2-e]isoquinolin-7-ol",CN1CCC23C4C1CC5=C2C(=C(C=C5)OC)OC3C(C=C4)O,348.15,pubchem,1
"S-[(Z)-2,3-dichloroprop-2-enyl] N,N-di(propan-2-yl)carbamothioate",CC(C)N(C(C)C)C(=O)SCC(=CCl)Cl,369.15,pubchem,1
"1,4,5,6,7,7-hexachloro-2,2-bis(chloromethyl)-3-methylidenebicyclo[2.2.1]heptane",C=C1C(C2(C(C(C1(C2(Cl)Cl)Cl)Cl)Cl)Cl)(CCl)CCl,302.15,pubchem,1
zinc;N-[2-(sulfidocarbothioylamino)ethyl]carbamodithioate,C(CNC(=S)[S-])NC(=S)[S-].[Zn+2],363.15,pubchem,1
"(4R,4aR,7aR,12bS)-9-methoxy-3-methyl-1,2,4,4a,5,6,7a,13-octahydro-4,12-methanobenzofuro[3,2-e]isoquinolin-7-one",CN1CCC23C4C1CC5=C2C(=C(C=C5)OC)OC3C(=O)CC4,282.15,pubchem,1
(Z)-but-2-ene,CC=CC,262.15,pubchem,1
[(E)-2-bromoethenyl]benzene,C1=CC=C(C=C1)C=CBr,352.15,pubchem,1
(E)-3-phenylprop-2-en-1-ol,C1=CC=C(C=C1)C=CCO,399.15,pubchem,1
"(4Z)-4,11,11-trimethyl-8-methylidenebicyclo[7.2.0]undec-4-ene",CC1=CCCC(=C)C2CC(C2CC1)(C)C,374.15,pubchem,1
(NE)-N-butan-2-ylidenehydroxylamine,CCC(=NO)C,332.15,pubchem,1
(NZ)-N-butan-2-ylidenehydroxylamine,CCC(=NO)C,332.15,pubchem,1
(NZ)-N-butylidenehydroxylamine,CCCC=NO,331.15,pubchem,1
(NE)-N-butylidenehydroxylamine,CCCC=NO,331.15,pubchem,1
(E)-pent-3-enenitrile,CC=CCC#N,311.15,pubchem,1
"(3E)-3-(dimethylcarbamoylimino)-1,1-dimethylurea",CN(C)C(=O)N=NC(=O)N(C)C,313.15,pubchem,1
(E)-2-ethylhex-2-enal,CCCC=C(CC)C=O,341.15,pubchem,1
butyl (Z)-octadec-9-enoate,CCCCCCCCC=CCCCCCCCC(=O)OCCCC,453.15,pubchem,1
"(4E)-4,11,11-trimethyl-8-methylidenebicyclo[7.2.0]undec-4-ene",CC1=CCCC(=C)C2CC(C2CC1)(C)C,374.15,pubchem,1
(Z)-2-methyl-3-phenylprop-2-enal,CC(=CC1=CC=CC=C1)C=O,352.15,pubchem,1
methyl (E)-3-dimethoxyphosphoryloxybut-2-enoate,CC(=CC(=O)OC)OP(=O)(OC)OC,352.15,pubchem,1
"(1Z,5E,9Z)-cyclododeca-1,5,9-triene",C1CC=CCCC=CCCC=C1,344.15,pubchem,1
thallium,[Tl],489.15,pubchem,1
sulfur,[S],480.15,pubchem,1
"3-[(E)-dodec-2-enyl]oxolane-2,5-dione",CCCCCCCCCC=CCC1CC(=O)OC1=O,451.15,pubchem,1
(Z)-acetyloxymethylimino-methyl-oxidoazanium,CC(=O)OCN=[N+](C)[O-],372.15,pubchem,1
(E)-pent-2-enenitrile,CCC=CC#N,296.15,pubchem,1
"(1Z,5Z,9Z)-cyclododeca-1,5,9-triene",C1CC=CCCC=CCCC=C1,344.15,pubchem,1
(E)-non-2-ene,CCCCCCC=CC,299.15,pubchem,1
bis(2-ethylhexyl) (Z)-but-2-enedioate,CCCCC(CC)COC(=O)C=CC(=O)OCC(CC)CCCC,458.15,pubchem,1
(5E)-5-ethylidenebicyclo[2.2.1]hept-2-ene,CC=C1CC2CC1C=C2,299.15,pubchem,1
"(4E)-hexa-1,4-diene",CC=CCC=C,252.14999999999998,pubchem,1
"propan-2-yl (2E,4E)-11-methoxy-3,7,11-trimethyldodeca-2,4-dienoate",CC(C)OC(=O)C=C(C)C=CCC(C)CCCC(C)(C)OC,460.15,pubchem,1
"(Z)-1,2,3-trichloroprop-1-ene",C(C(=CCl)Cl)Cl,358.15,pubchem,1
(E)-2-methyl-3-phenylprop-2-enal,CC(=CC1=CC=CC=C1)C=O,352.15,pubchem,1
magnesium,[Mg],773.15,pubchem,1
(E)-carbamoyliminourea,C(=O)(N)N=NC(=O)N,369.15,pubchem,1
(5Z)-5-ethylidenebicyclo[2.2.1]hept-2-ene,CC=C1CC2CC1C=C2,299.15,pubchem,1
(2-tert-butylphenyl) phenyl phosphate,CC(C)(C)C1=CC=CC=C1OP(=O)([O-])OC2=CC=CC=C2,519.15,pubchem,1
(E)-acetyloxymethylimino-methyl-oxidoazanium,CC(=O)OCN=[N+](C)[O-],372.15,pubchem,1
"(E)-but-1-ene-1,4-diol",C(CO)C=CO,401.15,pubchem,1
"(1Z,5E,9E)-cyclododeca-1,5,9-triene",C1CC=CCCC=CCCC=C1,344.15,pubchem,1
"S-[(E)-2,3-dichloroprop-2-enyl] N,N-di(propan-2-yl)carbamothioate",CC(C)N(C(C)C)C(=O)SCC(=CCl)Cl,369.15,pubchem,1
dimethoxy(oxo)phosphanium,CO[P+](=O)OC,302.15,pubchem,1
InChI=1S/C2H6ClSi/c1-4(2)3/h1-2H3,C[Si](C)Cl,264.15,pubchem,1
InChI=1S/Cl2Si/c1-3-2,[Si](Cl)Cl,245.14999999999998,pubchem,1
"InChI=1S/C2H5Cl2Si/c1-2-5(3)4/h2H2,1H3",CC[Si](Cl)Cl,272.15,pubchem,1
dibutoxy(oxo)phosphanium,CCCCO[P+](=O)OCCCC,322.15,pubchem,1
InChI=1S/CH3Cl2Si/c1-4(2)3/h1H3,C[Si](Cl)Cl,247.14999999999998,pubchem,1
triphenyltin;hydrate,C1=CC=C(C=C1)[Sn](C2=CC=CC=C2)C3=CC=CC=C3.O,673.15,pubchem,1
"InChI=1S/C6H15O3Si/c1-4-7-10(8-5-2)9-6-3/h4-6H2,1-3H3",CCO[Si](OCC)OCC,300.15,pubchem,1
λ1-boranyl-[[[[[[(λ1-boranyl-λ2-boranyl)-λ2-boranyl]-λ2-boranyl]-λ2-boranyl]-λ2-boranyl]-λ2-boranyl]-λ2-boranyl]boron,[B][B][B][B][B][B][B][B][B][B],353.15,pubchem,1
boranylidyneborane,B#B,183.14999999999998,pubchem,1
InChI=1S/CH3ClSi/c1-3-2/h1H3,C[Si]Cl,264.15,pubchem,1
azaniumylsulfanylazanium,[NH3+]S[NH3+],345.15,pubchem,1
"(1R,4E,9R)-4,11,11-trimethyl-8-methylidenebicyclo[7.2.0]undec-4-ene",CC1=CCCC(=C)C2CC(C2CC1)(C)C,374.15,pubchem,1
"[(2S)-1,7,7-trimethyl-2-bicyclo[2.2.1]heptanyl] 2-thiocyanatoacetate",CC1(C2CCC1(C(C2)OC(=O)CSC#N)C)C,355.15,pubchem,1
"(Z)-1,4-dichlorobut-2-ene",C(C=CCCl)Cl,326.15,pubchem,1
[(E)-2-bromo-2-nitroethenyl]benzene,C1=CC=C(C=C1)C=C([N+](=O)[O-])Br,327.15,pubchem,1
but-1-ene;(E)-but-2-ene,CCC=C.CC=CC,375.15,pubchem,1
"(E)-3-(5-methyl-2,4-dioxopyrimidin-1-yl)prop-2-enal",CC1=CN(C(=O)NC1=O)C=CC=O,480.15,pubchem,1
"(2-methyl-3-phenylphenyl)methyl (1R,3R)-3-[(Z)-2-chloro-3,3,3-trifluoroprop-1-enyl]-2,2-dimethylcyclopropane-1-carboxylate",CC1=C(C=CC=C1COC(=O)C2C(C2(C)C)C=C(C(F)(F)F)Cl)C3=CC=CC=C3,438.15,pubchem,1
[(Z)-2-bromo-2-nitroethenyl]benzene,C1=CC=C(C=C1)C=C([N+](=O)[O-])Br,327.15,pubchem,1
"(1R,2S,4R)-1,7,7-trimethylbicyclo[2.2.1]heptan-2-ol",CC1(C2CCC1(C(C2)O)C)C,339.15,pubchem,1
"(1R,2R,5S)-5-methyl-2-propan-2-ylcyclohexan-1-ol",CC1CCC(C(C1)O)C(C)C,364.15,pubchem,1
"1,2-xylene;1,3-xylene;1,4-xylene",CC1=CC=C(C=C1)C.CC1=CC(=CC=C1)C.CC1=CC=CC=C1C,298.15,pubchem,1
"[(1S,2S,4S)-1,7,7-trimethyl-2-bicyclo[2.2.1]heptanyl] acetate",CC(=O)OC1CC2CCC1(C2(C)C)C,361.15,pubchem,1
"2,2-diethylpropanedioate",CCC(CC)(C(=O)[O-])C(=O)[O-],358.15,pubchem,1
(2S)-2-[[4-[2-[4-[[(2S)-oxiran-2-yl]methoxy]phenyl]propan-2-yl]phenoxy]methyl]oxirane,CC(C)(C1=CC=C(C=C1)OCC2CO2)C3=CC=C(C=C3)OCC4CO4,352.15,pubchem,1
"(4S,4aR,6S)-4,4a-dimethyl-6-prop-1-en-2-yl-3,4,5,6,7,8-hexahydronaphthalen-2-one",CC1CC(=O)C=C2C1(CC(CC2)C(=C)C)C,373.15,pubchem,1
"(1R)-1,7,7-trimethylbicyclo[2.2.1]heptan-2-one",CC1(C2CCC1(C(=O)C2)C)C,337.15,pubchem,1
(NE)-N-(2-methyl-2-methylsulfanylpropylidene)hydroxylamine,CC(C)(C=NO)SC,391.15,pubchem,1
"tert-butyl 4-[[(E)-(1,3-dimethyl-5-phenoxypyrazol-4-yl)methylideneamino]oxymethyl]benzoate",CC1=NN(C(=C1C=NOCC2=CC=C(C=C2)C(=O)OC(C)(C)C)OC3=CC=CC=C3)C,358.15,pubchem,1
"[cyano-(3-phenoxyphenyl)methyl] 2,2-dimethyl-3-(1,2,2,2-tetrabromoethyl)cyclopropane-1-carboxylate",CC1(C(C1C(=O)OC(C#N)C2=CC(=CC=C2)OC3=CC=CC=C3)C(C(Br)(Br)Br)Br)C,299.15,pubchem,1
"(1R,4S,5'S,6R,6'R,8R,10E,13R,14E,16E,20R,21R,24S)-21,24-dihydroxy-5',6',11,13,22-pentamethylspiro[3,7,19-trioxatetracyclo[15.6.1.14,8.020,24]pentacosa-10,14,16,22-tetraene-6,2'-oxane]-2-one",CC1CCC2(CC3CC(O2)CC=C(CC(C=CC=C4COC5C4(C(C=C(C5O)C)C(=O)O3)O)C)C)OC1C,316.15,pubchem,1
"(2-methyl-4-oxo-3-prop-2-ynylcyclopent-2-en-1-yl) 2,2-dimethyl-3-(2-methylprop-1-enyl)cyclopropane-1-carboxylate",CC1=C(C(=O)CC1OC(=O)C2C(C2(C)C)C=C(C)C)CC#C,412.15,pubchem,1
"(1R,5R)-6,6-dimethyl-2-methylidenebicyclo[3.1.1]heptane",CC1(C2CCC(=C)C1C2)C,304.15,pubchem,1
[(S)-cyano-(3-phenoxyphenyl)methyl] (2S)-2-(4-chlorophenyl)-3-methylbutanoate,CC(C)C(C1=CC=C(C=C1)Cl)C(=O)OC(C#N)C2=CC(=CC=C2)OC3=CC=CC=C3,529.15,pubchem,1
"(1R,4R,5Z)-5-ethylidenebicyclo[2.2.1]hept-2-ene",CC=C1CC2CC1C=C2,299.15,pubchem,1
"(2-methyl-3-phenylphenyl)methyl (1S,3S)-3-[(Z)-2-chloro-3,3,3-trifluoroprop-1-enyl]-2,2-dimethylcyclopropane-1-carboxylate",CC1=C(C=CC=C1COC(=O)C2C(C2(C)C)C=C(C(F)(F)F)Cl)C3=CC=CC=C3,438.15,pubchem,1
(Z)-2-ethylhex-2-enal,CCCC=C(CC)C=O,341.15,pubchem,1
"bis(7-methyloctyl) cyclohexane-1,2-dicarboxylate",CC(C)CCCCCCOC(=O)C1CCCCC1C(=O)OCCCCCCC(C)C,497.15,pubchem,1
"(2S)-2,6-diamino-N-[(2S)-1-phenylpropan-2-yl]hexanamide",CC(CC1=CC=CC=C1)NC(=O)C(CCCCN)N,260.15,pubchem,1
6-bromohexyl acetate,CC(=O)OCCCCCCBr,294.15,pubchem,1
"(1R,7S)-1,3,4,7,8,9,10,10-octachlorotricyclo[5.2.1.02,6]dec-8-ene",C1C2C(C(C1Cl)Cl)C3(C(=C(C2(C3(Cl)Cl)Cl)Cl)Cl)Cl,380.15,pubchem,1
"(6Z,10E,14E,18E)-2,6,10,15,19,23-hexamethyltetracosa-2,6,10,14,18,22-hexaene",CC(=CCCC(=CCCC(=CCCC=C(C)CCC=C(C)CCC=C(C)C)C)C)C,383.15,pubchem,1
"(1R,4S)-1,7,7-trimethylbicyclo[2.2.1]heptan-2-ol",CC1(C2CCC1(C(C2)O)C)C,339.15,pubchem,1
"(1S,2R,3R,4S,6R,7R)-1,3,4,7,8,9,10,10-octachlorotricyclo[5.2.1.02,6]dec-8-ene",C1C2C(C(C1Cl)Cl)C3(C(=C(C2(C3(Cl)Cl)Cl)Cl)Cl)Cl,380.15,pubchem,1
"(1R,2R,3R,6S,7S,8S,9S,11R)-3,4,5,6,13,13-hexachloro-10-oxapentacyclo[6.3.1.13,6.02,7.09,11]tridec-4-ene",C1C2C3C(C1C4C2O4)C5(C(=C(C3(C5(Cl)Cl)Cl)Cl)Cl)Cl,300.15,pubchem,1
"(1R,2S,3S,6R,7R,8S,9R,11S)-3,4,5,6,13,13-hexachloro-10-oxapentacyclo[6.3.1.13,6.02,7.09,11]tridec-4-ene",C1C2C3C(C1C4C2O4)C5(C(=C(C3(C5(Cl)Cl)Cl)Cl)Cl)Cl,300.15,pubchem,1
"(1R,4R,5E)-5-ethylidenebicyclo[2.2.1]hept-2-ene",CC=C1CC2CC1C=C2,299.15,pubchem,1
"cyclopenta-1,3-diene;nickel",C1C=CC=C1.C1C=CC=C1.[Ni],277.15,pubchem,1
"but-1-ene-1,3-dione",CC(=O)C=C=O,306.15,pubchem,1
ethyl phosphate,CCOP(=O)([O-])[O-],389.15,pubchem,1
"(4S,5S)-5-(4-chlorophenyl)-N-cyclohexyl-4-methyl-2-oxo-1,3-thiazolidine-3-carboxamide",CC1C(SC(=O)N1C(=O)NC2CCCCC2)C3=CC=C(C=C3)Cl,373.15,pubchem,1
"[(1R,2R,4R)-1,7,7-trimethyl-2-bicyclo[2.2.1]heptanyl] 2-thiocyanatoacetate",CC1(C2CCC1(C(C2)OC(=O)CSC#N)C)C,355.15,pubchem,1
"2,3-bis[[(Z)-12-hydroxyoctadec-9-enoyl]oxy]propyl (Z)-12-hydroxyoctadec-9-enoate",CCCCCCC(CC=CCCCCCCCC(=O)OCC(COC(=O)CCCCCCCC=CCC(CCCCCC)O)OC(=O)CCCCCCCC=CCC(CCCCCC)O)O,502.15,pubchem,1
bis(2-ethylhexyl) phosphate,CCCCC(CC)COP(=O)([O-])OCC(CC)CCCC,469.15,pubchem,1
"(2S,6R)-tricyclo[5.2.1.02,6]deca-3,8-diene",C1C=CC2C1C3CC2C=C3,305.15,pubchem,1
"(1R,7S)-tricyclo[5.2.1.02,6]deca-3,8-diene",C1C=CC2C1C3CC2C=C3,305.15,pubchem,1
ethoxy-(4-nitrophenoxy)-phenyl-sulfanylidene-λ5-phosphane,CCOP(=S)(C1=CC=CC=C1)OC2=CC=C(C=C2)[N+](=O)[O-],303.15,pubchem,1
"[2,3-dihydroxy-5-[[(2R,3R,4S,5R,6S)-3,4,5,6-tetrakis[[3,4-dihydroxy-5-(3,4,5-trihydroxybenzoyl)oxybenzoyl]oxy]oxan-2-yl]methoxycarbonyl]phenyl] 3,4,5-trihydroxybenzoate",C1=C(C=C(C(=C1O)O)O)C(=O)OC2=CC(=CC(=C2O)O)C(=O)OCC3C(C(C(C(O3)OC(=O)C4=CC(=C(C(=C4)OC(=O)C5=CC(=C(C(=C5)O)O)O)O)O)OC(=O)C6=CC(=C(C(=C6)OC(=O)C7=CC(=C(C(=C7)O)O)O)O)O)OC(=O)C8=CC(=C(C(=C8)OC(=O)C9=CC(=C(C(=C9)O)O)O)O)O)OC(=O)C1=CC(=C(C(=C1)OC(=O)C1=CC(=C(C(=C1)O)O)O)O)O,472.15,pubchem,1
"[2,3-dihydroxy-5-[[3,4,5,6-tetrakis[[3,4-dihydroxy-5-(3,4,5-trihydroxybenzoyl)oxybenzoyl]oxy]oxan-2-yl]methoxycarbonyl]phenyl] 3,4,5-trihydroxybenzoate",C1=C(C=C(C(=C1O)O)O)C(=O)OC2=CC(=CC(=C2O)O)C(=O)OCC3C(C(C(C(O3)OC(=O)C4=CC(=C(C(=C4)OC(=O)C5=CC(=C(C(=C5)O)O)O)O)O)OC(=O)C6=CC(=C(C(=C6)OC(=O)C7=CC(=C(C(=C7)O)O)O)O)O)OC(=O)C8=CC(=C(C(=C8)OC(=O)C9=CC(=C(C(=C9)O)O)O)O)O)OC(=O)C1=CC(=C(C(=C1)OC(=O)C1=CC(=C(C(=C1)O)O)O)O)O,472.15,pubchem,1
"[2,3-dihydroxy-5-[[(2R,3R,4S,5R)-3,4,5,6-tetrakis[[3,4-dihydroxy-5-(3,4,5-trihydroxybenzoyl)oxybenzoyl]oxy]oxan-2-yl]methoxycarbonyl]phenyl] 3,4,5-trihydroxybenzoate",C1=C(C=C(C(=C1O)O)O)C(=O)OC2=CC(=CC(=C2O)O)C(=O)OCC3C(C(C(C(O3)OC(=O)C4=CC(=C(C(=C4)OC(=O)C5=CC(=C(C(=C5)O)O)O)O)O)OC(=O)C6=CC(=C(C(=C6)OC(=O)C7=CC(=C(C(=C7)O)O)O)O)O)OC(=O)C8=CC(=C(C(=C8)OC(=O)C9=CC(=C(C(=C9)O)O)O)O)O)OC(=O)C1=CC(=C(C(=C1)OC(=O)C1=CC(=C(C(=C1)O)O)O)O)O,472.15,pubchem,1
"[2,3-dihydroxy-5-[[(2S,3S,4R,5S,6R)-3,4,5,6-tetrakis[[3,4-dihydroxy-5-(3,4,5-trihydroxybenzoyl)oxybenzoyl]oxy]oxan-2-yl]methoxycarbonyl]phenyl] 3,4,5-trihydroxybenzoate",C1=C(C=C(C(=C1O)O)O)C(=O)OC2=CC(=CC(=C2O)O)C(=O)OCC3C(C(C(C(O3)OC(=O)C4=CC(=C(C(=C4)OC(=O)C5=CC(=C(C(=C5)O)O)O)O)O)OC(=O)C6=CC(=C(C(=C6)OC(=O)C7=CC(=C(C(=C7)O)O)O)O)O)OC(=O)C8=CC(=C(C(=C8)OC(=O)C9=CC(=C(C(=C9)O)O)O)O)O)OC(=O)C1=CC(=C(C(=C1)OC(=O)C1=CC(=C(C(=C1)O)O)O)O)O,472.15,pubchem,1
"[2,3-dihydroxy-5-[[(2R,3R,4S,5R,6R)-3,4,5,6-tetrakis[[3,4-dihydroxy-5-(3,4,5-trihydroxybenzoyl)oxybenzoyl]oxy]oxan-2-yl]methoxycarbonyl]phenyl] 3,4,5-trihydroxybenzoate",C1=C(C=C(C(=C1O)O)O)C(=O)OC2=CC(=CC(=C2O)O)C(=O)OCC3C(C(C(C(O3)OC(=O)C4=CC(=C(C(=C4)OC(=O)C5=CC(=C(C(=C5)O)O)O)O)O)OC(=O)C6=CC(=C(C(=C6)OC(=O)C7=CC(=C(C(=C7)O)O)O)O)O)OC(=O)C8=CC(=C(C(=C8)OC(=O)C9=CC(=C(C(=C9)O)O)O)O)O)OC(=O)C1=CC(=C(C(=C1)OC(=O)C1=CC(=C(C(=C1)O)O)O)O)O,472.15,pubchem,1
formaldehyde;isocyanatobenzene,C=O.C1=CC=C(C=C1)N=C=O,491.15,pubchem,1
1-ethenyl-2-methylbenzene;1-ethenyl-3-methylbenzene;1-ethenyl-4-methylbenzene,CC1=CC=C(C=C1)C=C.CC1=CC=CC(=C1)C=C.CC1=CC=CC=C1C=C,325.15,pubchem,1
acetyloxy(phenyl)mercury,CC(=O)O[Hg]C1=CC=CC=C1,333.15,pubchem,1
[dibutyl(dodecanoyloxy)stannyl] dodecanoate,CCCCCCCCCCCC(=O)O[Sn](CCCC)(CCCC)OC(=O)CCCCCCCCCCC,508.15,pubchem,1
[acetyloxy(dibutyl)stannyl] acetate,CCCC[Sn](CCCC)(OC(=O)C)OC(=O)C,416.15,pubchem,1
triethylalumane,CC[Al](CC)CC,220.14999999999998,pubchem,1
tris(2-methylpropyl)alumane,CC(C)C[Al](CC(C)C)CC(C)C,250.14999999999998,pubchem,1
"1,2-dichloropropane;(E)-1,3-dichloroprop-1-ene",CC(CCl)Cl.C(C=CCl)Cl,290.15,pubchem,1
3-(3-ethylcyclopentyl)propanoic acid,CCC1CCC(C1)CCC(=O)O,374.15,pubchem,1
2-[2-[2-(2-hydroxyethoxy)ethoxy]ethoxy]-1-methoxyethanol,COC(COCCOCCOCCO)O,434.15,pubchem,1
dimethyl phosphite,COP([O-])OC,343.15,pubchem,1
2-(2-methoxypropoxy)propyl acetate,CC(COC(C)COC(=O)C)OC,359.15,pubchem,1
"cyclopenta-1,3-diene;nickel(2+)",C1C=CC=[C-]1.C1C=CC=[C-]1.[Ni+2],277.15,pubchem,1
3-methylhexanoate,CCCC(C)CC(=O)[O-],305.15,pubchem,1
zinc;bis(6-methylheptoxy)-sulfanylidene-sulfido-λ5-phosphane,CC(C)CCCCCOP(=S)(OCCCCCC(C)C)[S-].CC(C)CCCCCOP(=S)(OCCCCCC(C)C)[S-].[Zn+2],433.15,pubchem,1
zinc;octadecanoic acid,CCCCCCCCCCCCCCCCCC(=O)O.[Zn+2],550.15,pubchem,1
1-(3-methoxypropoxy)propan-1-ol,CCC(O)OCCCOC,347.15,pubchem,1
1-cyclohex-2-en-1-yl-4-cyclohex-3-en-1-ylbenzene,C1CC=CC(C1)C2=CC=C(C=C2)C3CCC=CC3,430.15,pubchem,1
"[(1S,6R,10S,11R,13S,14R)-13-acetyloxy-1,6-dihydroxy-8-(hydroxymethyl)-4,12,12,15-tetramethyl-5-oxo-14-tetracyclo[8.5.0.02,6.011,13]pentadeca-3,8-dienyl] tetradecanoate",CCCCCCCCCCCCCC(=O)OC1C(C2(C(C=C(CC3(C2C=C(C3=O)C)O)CO)C4C1(C4(C)C)OC(=O)C)O)C,310.15,pubchem,1
"[cyano-(3-phenoxyphenyl)methyl] (1R,3S)-2,2-dimethyl-3-[(1S)-1,2,2,2-tetrabromoethyl]cyclopropane-1-carboxylate",CC1(C(C1C(=O)OC(C#N)C2=CC(=CC=C2)OC3=CC=CC=C3)C(C(Br)(Br)Br)Br)C,299.15,pubchem,1
aziridin-1-ium,C1C[NH2+]1,262.15,pubchem,1
potassium;methanolate,C[O-].[K+],284.15,pubchem,1
potassium;(Z)-octadec-9-enoate,CCCCCCCCC=CCCCCCCCC(=O)[O-].[K+],333.15,pubchem,1
potassium;(E)-octadec-9-enoate,CCCCCCCCC=CCCCCCCCC(=O)[O-].[K+],333.15,pubchem,1
"(4aR)-1,4a-dimethyl-7-propan-2-yl-2,3,4,4b,5,6,10,10a-octahydrophenanthrene-1-carboxylic acid",CC(C)C1=CC2=CCC3C(C2CC1)(CCCC3(C)C(=O)O)C,460.15,pubchem,1
"(1S,2S,3R,4R,6S)-1,3,4,7,8,9,10,10-octachlorotricyclo[5.2.1.02,6]dec-8-ene",C1C2C(C(C1Cl)Cl)C3(C(=C(C2(C3(Cl)Cl)Cl)Cl)Cl)Cl,380.15,pubchem,1
"(1S,7R)-4-(2-ethylhexyl)-4-azatricyclo[5.2.1.02,6]dec-8-ene-3,5-dione",CCCCC(CC)CN1C(=O)C2C3CC(C2C1=O)C=C3,450.15,pubchem,1
"(2R,3R,4R,5S,6R)-5-[(2R,3R,4R,5S,6R)-3,4-dihydroxy-6-(hydroxymethyl)-5-sulfanyloxan-2-yl]oxy-6-(hydroxymethyl)-2-methoxyoxane-3,4-diol",COC1C(C(C(C(O1)CO)OC2C(C(C(C(O2)CO)S)O)O)O)O,265.15,pubchem,1
butan-1-ol;titanium,CCCCO.[Ti],350.15,pubchem,1
"(2-methyl-3-phenylphenyl)methyl (1R,3S)-3-[(E)-2-chloro-3,3,3-trifluoroprop-1-enyl]-2,2-dimethylcyclopropane-1-carboxylate",CC1=C(C=CC=C1COC(=O)C2C(C2(C)C)C=C(C(F)(F)F)Cl)C3=CC=CC=C3,438.15,pubchem,1
[(2R)-2-hydroxypropyl] prop-2-enoate,CC(COC(=O)C=C)O,338.15,pubchem,1