compound,smiles,flashpoint,source,pure substance
1-aminopropan-2-ol,CC(CN)O,350.15,pubchem,1
"1-chloro-2,4-dinitrobenzene",C1=CC(=C(C=C1[N+](=O)[O-])[N+](=O)[O-])Cl,467.15,pubchem,1
"1,2-dichloroethane",C(CCl)Cl,286.15,pubchem,1
"1,2,4-trichlorobenzene",C1=CC(=C(C=C1Cl)Cl)Cl,383.15,pubchem,1
2-chloroacetaldehyde,C(C=O)Cl,361.15,pubchem,1
2-chloroethanol,C(CCl)O,333.15,pubchem,1
"ethane-1,2-diol",C(CO)O,384.15,pubchem,1
acetic acid,CC(=O)O,313.15,pubchem,1
acetaldehyde,CC=O,233.14999999999998,pubchem,1
3-hydroxybutan-2-one,CC(C(=O)C)O,314.15,pubchem,1
propan-2-one,CC(=O)C,255.14999999999998,pubchem,1
hexanedioic acid,C(CCC(=O)O)CC(=O)O,464.15,pubchem,1
azane,N,405.15,pubchem,1
2-aminobenzoic acid,C1=CC=C(C(=C1)C(=O)O)N,444.15,pubchem,1
benzaldehyde,C1=CC=C(C=C1)C=O,337.15,pubchem,1
benzene,C1=CC=CC=C1,262.15,pubchem,1
benzoate,C1=CC=C(C=C1)C(=O)[O-],394.15,pubchem,1
benzoic acid,C1=CC=C(C=C1)C(=O)O,394.15,pubchem,1
phenylmethanol,C1=CC=C(C=C1)CO,374.15,pubchem,1
butanal,CCCC=O,266.15,pubchem,1
"butane-2,3-diol",CC(C(C)O)O,358.15,pubchem,1
butan-1-ol,CCCCO,302.15,pubchem,1
butanoic acid,CCCC(=O)O,350.15,pubchem,1
"pentane-1,5-diamine",C(CCN)CCN,335.15,pubchem,1
formic acid,C(=O)O,342.15,pubchem,1
"benzene-1,2-diol",C1=CC=C(C(=C1)O)O,400.15,pubchem,1
methane,C,85.14999999999998,pubchem,1
2-chloroacetic acid,C(C(=O)O)Cl,423.15,pubchem,1
3-phenylprop-2-enal,C1=CC=C(C=C1)C=CC=O,393.15,pubchem,1
3-phenylprop-2-en-1-ol,C1=CC=C(C=C1)C=CCO,399.15,pubchem,1
"2-hydroxypropane-1,2,3-tricarboxylic acid",C(C(=O)O)C(CC(=O)O)(C(=O)O)O,373.15,pubchem,1
chromen-2-one,C1=CC=C2C(=C1)C=CC(=O)O2,424.15,pubchem,1
2-methylphenol,CC1=CC=CC=C1O,354.15,pubchem,1
2-hydroxybenzoic acid,C1=CC=C(C(=C1)C(=O)O)O,430.15,pubchem,1
3-methylphenol,CC1=CC(=CC=C1)O,359.15,pubchem,1
octane,CCCCCCCC,286.15,pubchem,1
octanoic acid,CCCCCCCC(=O)O,383.15,pubchem,1
2-nitropropane,CC(C)[N+](=O)[O-],297.15,pubchem,1
sulfane,S,480.15,pubchem,1
4-aminophenol,C1=CC(=CC=C1N)O,468.15,pubchem,1
"propane-1,3-diamine",C(CN)CN,297.15,pubchem,1
octanal,CCCCCCCC=O,325.15,pubchem,1
2-methoxyphenol,COC1=CC=CC=C1O,347.15,pubchem,1
propanal,CCC=O,264.15,pubchem,1
2-hydroxypropanoic acid,CC(C(=O)O)O,386.15,pubchem,1
"butane-2,3-dione",CC(=O)C(=O)C,300.15,pubchem,1
"3,4-dihydrochromen-2-one",C1CC(=O)OC2=CC=CC=C21,403.15,pubchem,1
N-methylmethanamine,CNC,266.15,pubchem,1
methylsulfinylmethane,CS(=O)C,368.15,pubchem,1
2-aminoethanol,C(CO)N,366.15,pubchem,1
ethanol,CCO,286.15,pubchem,1
formaldehyde,C=O,333.15,pubchem,1
formamide,C(=O)N,427.15,pubchem,1
"propane-1,2,3-triol",C(C(CO)O)O,433.15,pubchem,1
formonitrile,C#N,255.14999999999998,pubchem,1
"benzene-1,4-diol",C1=CC(=CC=C1O)O,438.15,pubchem,1
hydroxylamine,NO,402.15,pubchem,1
1H-imidazole,C1=CN=CN1,418.15,pubchem,1
"2,3-dihydroxybutanedioic acid",C(C(C(=O)O)O)(C(=O)O)O,483.15,pubchem,1
methanethiol,CS,255.14999999999998,pubchem,1
methanol,CO,284.15,pubchem,1
N-phenylacetamide,CC(=O)NC1=CC=CC=C1,447.15,pubchem,1
naphthalene,C1=CC=C2C=CC=CC2=C1,361.15,pubchem,1
pyridine-3-carboxamide,C1=CC(=CN=C1)C(=O)N,455.15,pubchem,1
pyridine-3-carboxylic acid,C1=CC(=CN=C1)C(=O)O,466.15,pubchem,1
3-(1-methylpyrrolidin-2-yl)pyridine,CN1CCCC1C2=CN=CC=C2,374.15,pubchem,1
"N,N-dimethylaniline",CN(C)C1=CC=CC=C1,336.15,pubchem,1
octan-1-ol,CCCCCCCCO,354.15,pubchem,1
4-nitrophenol,C1=CC(=CC=C1[N+](=O)[O-])O,465.15,pubchem,1
diethoxy-(4-nitrophenoxy)-sulfanylidene-λ5-phosphane,CCOP(=S)(OCC)OC1=CC=C(C=C1)[N+](=O)[O-],393.15,pubchem,1
phenanthrene,C1=CC=C2C(=C1)C=CC3=CC=CC=C32,444.15,pubchem,1
phenol,C1=CC=C(C=C1)O,352.15,pubchem,1
2-phenylacetic acid,C1=CC=C(C=C1)CC(=O)O,405.15,pubchem,1
phthalic acid,C1=CC=C(C(=C1)C(=O)O)C(=O)O,441.15,pubchem,1
"propane-1,2-diol",CC(CO)O,372.15,pubchem,1
propan-1-ol,CCCO,298.15,pubchem,1
propanoic acid,CCC(=O)O,327.15,pubchem,1
pyridine,C1=CC=NC=C1,293.15,pubchem,1
methylsulfanylmethane,CSC,235.14999999999998,pubchem,1
butanedioic acid,C(CC(=O)O)C(=O)O,433.15,pubchem,1
thiolane,C1CCSC1,286.15,pubchem,1
2-sulfanylacetic acid,C(C(=O)O)S,386.15,pubchem,1
toluene,CC1=CC=CC=C1,277.15,pubchem,1
4-hydroxy-3-methoxybenzaldehyde,COC1=C(C=CC(=C1)C=O)O,426.15,pubchem,1
N-methyl-1-phenylpropan-2-amine,CC(CC1=CC=CC=C1)NC,282.15,pubchem,1
5-methyl-2-propan-2-ylcyclohexan-1-ol,CC1CCC(C(C1)O)C(C)C,364.15,pubchem,1
2-sulfanylethanol,C(CS)O,347.15,pubchem,1
pyridin-4-amine,C1=CN=CC=C1N,437.15,pubchem,1
4-chloro-3-methylphenol,CC1=C(C=CC(=C1)O)Cl,383.15,pubchem,1
4-nonylphenol,CCCCCCCCCC1=CC=C(C=C1)O,386.15,pubchem,1
"2-chloro-N-(2,6-diethylphenyl)-N-(methoxymethyl)acetamide",CCC1=C(C(=CC=C1)CC)N(COC)C(=O)CCl,410.15,pubchem,1
2-acetyloxybenzoic acid,CC(=O)OC1=CC=CC=C1C(=O)O,523.15,pubchem,1
nonanedioic acid,C(CCCC(=O)O)CCCC(=O)O,483.15,pubchem,1
benzyl benzoate,C1=CC=C(C=C1)COC(=O)C2=CC=CC=C2,421.15,pubchem,1
"2-O-benzyl 1-O-butyl benzene-1,2-dicarboxylate",CCCCOC(=O)C1=CC=CC=C1C(=O)OCC2=CC=CC=C2,472.15,pubchem,1
oxetan-2-one,C1COC1=O,343.15,pubchem,1
"2-bromo-2-nitropropane-1,3-diol",C(C(CO)([N+](=O)[O-])Br)O,440.15,pubchem,1
"1,7,7-trimethylbicyclo[2.2.1]heptan-2-one",CC1(C2CCC1(C(=O)C2)C)C,339.15,pubchem,1
"diethoxy-sulfanylidene-(3,5,6-trichloropyridin-2-yl)oxy-λ5-phosphane",CCOP(=S)(OCC)OC1=NC(=C(C=C1Cl)Cl)Cl,301.15,pubchem,1
"1,3,3-trimethyl-2-oxabicyclo[2.2.2]octane",CC1(C2CCC(O1)(CC2)C)C,322.15,pubchem,1
4-methylphenol,CC1=CC=C(C=C1)O,359.15,pubchem,1
"N,N-bis(2-chloroethyl)-2-oxo-1,3,2λ5-oxazaphosphinan-2-amine",C1CNP(=O)(OC1)N(CCCl)CCCl,386.15,pubchem,1
decanoic acid,CCCCCCCCCC(=O)O,386.15,pubchem,1
1-phenylpropan-2-amine,CC(CC1=CC=CC=C1)N,300.15,pubchem,1
"dibutyl benzene-1,2-dicarboxylate",CCCCOC(=O)C1=CC=CC=C1C(=O)OCCCC,430.15,pubchem,1
"3,4,5,6,13,13-hexachloro-10-oxapentacyclo[6.3.1.13,6.02,7.09,11]tridec-4-ene",C1C2C3C(C1C4C2O4)C5(C(=C(C3(C5(Cl)Cl)Cl)Cl)Cl)Cl,300.15,pubchem,1
2-dimethoxyphosphinothioylsulfanyl-N-methylacetamide,CNC(=O)CSP(=S)(OC)OC,324.15,pubchem,1
2-propylpentanoic acid,CCCC(CCC)C(=O)O,384.15,pubchem,1
ethoxyethane,CCOCC,228.14999999999998,pubchem,1
diethoxyphosphinothioylsulfanylmethylsulfanyl-diethoxy-sulfanylidene-λ5-phosphane,CCOP(=S)(OCC)SCSP(=S)(OCC)OCC,449.15,pubchem,1
"6-ethoxy-2,2,4-trimethyl-1H-quinoline",CCOC1=CC2=C(C=C1)NC(C=C2C)(C)C,380.15,pubchem,1
"ethane-1,2-diamine",C(CN)N,307.15,pubchem,1
2-methoxy-4-prop-2-enylphenol,COC1=C(C=CC(=C1)CC=C)O,377.15,pubchem,1
dimethoxy-(3-methyl-4-methylsulfanylphenoxy)-sulfanylidene-λ5-phosphane,CC1=C(C=CC(=C1)OP(=S)(OC)OC)SC,443.15,pubchem,1
furan-2-ylmethanamine,C1=COC(=C1)CN,310.15,pubchem,1
"3,4,6-trichloro-2-[(2,3,5-trichloro-6-hydroxyphenyl)methyl]phenol",C1=C(C(=C(C(=C1Cl)Cl)CC2=C(C(=CC(=C2Cl)Cl)Cl)O)O)Cl,319.15,pubchem,1
pyridine-4-carbohydrazide,C1=CN=CC=C1C(=O)NN,463.15,pubchem,1
propan-2-ol,CC(C)O,285.15,pubchem,1
dodecanoic acid,CCCCCCCCCCCC(=O)O,386.15,pubchem,1
2-methylprop-2-enoic acid,CC(=C)C(=O)O,350.15,pubchem,1
"1,3,5,7-tetrazatricyclo[3.3.1.13,7]decane",C1N2CN3CN1CN(C2)C3,523.15,pubchem,1
"2,2-dichloro-1,1-difluoro-1-methoxyethane",COC(C(Cl)Cl)(F)F,336.15,pubchem,1
methyl 2-hydroxybenzoate,COC(=O)C1=CC=CC=C1O,369.15,pubchem,1
methyl methanesulfonate,COS(=O)(=O)C,377.15,pubchem,1
"N,N-diethyl-3-methylbenzamide",CCN(CC)C(=O)C1=CC(=CC=C1)C,428.15,pubchem,1
(2-hydroxy-4-methoxyphenyl)-phenylmethanone,COC1=CC(=C(C=C1)C(=O)C2=CC=CC=C2)O,373.15,pubchem,1
"cyclohexa-2,5-diene-1,4-dione",C1=CC(=O)C=CC1=O,566.15,pubchem,1
4-chlorophenol,C1=CC(=CC=C1O)Cl,394.15,pubchem,1
"1,4-dichlorobenzene",C1=CC(=CC=C1Cl)Cl,339.15,pubchem,1
4-[5-(4-carbamimidoylphenoxy)pentoxy]benzenecarboximidamide,C1=CC(=CC=C1C(=N)N)OCCCCCOC2=CC=C(C=C2)C(=N)N,376.15,pubchem,1
"5-ethyl-5-phenyl-1,3-diazinane-2,4,6-trione",CCC1(C(=O)NC(=O)NC1=O)C2=CC=CC=C2,447.15,pubchem,1
diethoxy-(ethylsulfanylmethylsulfanyl)-sulfanylidene-λ5-phosphane,CCOP(=S)(OCC)SCSCC,433.15,pubchem,1
"[13-acetyloxy-1,6-dihydroxy-8-(hydroxymethyl)-4,12,12,15-tetramethyl-5-oxo-14-tetracyclo[8.5.0.02,6.011,13]pentadeca-3,8-dienyl] tetradecanoate",CCCCCCCCCCCCCC(=O)OC1C(C2(C(C=C(CC3(C2C=C(C3=O)C)O)CO)C4C1(C4(C)C)OC(=O)C)O)C,310.15,pubchem,1
"6-chloro-3-(diethoxyphosphinothioylsulfanylmethyl)-1,3-benzoxazol-2-one",CCOP(=S)(OCC)SCN1C2=C(C=C(C=C2)Cl)OC1=O,373.15,pubchem,1
piperazine,C1CNCCN1,361.15,pubchem,1
1-[2-[2-hydroxy-3-(propylamino)propoxy]phenyl]-3-phenylpropan-1-one,CCCNCC(COC1=CC=CC=C1C(=O)CCC2=CC=CC=C2)O,472.15,pubchem,1
[2-(4-tert-butylphenoxy)cyclohexyl] prop-2-ynyl sulfite,CC(C)(C)C1=CC=C(C=C1)OC2CCCCC2OS(=O)OCC#C,301.15,pubchem,1
"propyl 3,4,5-trihydroxybenzoate",CCCOC(=O)C1=CC(=C(C(=C1)O)O)O,460.15,pubchem,1
"2-[2-(4-benzo[b][1,4]benzothiazepin-6-ylpiperazin-1-yl)ethoxy]ethanol",C1CN(CCN1CCOCCO)C2=NC3=CC=CC=C3SC4=CC=CC=C42,282.15,pubchem,1
"benzene-1,3-diol",C1=CC(=CC(=C1)O)O,400.15,pubchem,1
2-aminopropan-1-ol,CC(CO)N,336.15,pubchem,1
"5-prop-2-enyl-1,3-benzodioxole",C=CCC1=CC2=C(C=C1)OCO2,371.15,pubchem,1
decanedioic acid,C(CCCCC(=O)O)CCCC(=O)O,493.15,pubchem,1
"hexa-2,4-dienoic acid",CC=CC=CC(=O)O,400.15,pubchem,1
octadecanoic acid,CCCCCCCCCCCCCCCCCC(=O)O,469.15,pubchem,1
2-(2-hydroxyethylsulfanyl)ethanol,C(CSCCO)O,386.15,pubchem,1
"dimethylcarbamothioylsulfanyl N,N-dimethylcarbamodithioate",CN(C)C(=S)SSC(=S)N(C)C,411.15,pubchem,1
"N,N-diethylpyridine-3-carboxamide",CCN(CC)C(=O)C1=CN=CC=C1,386.15,pubchem,1
"2,3-diacetyloxypropyl acetate",CC(=O)OCC(COC(=O)C)OC(=O)C,411.15,pubchem,1
"S-(2,3,3-trichloroprop-2-enyl) N,N-di(propan-2-yl)carbamothioate",CC(C)N(C(C)C)C(=O)SCC(=C(Cl)Cl)Cl,363.15,pubchem,1
"N'-[2-(2-aminoethylamino)ethyl]ethane-1,2-diamine",C(CNCCNCCN)N,408.15,pubchem,1
ethyl carbamate,CCOC(=O)N,365.15,pubchem,1
"(2R,3R,4R,5S)-hexane-1,2,3,4,5,6-hexol",C(C(C(C(C(CO)O)O)O)O)O,556.15,pubchem,1
"5-[2-(2-butoxyethoxy)ethoxymethyl]-6-propyl-1,3-benzodioxole",CCCCOCCOCCOCC1=CC2=C(C=C1CCC)OCO2,444.15,pubchem,1
2-aminophenol,C1=CC=C(C(=C1)N)O,441.15,pubchem,1
"N,N-diethylnitrous amide",CCN(CC)N=O,336.15,pubchem,1
"N'-(3-aminopropyl)propane-1,3-diamine",C(CN)CNCCCN,352.15,pubchem,1
3-isothiocyanatoprop-1-ene,C=CCN=C=S,319.15,pubchem,1
"1,1-dimethylhydrazine",CN(C)N,258.15,pubchem,1
"1,3,4,7,8,9,10,10-octachlorotricyclo[5.2.1.02,6]dec-8-ene",C1C2C(C(C1Cl)Cl)C3(C(=C(C2(C3(Cl)Cl)Cl)Cl)Cl)Cl,380.15,pubchem,1
"7,12-dimethylbenzo[a]anthracene",CC1=C2C=CC3=CC=CC=C3C2=C(C4=CC=CC=C14)C,359.15,pubchem,1
"(8R,9S,10R,13S,14S,17S)-17-hydroxy-10,13,17-trimethyl-2,6,7,8,9,11,12,14,15,16-decahydro-1H-cyclopenta[a]phenanthren-3-one",CC12CCC(=O)C=C1CCC3C2CCC4(C3CCC4(C)O)C,278.15,pubchem,1
"2,3,4,6-tetrachlorophenol",C1=C(C(=C(C(=C1Cl)Cl)Cl)O)Cl,373.15,pubchem,1
"2,3-di(butanoyloxy)propyl butanoate",CCCC(=O)OCC(COC(=O)CCC)OC(=O)CCC,629.15,pubchem,1
2-phenylethanol,C1=CC=C(C=C1)CCO,369.15,pubchem,1
methylhydrazine,CNN,343.15,pubchem,1
4-methylbenzenesulfonic acid,CC1=CC=C(C=C1)S(=O)(=O)O,457.15,pubchem,1
4-nitrobenzoic acid,C1=CC(=CC=C1C(=O)O)[N+](=O)[O-],475.15,pubchem,1
ethyl methanesulfonate,CCOS(=O)(=O)C,373.15,pubchem,1
aniline,C1=CC=C(C=C1)N,343.15,pubchem,1
"N,N-dimethylnitrous amide",CN(C)N=O,334.15,pubchem,1
diethyl sulfate,CCOS(=O)(=O)OCC,377.15,pubchem,1
hexanal,CCCCCC=O,305.15,pubchem,1
2-bromoacetic acid,C(C(=O)O)Br,386.15,pubchem,1
"N,N-dimethylformamide",CN(C)C=O,340.15,pubchem,1
4-methylbenzenesulfonamide,CC1=CC=C(C=C1)S(=O)(=O)N,475.15,pubchem,1
pentan-1-ol,CCCCCO,306.15,pubchem,1
4-chlorobenzoic acid,C1=CC(=CC=C1C(=O)O)Cl,511.15,pubchem,1
"1-N,4-N-diphenylbenzene-1,4-diamine",C1=CC=C(C=C1)NC2=CC=C(C=C2)NC3=CC=CC=C3,477.15,pubchem,1
ethane,CC,138.14999999999998,pubchem,1
ethene,C=C,137.14999999999998,pubchem,1
acetylene,C#C,255.14999999999998,pubchem,1
chloromethane,CCl,228.14999999999998,pubchem,1
methanamine,CN,273.15,pubchem,1
bromoethane,CCBr,250.14999999999998,pubchem,1
propane,CCC,169.14999999999998,pubchem,1
chloroethane,CCCl,223.14999999999998,pubchem,1
chloroethene,C=CCl,194.14999999999998,pubchem,1
iodoethane,CCI,334.15,pubchem,1
acetonitrile,CC#N,279.15,pubchem,1
methanedithione,C(=S)=S,243.14999999999998,pubchem,1
oxirane,C1CO1,255.14999999999998,pubchem,1
2-bromopropane,CC(C)Br,344.15,pubchem,1
2-methylpropane,CC(C)C,190.14999999999998,pubchem,1
2-chloropropane,CC(C)Cl,241.14999999999998,pubchem,1
propan-2-amine,CC(C)N,236.14999999999998,pubchem,1
propane-2-thiol,CC(C)S,239.14999999999998,pubchem,1
"1,1-dichloroethane",CC(Cl)Cl,267.15,pubchem,1
"1,1-dichloroethene",C=C(Cl)Cl,263.15,pubchem,1
acetyl chloride,CC(=O)Cl,277.15,pubchem,1
nitromethane,C[N+](=O)[O-],308.15,pubchem,1
2-methylaziridine,CC1CN1,269.15,pubchem,1
2-methyloxirane,CC1CO1,236.14999999999998,pubchem,1
2-methylpropan-2-amine,CC(C)(C)N,283.15,pubchem,1
2-methylpropan-2-ol,CC(C)(C)O,284.15,pubchem,1
tetramethylplumbane,C[Pb](C)(C)C,311.15,pubchem,1
methanesulfonic acid,CS(=O)(=O)O,462.15,pubchem,1
tetramethylsilane,C[Si](C)(C)C,246.14999999999998,pubchem,1
chloro(trimethyl)silane,C[Si](C)(C)Cl,255.14999999999998,pubchem,1
dichloro(dimethyl)silane,C[Si](C)(Cl)Cl,264.15,pubchem,1
trichloro(methyl)silane,C[Si](Cl)(Cl)Cl,264.15,pubchem,1
"2,2-dimethylbutane",CCC(C)(C)C,225.14999999999998,pubchem,1
"2,2-dimethylpropan-1-ol",CC(C)(C)CO,310.15,pubchem,1
2-methylbutan-2-ol,CCC(C)(C)O,292.15,pubchem,1
2-hydroxy-2-methylpropanenitrile,CC(C)(C#N)O,347.15,pubchem,1
"2,2,2-trichloroacetaldehyde",C(=O)C(Cl)(Cl)Cl,348.15,pubchem,1
2-hydroperoxy-2-methylpropane,CC(C)(C)OO,300.15,pubchem,1
trichloro(ethenyl)silane,C=C[Si](Cl)(Cl)Cl,294.15,pubchem,1
"3,3-dimethylbutan-2-one",CC(=O)C(C)(C)C,278.15,pubchem,1
"2,2-dimethylpropanoic acid",CC(C)(C)C(=O)O,337.15,pubchem,1
"(1,7,7-trimethyl-2-bicyclo[2.2.1]heptanyl) acetate",CC(=O)OC1CC2CCC1(C2(C)C)C,361.15,pubchem,1
"(3-hydroxy-2,2,4-trimethylpentyl) 2-methylpropanoate",CC(C)C(C(C)(C)COC(=O)C(C)C)O,393.15,pubchem,1
"tricyclo[5.2.1.02,6]deca-3,8-diene",C1C=CC2C1C3CC2C=C3,305.15,pubchem,1
1-ethenylsulfonylethene,C=CS(=O)(=O)C=C,376.15,pubchem,1
dimethyl sulfate,COS(=O)(=O)OC,356.15,pubchem,1
"2,5-dihydrothiophene 1,1-dioxide",C1C=CCS1(=O)=O,386.15,pubchem,1
[dimethylamino(ethoxy)phosphoryl]formonitrile,CCOP(=O)(C#N)N(C)C,351.15,pubchem,1
"tributyl 2-acetyloxypropane-1,2,3-tricarboxylate",CCCCOC(=O)CC(CC(=O)OCCCC)(C(=O)OCCCC)OC(=O)C,386.15,pubchem,1
"triethyl 2-hydroxypropane-1,2,3-tricarboxylate",CCOC(=O)CC(CC(=O)OCC)(C(=O)OCC)O,428.15,pubchem,1
"2-ethyl-2-(hydroxymethyl)propane-1,3-diol",CCC(CO)(CO)CO,445.15,pubchem,1
tetraethylplumbane,CC[Pb](CC)(CC)CC,366.15,pubchem,1
tetraethyl silicate,CCO[Si](OCC)(OCC)OCC,310.15,pubchem,1
1-(1-hydroperoxycyclohexyl)peroxycyclohexan-1-ol,C1CCC(CC1)(O)OOC2(CCCCC2)OO,430.15,pubchem,1
tris(2-methylphenyl) phosphate,CC1=CC=CC=C1OP(=O)(OC2=CC=CC=C2C)OC3=CC=CC=C3C,498.15,pubchem,1
tris(4-methylphenyl) phosphate,CC1=CC=C(C=C1)OP(=O)(OC2=CC=C(C=C2)C)OC3=CC=C(C=C3)C,483.15,pubchem,1
1-[ethoxy(ethyl)phosphoryl]oxyethane,CCOP(=O)(CC)OCC,377.15,pubchem,1
triethyl phosphate,CCOP(=O)(OCC)OCC,389.15,pubchem,1
tris(2-ethylhexyl) phosphate,CCCCC(CC)COP(=O)(OCC(CC)CCCC)OCC(CC)CCCC,425.15,pubchem,1
1-[butoxy(butyl)phosphoryl]oxybutane,CCCCOP(=O)(CCCC)OCCCC,427.15,pubchem,1
tris(2-butoxyethyl) phosphate,CCCCOCCOP(=O)(OCCOCCCC)OCCOCCCC,497.15,pubchem,1
"3,5,5-trimethylcyclohex-2-en-1-one",CC1=CC(=O)CC(C1)(C)C,357.15,pubchem,1
"2,5-bis(tert-butylperoxy)-2,5-dimethylhexane",CC(C)(C)OOC(C)(C)CCC(C)(C)OOC(C)(C)C,358.15,pubchem,1
"3,7-dimethylocta-1,6-dien-3-ol",CC(=CCCC(C)(C=C)O)C,351.15,pubchem,1
2-bromobutane,CCC(C)Br,294.15,pubchem,1
2-methylbutane,CCC(C)C,216.14999999999998,pubchem,1
"2-methylbuta-1,3-diene",CC(=C)C=C,219.14999999999998,pubchem,1
2-methylpropan-1-amine,CC(C)CN,264.15,pubchem,1
2-methylpropanenitrile,CC(C)C#N,281.15,pubchem,1
2-methylpropan-1-ol,CC(C)CO,301.15,pubchem,1
2-methylpropanal,CC(C)C=O,233.14999999999998,pubchem,1
2-methylprop-2-enal,CC(=C)C=O,275.15,pubchem,1
"1,2-dichloropropane",CC(CCl)Cl,289.15,pubchem,1
"2,3-dichloroprop-1-ene",C=C(CCl)Cl,283.15,pubchem,1
2-chloropropan-1-ol,CC(CO)Cl,325.15,pubchem,1
"propane-1,2-diamine",CC(CN)N,306.15,pubchem,1
butan-2-ol,CCC(C)O,297.15,pubchem,1
butan-2-one,CCC(=O)C,270.15,pubchem,1
but-3-en-2-one,CC(=O)C=C,266.15,pubchem,1
1-chloropropan-2-one,CC(=O)CCl,313.15,pubchem,1
2-hydroxypropanenitrile,CC(C#N)O,350.15,pubchem,1
"1,1-dichloropropane",CCC(Cl)Cl,294.15,pubchem,1
"2,2-dichloroacetaldehyde",C(=O)C(Cl)Cl,333.15,pubchem,1
2-chloroacetyl chloride,C(C(=O)Cl)Cl,373.15,pubchem,1
prop-2-enamide,C=CC(=O)N,411.15,pubchem,1
2-chloroacetamide,C(C(=O)N)Cl,443.15,pubchem,1
prop-2-enoic acid,C=CC(=O)O,327.15,pubchem,1
N-methylacetamide,CC(=O)NC,381.15,pubchem,1
methyl acetate,CC(=O)OC,263.15,pubchem,1
ethaneperoxoic acid,CC(=O)OO,314.15,pubchem,1
methyl carbonochloridate,COC(=O)Cl,285.15,pubchem,1
1-nitroethane,CC[N+](=O)[O-],314.15,pubchem,1
"1,1,2,2-tetrabromoethane",C(C(Br)Br)(Br)Br,608.15,pubchem,1
"2,3-dimethylbutane",CC(C)C(C)C,244.14999999999998,pubchem,1
2-methylpropanoic acid,CC(C)C(=O)O,329.15,pubchem,1
"2,2-dichloroacetyl chloride",C(C(=O)Cl)(Cl)Cl,339.15,pubchem,1
"1-chloro-1,2,2-trifluoroethene",C(=C(F)Cl)(F)F,246.14999999999998,pubchem,1
"N,N-dimethylcarbamoyl chloride",CN(C)C(=O)Cl,341.15,pubchem,1
"2,2-dimethyl-3-methylidenebicyclo[2.2.1]heptane",CC1(C2CCC(C2)C1=C)C,306.15,pubchem,1
4-[2-(4-hydroxyphenyl)propan-2-yl]phenol,CC(C)(C1=CC=C(C=C1)O)C2=CC=C(C=C2)O,352.15,pubchem,1
dichloro(diphenyl)silane,C1=CC=C(C=C1)[Si](C2=CC=CC=C2)(Cl)Cl,415.15,pubchem,1
2-hydroperoxypropan-2-ylbenzene,CC(C)(C1=CC=CC=C1)OO,330.15,pubchem,1
ethyl 4-methylbenzenesulfonate,CCOS(=O)(=O)C1=CC=C(C=C1)C,431.15,pubchem,1
4-(2-methylbutan-2-yl)phenol,CCC(C)(C)C1=CC=C(C=C1)O,384.15,pubchem,1
1-(2-hydroperoxypropan-2-yl)-4-methylcyclohexane,CC1CCC(CC1)C(C)(C)OO,326.15,pubchem,1
methyl 4-methylbenzenesulfonate,CC1=CC=C(C=C1)S(=O)(=O)OC,425.15,pubchem,1
4-(2-aminopropan-2-yl)-1-methylcyclohexan-1-amine,CC1(CCC(CC1)C(C)(C)N)N,366.15,pubchem,1
"2,6,6-trimethylbicyclo[3.1.1]hept-2-ene",CC1=CCC2CC1C2(C)C,306.15,pubchem,1
methyl 2-methylprop-2-enoate,CC(=C)C(=O)OC,283.15,pubchem,1
"1,3-dimethyl-2-nitrobenzene",CC1=C(C(=CC=C1)C)[N+](=O)[O-],361.15,pubchem,1
"3-oxatricyclo[7.3.1.05,13]trideca-1(12),5,7,9(13),10-pentaene-2,4-dione",C1=CC2=C3C(=C1)C(=O)OC(=O)C3=CC=C2,545.15,pubchem,1
"1,2,3,4,5-pentachloro-6-nitrobenzene",C1(=C(C(=C(C(=C1Cl)Cl)Cl)Cl)Cl)[N+](=O)[O-],400.15,pubchem,1
"1,2-dihydroacenaphthylene",C1CC2=CC=CC3=C2C1=CC=C3,398.15,pubchem,1
"2,6-dichlorobenzaldehyde",C1=CC(=C(C(=C1)Cl)C=O)Cl,408.15,pubchem,1
"1,2-dimethyl-3-nitrobenzene",CC1=C(C(=CC=C1)[N+](=O)[O-])C,380.15,pubchem,1
"naphthalene-1,5-diol",C1=CC2=C(C=CC=C2O)C(=C1)O,525.15,pubchem,1
"1,2-diphenylbenzene",C1=CC=C(C=C1)C2=CC=CC=C2C3=CC=CC=C3,436.15,pubchem,1
"dicyclohexyl benzene-1,2-dicarboxylate",C1CCC(CC1)OC(=O)C2=CC=CC=C2C(=O)OC3CCCCC3,480.15,pubchem,1
"anthracene-9,10-dione",C1=CC=C2C(=C1)C(=O)C3=CC=CC=C3C2=O,458.15,pubchem,1
"diethyl benzene-1,2-dicarboxylate",CCOC(=O)C1=CC=CC=C1C(=O)OCC,413.15,pubchem,1
"bis(2-methylpropyl) benzene-1,2-dicarboxylate",CC(C)COC(=O)C1=CC=CC=C1C(=O)OCC(C)C,469.15,pubchem,1
"dihexyl benzene-1,2-dicarboxylate",CCCCCCOC(=O)C1=CC=CC=C1C(=O)OCCCCCC,450.15,pubchem,1
"dinonyl benzene-1,2-dicarboxylate",CCCCCCCCCOC(=O)C1=CC=CC=C1C(=O)OCCCCCCCCC,489.15,pubchem,1
"didecyl benzene-1,2-dicarboxylate",CCCCCCCCCCOC(=O)C1=CC=CC=C1C(=O)OCCCCCCCCCC,505.15,pubchem,1
benzo[f]quinoline,C1=CC=C2C(=C1)C=CC3=C2C=CC=N3,439.15,pubchem,1
"3a,4,7,7a-tetrahydro-2-benzofuran-1,3-dione",C1C=CCC2C1C(=O)OC2=O,430.15,pubchem,1
"2-benzofuran-1,3-dione",C1=CC=C2C(=C1)C(=O)OC2=O,425.15,pubchem,1
"2-O-(2-butoxy-2-oxoethyl) 1-O-butyl benzene-1,2-dicarboxylate",CCCCOC(=O)COC(=O)C1=CC=CC=C1C(=O)OCCCC,472.15,pubchem,1
methyl 2-(methylamino)benzoate,CNC1=CC=CC=C1C(=O)OC,364.15,pubchem,1
"1,3-diethyl-1,3-diphenylurea",CCN(C1=CC=CC=C1)C(=O)N(CC)C2=CC=CC=C2,423.15,pubchem,1
1-nitro-2-phenylbenzene,C1=CC=C(C=C1)C2=CC=CC=C2[N+](=O)[O-],416.15,pubchem,1
1-nitronaphthalene,C1=CC=C2C(=C1)C=CC=C2[N+](=O)[O-],437.15,pubchem,1
9H-fluorene,C1C2=CC=CC=C2C3=CC=CC=C31,424.15,pubchem,1
9H-carbazole,C1=CC=C2C(=C1)C3=CC=CC=C3N2,493.15,pubchem,1
"(1R,9S)-4,11,11-trimethyl-8-methylidenebicyclo[7.2.0]undec-4-ene",CC1=CCCC(=C)C2CC(C2CC1)(C)C,374.15,pubchem,1