compound,smiles,flashpoint,source,pure substance
1-[bis(2-hydroxypropyl)amino]propan-2-ol,CC(CN(CC(C)O)CC(C)O)O,433.15,pubchem,1
"6-chloro-4-N-cyclopropyl-2-N-propan-2-yl-1,3,5-triazine-2,4-diamine",CC(C)NC1=NC(=NC(=N1)NC2CC2)Cl,436.15,pubchem,1
[3-(methoxycarbonylamino)phenyl] N-(3-methylphenyl)carbamate,CC1=CC(=CC=C1)NC(=O)OC2=CC=CC(=C2)NC(=O)OC,347.15,pubchem,1
2-hydroxyethyl octadecanoate,CCCCCCCCCCCCCCCCCC(=O)OCCO,533.15,pubchem,1
trimethyl(trimethylsilyloxy)silane,C[Si](C)(C)O[Si](C)(C)C,243.14999999999998,pubchem,1
chlorosulfanyl thiohypochlorite,S(SCl)Cl,391.15,pubchem,1
butan-2-amine,CCC(C)N,264.15,pubchem,1
N-butylcyclohexanamine,CCCCNC1CCCCC1,366.15,pubchem,1
"1,2-dichloroethyl acetate",CC(=O)OC(CCl)Cl,426.15,pubchem,1
"2,3-dimethylpentan-1-ol",CCC(C)C(C)CO,334.15,pubchem,1
2-[2-(2-methoxypropoxy)propoxy]propan-1-ol,CC(CO)OCC(C)OCC(C)OC,384.15,pubchem,1
(1-acetyloxy-2-methylprop-2-enyl) acetate,CC(=C)C(OC(=O)C)OC(=O)C,488.15,pubchem,1
chloro thiohypochlorite,S(Cl)Cl,391.15,pubchem,1
N-ethyl-N-methylnitrous amide,CCN(C)N=O,349.15,pubchem,1
2-dodecylbenzenesulfonic acid,CCCCCCCCCCCCC1=CC=CC=C1S(=O)(=O)O,422.15,pubchem,1
2-(2-methoxypropoxy)propan-1-ol,CC(CO)OCC(C)OC,347.15,pubchem,1
chloro(diethyl)alumane;dichloro(ethyl)alumane,CC[Al](CC)Cl.CC[Al](Cl)Cl,253.14999999999998,pubchem,1
"carbon monoxide;manganese;2-methylcyclopenta-1,3-diene",CC1=C[CH-]C=C1.[C-]#[O+].[C-]#[O+].[C-]#[O+].[Mn],369.15,pubchem,1
tert-butylsulfanylmethylsulfanyl-diethoxy-sulfanylidene-λ5-phosphane,CCOP(=S)(OCC)SCSC(C)(C)C,361.15,pubchem,1
N-ethylbutan-1-amine,CCCCNCC,291.15,pubchem,1
"tris(1,3-dichloropropan-2-yl) phosphate",C(C(CCl)OP(=O)(OC(CCl)CCl)OC(CCl)CCl)Cl,525.15,pubchem,1
"4,11,11-trimethyl-8-methylidenebicyclo[7.2.0]undec-4-ene",CC1=CCCC(=C)C2CC(C2CC1)(C)C,374.15,pubchem,1
S-propyl chloromethanethioate,CCCSC(=O)Cl,335.15,pubchem,1
"2,3-dimethylheptane;2,4-dimethylheptane;2,3,5-trimethylhexane",CCCCC(C)C(C)C.CCCC(C)CC(C)C.CC(C)CC(C)C(C)C,297.15,pubchem,1
"2,3,4-trichlorophenol",C1=CC(=C(C(=C1O)Cl)Cl)Cl,335.15,pubchem,1
5-ethylidenebicyclo[2.2.1]hept-2-ene,CC=C1CC2CC1C=C2,299.15,pubchem,1
"[(1S,2S,6R,10S,11R,13S,14R,15R)-13-acetyloxy-1,6-dihydroxy-8-(hydroxymethyl)-4,12,12,15-tetramethyl-5-oxo-14-tetracyclo[8.5.0.02,6.011,13]pentadeca-3,8-dienyl] tetradecanoate",CCCCCCCCCCCCCC(=O)OC1C(C2(C(C=C(CC3(C2C=C(C3=O)C)O)CO)C4C1(C4(C)C)OC(=O)C)O)C,310.15,pubchem,1
"S-(2,3-dichloroprop-2-enyl) N,N-di(propan-2-yl)carbamothioate",CC(C)N(C(C)C)C(=O)SCC(=CCl)Cl,369.15,pubchem,1
"2-cyclohexylsulfanylisoindole-1,3-dione",C1CCC(CC1)SN2C(=O)C3=CC=CC=C3C2=O,450.15,pubchem,1
trimethyl-[methyl-bis(trimethylsilyloxy)silyl]oxysilane,C[Si](C)(C)O[Si](C)(O[Si](C)(C)C)O[Si](C)(C)C,359.15,pubchem,1
1-bromopropan-2-ol,CC(CBr)O,327.15,pubchem,1
triethyl phosphite,CCOP(OCC)OCC,319.15,pubchem,1
bis(2-ethylhexyl) decanedioate,CCCCC(CC)COC(=O)CCCCCCCCC(=O)OCC(CC)CCCC,483.15,pubchem,1
phenyl acetate,CC(=O)OC1=CC=CC=C1,353.15,pubchem,1
3-phenylpropan-1-ol,C1=CC=C(C=C1)CCCO,485.15,pubchem,1
2-phenoxyethanol,C1=CC=C(C=C1)OCCO,394.15,pubchem,1
dodecylbenzene,CCCCCCCCCCCCC1=CC=CC=C1,408.15,pubchem,1
2-ethylhexanal,CCCCC(CC)C=O,325.15,pubchem,1
4-ethylphenol,CCC1=CC=C(C=C1)O,377.15,pubchem,1
4-methoxybenzaldehyde,COC1=CC=C(C=C1)C=O,389.15,pubchem,1
2-methylpentanal,CCCC(C)C=O,293.15,pubchem,1
heptan-4-one,CCCC(=O)CCC,322.15,pubchem,1
ethenyl butanoate,CCCC(=O)OC=C,293.15,pubchem,1
diethyl butanedioate,CCOC(=O)CCC(=O)OCC,363.15,pubchem,1
"7-methyl-3-methylideneocta-1,6-diene",CC(=CCCC(=C)C=C)C,312.15,pubchem,1
N-methylformamide,CNC=O,371.15,pubchem,1
4-hydroxy-4-methylpentan-2-one,CC(=O)CC(C)(C)O,325.15,pubchem,1
3-methylbutan-1-ol,CC(C)CCO,319.15,pubchem,1
"pentane-2,4-dione",CC(=O)CC(=O)C,307.15,pubchem,1
propanoyl propanoate,CCC(=O)OC(=O)CC,336.15,pubchem,1
"2,4,6-trimethyl-1,3,5-trioxane",CC1OC(OC(O1)C)C,309.15,pubchem,1
pyrrolidine,C1CCNC1,276.15,pubchem,1
dioctyl hexanedioate,CCCCCCCCOC(=O)CCCCC(=O)OCCCCCCCC,469.15,pubchem,1
butyl acetate,CCCCOC(=O)C,295.15,pubchem,1
"1,4-dioxane",C1COCCO1,285.15,pubchem,1
3-methylbutyl acetate,CC(C)CCOC(=O)C,298.15,pubchem,1
butyl octadecanoate,CCCCCCCCCCCCCCCCCC(=O)OCCCC,433.15,pubchem,1
N-prop-2-enylprop-2-en-1-amine,C=CCNCC=C,280.15,pubchem,1
non-1-ene,CCCCCCCC=C,299.15,pubchem,1
1-(2-butoxyethoxy)propan-2-ol,CCCCOCCOCC(C)O,394.15,pubchem,1
2-(2-butoxyethoxy)ethyl acetate,CCCCOCCOCCOC(=O)C,389.15,pubchem,1
nonanal,CCCCCCCCC=O,356.15,pubchem,1
"2,2-dimethylpropane-1,3-diol",CC(C)(CO)CO,380.15,pubchem,1
"thiolane 1,1-dioxide",C1CCS(=O)(=O)C1,439.15,pubchem,1
tributyl phosphate,CCCCOP(=O)(OCCCC)OCCCC,419.15,pubchem,1
2-methylprop-2-enenitrile,CC(=C)C#N,286.15,pubchem,1
"2-chlorobuta-1,3-diene",C=CC(=C)Cl,253.14999999999998,pubchem,1
1-chloropropan-2-ol,CC(CCl)O,325.15,pubchem,1
"N,N-dimethylacetamide",CC(=O)N(C)C,339.15,pubchem,1
"2,6-ditert-butyl-4-methylphenol",CC1=CC(=C(C(=C1)C(C)(C)C)O)C(C)(C)C,400.15,pubchem,1
"(2-methyl-4-oxo-3-prop-2-ynylcyclopent-2-en-1-yl) (1S,3S)-2,2-dimethyl-3-(2-methylprop-1-enyl)cyclopropane-1-carboxylate",CC1=C(C(=O)CC1OC(=O)C2C(C2(C)C)C=C(C)C)CC#C,412.15,pubchem,1
"N-(butoxymethyl)-2-chloro-N-(2,6-diethylphenyl)acetamide",CCCCOCN(C1=C(C=CC=C1CC)CC)C(=O)CCl,387.15,pubchem,1
"4-diethoxyphosphinothioyloxy-N,N-diethyl-6-methylpyrimidin-2-amine",CCN(CC)C1=NC(=CC(=N1)OP(=S)(OCC)OCC)C,386.15,pubchem,1
2-ethyl-6-methylaniline,CCC1=CC=CC(=C1N)C,375.15,pubchem,1
2-[2-(2-hydroxypropoxy)propoxy]propan-1-ol,CC(CO)OCC(C)OCC(C)O,414.15,pubchem,1
zinc;bis(8-methylnonoxy)-sulfanylidene-sulfido-λ5-phosphane,CC(C)CCCCCCCOP(=S)(OCCCCCCCC(C)C)[S-].CC(C)CCCCCCCOP(=S)(OCCCCCCCC(C)C)[S-].[Zn+2],553.15,pubchem,1
"2,5-dimethyl-1,4-dioxane",CC1COC(CO1)C,297.15,pubchem,1
2-(2-hydroxypropoxy)propan-1-ol,CC(CO)OCC(C)O,472.15,pubchem,1
8-methylnonan-1-ol,CC(C)CCCCCCCO,377.15,pubchem,1
N-butyl-N-propylnitrous amide,CCCCN(CCC)N=O,367.15,pubchem,1
2-[1-(1-methoxypropan-2-yloxy)propan-2-yloxy]propan-1-ol,CC(CO)OC(C)COC(C)COC,394.15,pubchem,1
3-hydroxypropyl prop-2-enoate,C=CC(=O)OCCCO,370.15,pubchem,1
"bis(8-methylnonyl) benzene-1,2-dicarboxylate",CC(C)CCCCCCCOC(=O)C1=CC=CC=C1C(=O)OCCCCCCCC(C)C,505.15,pubchem,1
"oxiran-2-ylmethyl 2,2-dimethyloctanoate",CCCCCCC(C)(C)C(=O)OCC1CO1,402.15,pubchem,1
non-2-ene,CCCCCCC=CC,299.15,pubchem,1
"bis(6-methylheptyl) benzene-1,2-dicarboxylate",CC(C)CCCCCOC(=O)C1=CC=CC=C1C(=O)OCCCCCC(C)C,505.15,pubchem,1
1-hydroxypropan-2-yl 2-methylprop-2-enoate,CC(CO)OC(=O)C(=C)C,394.15,pubchem,1
azane;1-methyl-4-nitrobenzene;2-nitroaniline;3-nitroaniline,CC1=CC=C(C=C1)[N+](=O)[O-].C1=CC=C(C(=C1)N)[N+](=O)[O-].C1=CC(=CC(=C1)[N+](=O)[O-])N.N,427.15,pubchem,1
8-methylnonyl 2-methylprop-2-enoate,CC(C)CCCCCCCOC(=O)C(=C)C,394.15,pubchem,1
[2-(ethylsulfanylmethyl)phenyl] N-methylcarbamate,CCSCC1=CC=CC=C1OC(=O)NC,396.15,pubchem,1
"N-(2-chloroethyl)-2,6-dinitro-N-propyl-4-(trifluoromethyl)aniline",CCCN(CCCl)C1=C(C=C(C=C1[N+](=O)[O-])C(F)(F)F)[N+](=O)[O-],303.15,pubchem,1
"1,3-dichloro-5-(3,5-dichlorophenyl)benzene",C1=C(C=C(C=C1Cl)Cl)C2=CC(=CC(=C2)Cl)Cl,414.15,pubchem,1
3-[3-(dimethylamino)propyl]-1-[(2-fluorophenyl)methyl-methylamino]-3-phenylindol-2-one,CN(C)CCCC1(C2=CC=CC=C2N(C1=O)N(C)CC3=CC=CC=C3F)C4=CC=CC=C4,466.15,pubchem,1
"N-butan-2-yl-4-tert-butyl-2,6-dinitroaniline",CCC(C)NC1=C(C=C(C=C1[N+](=O)[O-])C(C)(C)C)[N+](=O)[O-],309.15,pubchem,1
"1,1-dimethyl-3-(4-propan-2-ylphenyl)urea",CC(C)C1=CC=C(C=C1)NC(=O)N(C)C,373.15,pubchem,1
"1-[2-(2,4-dichlorophenyl)-2-prop-2-enoxyethyl]imidazole",C=CCOC(CN1C=CN=C1)C2=C(C=C(C=C2)Cl)Cl,465.15,pubchem,1
"1,2,3-trichloro-4-(2,3,4-trichlorophenyl)benzene",C1=CC(=C(C(=C1C2=C(C(=C(C=C2)Cl)Cl)Cl)Cl)Cl)Cl,414.15,pubchem,1
"1,3-dichloro-5-(3-chlorophenyl)benzene",C1=CC(=CC(=C1)Cl)C2=CC(=CC(=C2)Cl)Cl,414.15,pubchem,1
"3,4-dimethyl-2,6-dinitro-N-pentan-3-ylaniline",CCC(CC)NC1=C(C=C(C(=C1[N+](=O)[O-])C)C)[N+](=O)[O-],306.15,pubchem,1
"1,2,3-triethylbenzene",CCC1=C(C(=CC=C1)CC)CC,356.15,pubchem,1
"1-(4-chlorophenoxy)-3,3-dimethyl-1-(1,2,4-triazol-1-yl)butan-2-one",CC(C)(C)C(=O)C(N1C=NC=N1)OC2=CC=C(C=C2)Cl,345.15,pubchem,1
N-[2-[ethoxy(methyl)phosphoryl]sulfanylethyl]-N-propan-2-ylpropan-2-amine,CCOP(=O)(C)SCCN(C(C)C)C(C)C,432.15,pubchem,1
"methyl 2-[4-(2,4-dichlorophenoxy)phenoxy]propanoate",CC(C(=O)OC)OC1=CC=C(C=C1)OC2=C(C=C(C=C2)Cl)Cl,311.15,pubchem,1
2-nitrooxyethyl nitrate,C(CO[N+](=O)[O-])O[N+](=O)[O-],488.15,pubchem,1
"(1S,2R,5R)-5-methyl-2-propan-2-ylcyclohexan-1-ol",CC1CCC(C(C1)O)C(C)C,364.15,pubchem,1
"[(S)-cyano-(3-phenoxyphenyl)methyl] (1R,3S)-2,2-dimethyl-3-(1,2,2,2-tetrabromoethyl)cyclopropane-1-carboxylate",CC1(C(C1C(=O)OC(C#N)C2=CC(=CC=C2)OC3=CC=CC=C3)C(C(Br)(Br)Br)Br)C,299.15,pubchem,1
2-methoxypropyl acetate,CC(COC(=O)C)OC,298.15,pubchem,1
ethyl N-[2-(4-phenoxyphenoxy)ethyl]carbamate,CCOC(=O)NCCOC1=CC=C(C=C1)OC2=CC=CC=C2,497.15,pubchem,1
"2-[(2-chlorophenyl)methyl]-4,4-dimethyl-1,2-oxazolidin-3-one",CC1(CON(C1=O)CC2=CC=CC=C2Cl)C,257.15,pubchem,1
"(2-methyl-3-phenylphenyl)methyl 3-(2-chloro-3,3,3-trifluoroprop-1-enyl)-2,2-dimethylcyclopropane-1-carboxylate",CC1=C(C=CC=C1COC(=O)C2C(C2(C)C)C=C(C(F)(F)F)Cl)C3=CC=CC=C3,438.15,pubchem,1
(3S)-N-methyl-3-naphthalen-1-yloxy-3-thiophen-2-ylpropan-1-amine,CNCCC(C1=CC=CS1)OC2=CC=CC3=CC=CC=C32,282.15,pubchem,1
"5-[2-[4-(1,2-benzothiazol-3-yl)piperazin-1-yl]ethyl]-6-chloro-1,3-dihydroindol-2-one",C1CN(CCN1CCC2=C(C=C3C(=C2)CC(=O)N3)Cl)C4=NSC5=CC=CC=C54,271.15,pubchem,1
trichloro(cyclohexyl)silane,C1CCC(CC1)[Si](Cl)(Cl)Cl,364.15,pubchem,1
"3,4-dihydro-2H-pyran-2-carbaldehyde",C1CC(OC=C1)C=O,321.15,pubchem,1
"N',N'-diethylpropane-1,3-diamine",CCN(CC)CCCN,332.15,pubchem,1
3-methylbut-2-enal,CC(=CC=O)C,310.15,pubchem,1
"2,4,6,8-tetramethyl-1,3,5,7-tetraoxocane",CC1OC(OC(OC(O1)C)C)C,309.15,pubchem,1
"[(1R,2R,4S)-1,7,7-trimethyl-2-bicyclo[2.2.1]heptanyl] acetate",CC(=O)OC1CC2CCC1(C2(C)C)C,361.15,pubchem,1
"butane-1,3-diamine",CC(CCN)N,325.15,pubchem,1
butyl carbonochloridate,CCCCOC(=O)Cl,298.15,pubchem,1
dichloro-ethyl-sulfanylidene-λ5-phosphane,CCP(=S)(Cl)Cl,368.15,pubchem,1
2-methoxy-2-methylbutane,CCC(C)(C)OC,266.15,pubchem,1
2-hydroxypropyl prop-2-enoate,CC(COC(=O)C=C)O,338.15,pubchem,1
pentyl nitrate,CCCCCO[N+](=O)[O-],322.15,pubchem,1
"2-ethylhexyl 2-(2,4-dichlorophenoxy)acetate",CCCCC(CC)COC(=O)COC1=C(C=C(C=C1)Cl)Cl,444.15,pubchem,1
prop-2-enyl nonanoate,CCCCCCCCC(=O)OCC=C,302.15,pubchem,1
2-ethylbutyl acetate,CCC(CC)COC(=O)C,327.15,pubchem,1
(2R)-2-hydroxypropanoic acid,CC(C(=O)O)O,386.15,pubchem,1
nickel(2+);dihydroxide,[OH-].[OH-].[Ni+2],673.15,pubchem,1
3-propoxypropan-1-ol,CCCOCCCO,326.15,pubchem,1
"4,4-dimethyl-1,3-oxazolidine",CC1(COCN1)C,322.15,pubchem,1
"(3E)-penta-1,3-diene",CC=CC=C,244.14999999999998,pubchem,1
propanoyl chloride,CCC(=O)Cl,285.15,pubchem,1
2-methylpropyl carbonochloridate,CC(C)COC(=O)Cl,300.15,pubchem,1
"cyclopenta-1,3-diene;nickel(2+)",[CH-]1C=CC=C1.[CH-]1C=CC=C1.[Ni+2],277.15,pubchem,1
propan-2-yl 2-phenylacetate,CC(C)OC(=O)CC1=CC=CC=C1,368.15,pubchem,1
undecane-1-thiol,CCCCCCCCCCCS,382.15,pubchem,1
ethyl 3-hydroxybutanoate,CCOC(=O)CC(C)O,337.15,pubchem,1
(E)-but-2-ene,CC=CC,262.15,pubchem,1
"(7-chloro-6-bicyclo[3.2.0]hepta-2,6-dienyl) dimethyl phosphate",COP(=O)(OC)OC1=C(C2C1CC=C2)Cl,438.15,pubchem,1
"2-methylpropanoic acid;2,2,4-trimethylpentane-1,3-diol",CC(C)C(C(C)(C)CO)O.CC(C)C(=O)O,393.15,pubchem,1
dimethyl-octadecyl-(3-trimethoxysilylpropyl)azanium;chloride,CCCCCCCCCCCCCCCCCC[N+](C)(C)CCC[Si](OC)(OC)OC.[Cl-],288.15,pubchem,1
"7,7-dimethyloctanoic acid",CC(C)(C)CCCCCC(=O)O,367.15,pubchem,1
"1,2-dichloro-3-(2,4-dichlorophenyl)benzene",C1=CC(=C(C(=C1)Cl)Cl)C2=C(C=C(C=C2)Cl)Cl,414.15,pubchem,1
"1,7,7-trimethylbicyclo[2.2.1]heptan-2-ol",CC1(C2CCC1(C(C2)O)C)C,339.15,pubchem,1
"[3-[3-(3,5-ditert-butyl-4-hydroxyphenyl)propanoyloxy]-2,2-bis[3-(3,5-ditert-butyl-4-hydroxyphenyl)propanoyloxymethyl]propyl] 3-(3,5-ditert-butyl-4-hydroxyphenyl)propanoate",CC(C)(C)C1=CC(=CC(=C1O)C(C)(C)C)CCC(=O)OCC(COC(=O)CCC2=CC(=C(C(=C2)C(C)(C)C)O)C(C)(C)C)(COC(=O)CCC3=CC(=C(C(=C3)C(C)(C)C)O)C(C)(C)C)COC(=O)CCC4=CC(=C(C(=C4)C(C)(C)C)O)C(C)(C)C,570.15,pubchem,1
(2S)-N-methyl-1-phenylpropan-2-amine;hydrochloride,CC(CC1=CC=CC=C1)NC.Cl,282.15,pubchem,1
"2,3-dichloro-4-oxobut-2-enoic acid",C(=O)C(=C(C(=O)O)Cl)Cl,373.15,pubchem,1
"1,2-bis(ethenyl)benzene",C=CC1=CC=CC=C1C=C,335.15,pubchem,1
bis(6-methylheptyl) hexanedioate,CC(C)CCCCCOC(=O)CCCCC(=O)OCCCCCC(C)C,483.15,pubchem,1
"2-(3,4,5-trihydroxyphenyl)chromenylium-3,5,7-triol;chloride",C1=C(C=C(C(=C1O)O)O)C2=C(C=C3C(=CC(=CC3=[O+]2)O)O)O.[Cl-],466.15,pubchem,1
[4-(aminomethyl)phenyl]methanamine,C1=CC(=CC=C1CN)CN,300.15,pubchem,1
pentan-3-yl acetate,CCC(CC)OC(=O)C,306.15,pubchem,1
2-methylheptane-2-thiol,CCCCCC(C)(C)S,319.15,pubchem,1
2-chloroprop-2-enenitrile,C=C(C#N)Cl,280.15,pubchem,1
2-[2-[2-[2-[2-[2-[2-[2-[2-(4-nonylphenoxy)ethoxy]ethoxy]ethoxy]ethoxy]ethoxy]ethoxy]ethoxy]ethoxy]ethanol,CCCCCCCCCC1=CC=C(C=C1)OCCOCCOCCOCCOCCOCCOCCOCCOCCO,470.15,pubchem,1
2-[2-[2-(2-butoxyethoxy)ethoxy]ethoxy]ethanol,CCCCOCCOCCOCCOCCO,439.15,pubchem,1
ethyl dihydrogen phosphate,CCOP(=O)(O)O,389.15,pubchem,1
"1,1,2,2,3,3,4,4,5,5,6,6,7,7,8,8,8-heptadecafluorooctane-1-sulfonic acid",C(C(C(C(C(F)(F)S(=O)(=O)O)(F)F)(F)F)(F)F)(C(C(C(F)(F)F)(F)F)(F)F)(F)F,284.15,pubchem,1
"2-methylpropane-1,3-diol",CC(CO)CO,400.15,pubchem,1
octadecyl hexadecanoate,CCCCCCCCCCCCCCCCCCOC(=O)CCCCCCCCCCCCCCC,511.15,pubchem,1
dioctyl hydrogen phosphate,CCCCCCCCOP(=O)(O)OCCCCCCCC,469.15,pubchem,1
"N'-methylpropane-1,3-diamine",CNCCCN,309.15,pubchem,1
ethyl 2-cyanoprop-2-enoate,CCOC(=O)C(=C)C#N,355.15,pubchem,1
"(1Z,5Z)-cycloocta-1,5-diene",C1CC=CCCC=C1,368.15,pubchem,1
methanesulfonate,CS(=O)(=O)[O-],462.15,pubchem,1
tris(2-nonylphenyl) phosphite,CCCCCCCCCC1=CC=CC=C1OP(OC2=CC=CC=C2CCCCCCCCC)OC3=CC=CC=C3CCCCCCCCC,480.15,pubchem,1
"3a,4,5,6,7,7a-hexahydro-2-benzofuran-1,3-dione",C1CCC2C(C1)C(=O)OC2=O,422.15,pubchem,1
"5-methyl-3a,4,5,6,7,7a-hexahydro-2-benzofuran-1,3-dione",CC1CCC2C(C1)C(=O)OC2=O,623.15,pubchem,1
"3,3,4,4,5,5,6,6,6-nonafluorohex-1-ene",C=CC(C(C(C(F)(F)F)(F)F)(F)F)(F)F,256.15,pubchem,1
"2,6-dimethylaniline;hydrochloride",CC1=C(C(=CC=C1)C)N.Cl,364.15,pubchem,1
3-[(2S)-1-methylpyrrolidin-2-yl]pyridine,CN1CCCC1C2=CN=CC=C2,368.15,pubchem,1
2-[2-[2-(2-methoxyethoxy)ethoxy]ethoxy]ethanol,COCCOCCOCCOCCO,434.15,pubchem,1
2-hydroxypropanoate,CC(C(=O)[O-])O,386.15,pubchem,1
ethyl 3-phenylprop-2-ynoate,CCOC(=O)C#CC1=CC=CC=C1,386.15,pubchem,1
"1-(4-methoxy-6-methyl-1,3,5-triazin-2-yl)-3-[2-(3,3,3-trifluoropropyl)phenyl]sulfonylurea",CC1=NC(=NC(=N1)OC)NC(=O)NS(=O)(=O)C2=CC=CC=C2CCC(F)(F)F,373.15,pubchem,1
2-[butan-2-ylsulfanyl(ethoxy)phosphoryl]sulfanylbutane,CCC(C)SP(=O)(OCC)SC(C)CC,402.15,pubchem,1
2-[1-(4-phenoxyphenoxy)propan-2-yloxy]pyridine,CC(COC1=CC=C(C=C1)OC2=CC=CC=C2)OC3=CC=CC=N3,392.15,pubchem,1
"N-(2,6-difluorophenyl)-5-methyl-[1,2,4]triazolo[1,5-a]pyrimidine-2-sulfonamide",CC1=NC2=NC(=NN2C=C1)S(=O)(=O)NC3=C(C=CC=C3F)F,366.15,pubchem,1
(2R)-2-[(2R)-oxiran-2-yl]oxirane,C1C(O1)C2CO2,319.15,pubchem,1
"ethyl 4-[cyclopropyl(hydroxy)methylidene]-3,5-dioxocyclohexane-1-carboxylate",CCOC(=O)C1CC(=O)C(=C(C2CC2)O)C(=O)C1,406.15,pubchem,1
1-[(2-methylpropan-2-yl)oxy]propan-2-ol,CC(COC(C)(C)C)O,317.15,pubchem,1
1-ethoxydodecane,CCCCCCCCCCCCOCC,516.15,pubchem,1
"(3aS,7aR)-3a,4,7,7a-tetrahydro-2-benzofuran-1,3-dione",C1C=CCC2C1C(=O)OC2=O,430.15,pubchem,1
2-(3-methylbut-2-enyl)cyclopentan-1-one,CC(=CCC1CCCC1=O)C,296.15,pubchem,1
propanoate,CCC(=O)[O-],325.15,pubchem,1
butanoate,CCCC(=O)[O-],345.15,pubchem,1
prop-2-enyl 2-(3-methylbutoxy)acetate,CC(C)CCOCC(=O)OCC=C,341.15,pubchem,1
"2,6-dimethylmorpholine",CC1CNCC(O1)C,317.15,pubchem,1
(4-methylcyclohexyl)methanol,CC1CCC(CC1)CO,385.15,pubchem,1
3-[bis(2-carboxyethyl)phosphanyl]propanoic acid,C(CP(CCC(=O)O)CCC(=O)O)C(=O)O,475.15,pubchem,1
"but-1-ene-1,4-diol",C(CO)C=CO,401.15,pubchem,1
"[(1S,2S,6S,10S,11R,13S,14R,15R)-13-acetyloxy-1,6-dihydroxy-8-(hydroxymethyl)-4,12,12,15-tetramethyl-5-oxo-14-tetracyclo[8.5.0.02,6.011,13]pentadeca-3,8-dienyl] tetradecanoate",CCCCCCCCCCCCCC(=O)OC1C(C2(C(C=C(CC3(C2C=C(C3=O)C)O)CO)C4C1(C4(C)C)OC(=O)C)O)C,310.15,pubchem,1
"3-acetyl-6-methylpyran-2,4-dione",CC1=CC(=O)C(C(=O)O1)C(=O)C,342.15,pubchem,1
"(2,5-dioxo-3-prop-2-ynylimidazolidin-1-yl)methyl 2,2-dimethyl-3-(2-methylprop-1-enyl)cyclopropane-1-carboxylate",CC(=CC1C(C1(C)C)C(=O)OCN2C(=O)CN(C2=O)CC#C)C,383.15,pubchem,1
InChI=1S/Cl3Si/c1-4(2)3,[Si](Cl)(Cl)Cl,259.15,pubchem,1
(2-tert-butylphenyl) diphenyl phosphate,CC(C)(C)C1=CC=CC=C1OP(=O)(OC2=CC=CC=C2)OC3=CC=CC=C3,497.15,pubchem,1
"(1R,4R)-1,7,7-trimethylbicyclo[2.2.1]heptan-2-one",CC1(C2CCC1(C(=O)C2)C)C,320.15,pubchem,1
"(1S,2R,5S)-5-methyl-2-propan-2-ylcyclohexan-1-ol",CC1CCC(C(C1)O)C(C)C,364.15,pubchem,1
6-methylheptyl prop-2-enoate,CC(C)CCCCCOC(=O)C=C,364.15,pubchem,1
"1,1,2-trimethylbenzo[e]indole",CC1=NC2=C(C1(C)C)C3=CC=CC=C3C=C2,455.15,pubchem,1
2-dodecylphenol,CCCCCCCCCCCCC1=CC=CC=C1O,436.15,pubchem,1
1-ethoxypropan-2-yl acetate,CCOCC(C)OC(=O)C,326.15,pubchem,1
"(E)-but-2-ene-1,4-diol",C(C=CCO)O,401.15,pubchem,1
"(4R,5R)-5-(4-chlorophenyl)-N-cyclohexyl-4-methyl-2-oxo-1,3-thiazolidine-3-carboxamide",CC1C(SC(=O)N1C(=O)NC2CCCCC2)C3=CC=C(C=C3)Cl,373.15,pubchem,1
butyl (2R)-2-[4-(4-cyano-2-fluorophenoxy)phenoxy]propanoate,CCCCOC(=O)C(C)OC1=CC=C(C=C1)OC2=C(C=C(C=C2)C#N)F,395.15,pubchem,1
"1,1-dichloro-2-propan-2-yloxypropane",CC(C)OC(C)C(Cl)Cl,358.15,pubchem,1
"7a-methyl-4,7-dihydro-3aH-2-benzofuran-1,3-dione",CC12CC=CCC1C(=O)OC2=O,623.15,pubchem,1
hexanedioate,C(CCC(=O)[O-])CC(=O)[O-],658.15,pubchem,1
"(1S,2R,6S,7R)-4-[[(1R,2R)-2-[[4-(1,2-benzothiazol-3-yl)piperazin-1-yl]methyl]cyclohexyl]methyl]-4-azatricyclo[5.2.1.02,6]decane-3,5-dione",C1CCC(C(C1)CN2CCN(CC2)C3=NSC4=CC=CC=C43)CN5C(=O)C6C7CCC(C7)C6C5=O,282.15,pubchem,1
"[(1S,2S,4R)-1,7,7-trimethyl-2-bicyclo[2.2.1]heptanyl] 2-thiocyanatoacetate",CC1(C2CCC1(C(C2)OC(=O)CSC#N)C)C,355.15,pubchem,1
"N-(2,4-dimethylphenyl)-3-oxobutanamide",CC1=CC(=C(C=C1)NC(=O)CC(=O)C)C,444.15,pubchem,1
1-methyl-4-(2-methyloxiran-2-yl)-7-oxabicyclo[4.1.0]heptane,CC12CCC(CC1O2)C3(CO3)C,391.15,pubchem,1
octan-3-one,CCCCCC(=O)CC,319.15,pubchem,1
"[(1S,2S,4R)-1,7,7-trimethyl-2-bicyclo[2.2.1]heptanyl] acetate",CC(=O)OC1CC2CCC1(C2(C)C)C,361.15,pubchem,1
[(E)-prop-1-enyl]benzene,CC=CC1=CC=CC=C1,325.15,pubchem,1
N-chloroaniline,C1=CC=C(C=C1)NCl,381.15,pubchem,1
"(1Z,3Z)-cycloocta-1,3-diene",C1CCC=CC=CC1,308.15,pubchem,1
dichlorochromium;octadecanoic acid;hydrate,CCCCCCCCCCCCCCCCCC(=O)O.O.Cl[Cr]Cl.Cl[Cr]Cl,275.15,pubchem,1
"(1S,2S,5R)-5-methyl-2-propan-2-ylcyclohexan-1-ol",CC1CCC(C(C1)O)C(C)C,364.15,pubchem,1
"(2S)-1,7,7-trimethylbicyclo[2.2.1]heptan-2-ol",CC1(C2CCC1(C(C2)O)C)C,339.15,pubchem,1
(4R)-1-methyl-4-prop-1-en-2-ylcyclohexene,CC1=CCC(CC1)C(=C)C,321.15,pubchem,1
"(1S,5S)-6,6-dimethyl-2-methylidenebicyclo[3.1.1]heptane",CC1(C2CCC(=C)C1C2)C,304.15,pubchem,1
"(1S,5S)-2,6,6-trimethylbicyclo[3.1.1]hept-2-ene",CC1=CCC2CC1C2(C)C,306.15,pubchem,1
"[(2R)-1,7,7-trimethyl-2-bicyclo[2.2.1]heptanyl] acetate",CC(=O)OC1CC2CCC1(C2(C)C)C,361.15,pubchem,1
"[(2S)-1,7,7-trimethyl-2-bicyclo[2.2.1]heptanyl] acetate",CC(=O)OC1CC2CCC1(C2(C)C)C,361.15,pubchem,1
"(1S,4S)-1,7,7-trimethylbicyclo[2.2.1]heptan-2-one",CC1(C2CCC1(C(=O)C2)C)C,339.15,pubchem,1
(E)-but-2-enedioic acid,C(=CC(=O)O)C(=O)O,546.15,pubchem,1
(Z)-octadec-9-enoic acid,CCCCCCCCC=CCCCCCCCC(=O)O,462.15,pubchem,1
(E)-but-2-enal,CC=CC=O,286.15,pubchem,1
4-[(E)-4-(4-hydroxyphenyl)hex-3-en-3-yl]phenol,CCC(=C(CC)C1=CC=C(C=C1)O)C2=CC=C(C=C2)O,377.15,pubchem,1
ethoxyethane;trifluoroborane,B(F)(F)F.CCOCC,337.15,pubchem,1
"6-methylheptyl 2-(2,4,5-trichlorophenoxy)acetate",CC(C)CCCCCOC(=O)COC1=CC(=C(C=C1Cl)Cl)Cl,342.15,pubchem,1
(2-methylphenyl) diphenyl phosphate,CC1=CC=CC=C1OP(=O)(OC2=CC=CC=C2)OC3=CC=CC=C3,505.15,pubchem,1
butan-1-ol;titanium,CCCCO.CCCCO.CCCCO.CCCCO.[Ti],350.15,pubchem,1
"1,1-dichloropentane",CCCCC(Cl)Cl,314.15,pubchem,1
2-bromo-2-chloroacetic acid,C(C(=O)O)(Cl)Br,383.15,pubchem,1
"6-methylheptyl 2-(2,4,5-trichlorophenoxy)propanoate",CC(C)CCCCCOC(=O)C(C)OC1=CC(=C(C=C1Cl)Cl)Cl,480.15,pubchem,1
(E)-but-2-enoic acid,CC=CC(=O)O,361.15,pubchem,1