,compound,flashpoint,pure substance,smiles,source
1201,2-(diethylamino)ethyl prop-2-enoate,364.15,1.0,CCN(CC)CCOC(=O)C=C,pubchem
1202,"2,3,4-trichlorobut-1-ene",336.15,1.0,C=C(C(CCl)Cl)Cl,pubchem
1203,tridec-1-ene,352.15,1.0,CCCCCCCCCCCC=C,pubchem
1204,2-(dimethylamino)ethyl prop-2-enoate,302.15,1.0,CN(C)CCOC(=O)C=C,pubchem
1205,2-(2-ethylhexoxymethyl)oxirane,370.15,1.0,CCCCC(CC)COCC1CO1,pubchem
1206,octyl prop-2-enoate,355.15,1.0,CCCCCCCCOC(=O)C=C,pubchem
1207,hexyl prop-2-enoate,341.15,1.0,CCCCCCOC(=O)C=C,pubchem
1208,chloro-diethoxy-sulfanylidene-λ5-phosphane,365.15,1.0,CCOP(=S)(OCC)Cl,pubchem
1209,3-trimethoxysilylpropyl 2-methylprop-2-enoate,365.15,1.0,CC(=C)C(=O)OCCC[Si](OC)(OC)OC,pubchem
1210,"5-ethoxy-3-(trichloromethyl)-1,2,4-thiadiazole",427.15,1.0,CCOC1=NC(=NS1)C(Cl)(Cl)Cl,pubchem
1211,4-dimethoxyphosphinothioyloxybenzonitrile,377.15,1.0,COP(=S)(OC)OC1=CC=C(C=C1)C#N,pubchem
1212,"1,4-dichloro-2,5-dimethoxybenzene",434.15,1.0,COC1=CC(=C(C=C1Cl)OC)Cl,pubchem
1213,bromo(triethyl)stannane,372.15,1.0,CC[Sn](CC)(CC)Br,pubchem
1214,2-propoxyethanol,322.15,1.0,CCCOCCO,pubchem
1215,prop-2-enyl 3-methylbutanoate,312.15,1.0,CC(C)CC(=O)OCC=C,pubchem
1216,"3-(aminomethyl)-3,5,5-trimethylcyclohexan-1-amine",383.15,1.0,CC1(CC(CC(C1)(C)CN)N)C,pubchem
1217,2-decyloxirane,317.15,1.0,CCCCCCCCCCC1CO1,pubchem
1218,2-(dimethylamino)ethyl 2-methylprop-2-enoate,347.15,1.0,CC(=C)C(=O)OCCN(C)C,pubchem
1219,octadecane-1-thiol,458.15,1.0,CCCCCCCCCCCCCCCCCCS,pubchem
1220,hexadecane-1-thiol,375.15,1.0,CCCCCCCCCCCCCCCCS,pubchem
1221,"hexane-2,5-diol",374.15,1.0,CC(CCC(C)O)O,pubchem
1222,prop-2-enyl carbonochloridate,304.15,1.0,C=CCOC(=O)Cl,pubchem
1223,S-ethyl chloromethanethioate,304.15,1.0,CCSC(=O)Cl,pubchem
1224,"2-[2-(dimethylamino)ethoxy]-N,N-dimethylethanamine",352.15,1.0,CN(C)CCOCCN(C)C,pubchem
1225,"2,3-dibromopropyl 2-methylprop-2-enoate",332.15,1.0,CC(=C)C(=O)OCC(CBr)Br,pubchem
1226,4-methyloxetan-2-one,333.15,1.0,CC1CC(=O)O1,pubchem
1227,tridecyl prop-2-enoate,405.15,1.0,CCCCCCCCCCCCCOC(=O)C=C,pubchem
1228,2-(trichloromethyl)oxirane,340.15,1.0,C1C(O1)C(Cl)(Cl)Cl,pubchem
1229,2-[(4-tert-butylphenoxy)methyl]oxirane,375.15,1.0,CC(C)(C)C1=CC=C(C=C1)OCC2CO2,pubchem
1230,2-methoxyethyl prop-2-enoate,355.15,1.0,COCCOC(=O)C=C,pubchem
1231,2-(bromomethyl)oxirane,329.15,1.0,C1C(O1)CBr,pubchem
1232,isocyanatocyclohexane,322.15,1.0,C1CCC(CC1)N=C=O,pubchem
1233,"1,5-diisocyanatonaphthalene",428.15,1.0,C1=CC2=C(C=CC=C2N=C=O)C(=C1)N=C=O,pubchem
1234,"1,2-dichloro-3-nitrobenzene",397.15,1.0,C1=CC(=C(C(=C1)Cl)Cl)[N+](=O)[O-],pubchem
1235,dipropoxyphosphinothioyloxy-dipropoxy-sulfanylidene-λ5-phosphane,422.15,1.0,CCCOP(=S)(OCCC)OP(=S)(OCCC)OCCC,pubchem
1236,"2,3-dimethyloxirane",255.15,1.0,CC1C(O1)C,pubchem
1237,3-methylsulfanylpropanal,334.15,1.0,CSCCC=O,pubchem
1238,"3,5,5-trimethylhexan-1-ol",366.15,1.0,CC(CCO)CC(C)(C)C,pubchem
1239,"3-(2-methylpiperidin-1-yl)propyl 3,4-dichlorobenzoate",344.15,1.0,CC1CCCCN1CCCOC(=O)C2=CC(=C(C=C2)Cl)Cl,pubchem
1240,"2,2,5-trimethylhexane",304.15,1.0,CC(C)CCC(C)(C)C,pubchem
1241,"(1R,2R,5R)-5-methyl-2-propan-2-ylcyclohexan-1-ol",364.15,1.0,CC1CCC(C(C1)O)C(C)C,pubchem
1242,"diheptyl benzene-1,2-dicarboxylate",497.15,1.0,CCCCCCCOC(=O)C1=CC=CC=C1C(=O)OCCCCCCC,pubchem
1243,"octa-1,7-diene",282.15,1.0,C=CCCCCC=C,pubchem
1244,"N,N-diethylhydroxylamine",318.15,1.0,CCN(CC)O,pubchem
1245,but-2-enoic acid,361.15,1.0,CC=CC(=O)O,pubchem
1246,2-(tert-butylamino)ethyl 2-methylprop-2-enoate,369.15,1.0,CC(=C)C(=O)OCCNC(C)(C)C,pubchem
1247,"hexane-2,3-dione",301.15,1.0,CCCC(=O)C(=O)C,pubchem
1248,"tris(2,4-dimethylphenyl) phosphate",505.15,1.0,CC1=CC(=C(C=C1)OP(=O)(OC2=C(C=C(C=C2)C)C)OC3=C(C=C(C=C3)C)C)C,pubchem
1249,2-ethylbutyl prop-2-enoate,325.15,1.0,CCC(CC)COC(=O)C=C,pubchem
1250,2-(propan-2-yloxymethyl)oxirane,306.15,1.0,CC(C)OCC1CO1,pubchem
1251,2-(2-prop-2-enoyloxyethoxy)ethyl prop-2-enoate,351.15,1.0,C=CC(=O)OCCOCCOC(=O)C=C,pubchem
1252,octan-2-ol,349.15,1.0,CCCCCCC(C)O,pubchem
1253,3-methoxybutyl acetate,350.15,1.0,CC(CCOC(=O)C)OC,pubchem
1254,N-butyl-N-ethylnitrous amide,366.15,1.0,CCCCN(CC)N=O,pubchem
1255,2-methylpentanedinitrile,399.15,1.0,CC(CCC#N)C#N,pubchem
1256,propan-2-yl 2-methylprop-2-enoate,294.15,1.0,CC(C)OC(=O)C(=C)C,pubchem
1257,"4,4a-dimethyl-6-prop-1-en-2-yl-3,4,5,6,7,8-hexahydronaphthalen-2-one",373.15,1.0,CC1CC(=O)C=C2C1(CC(CC2)C(=C)C)C,pubchem
1258,1-butoxypropan-2-ol,336.15,1.0,CCCCOCC(C)O,pubchem
1259,"6-methyl-N-phenyl-2,3-dihydro-1,4-oxathiine-5-carboxamide",476.15,1.0,CC1=C(SCCO1)C(=O)NC2=CC=CC=C2,pubchem
1260,"6-methyl-4,4-dioxo-N-phenyl-2,3-dihydro-1,4-oxathiine-5-carboxamide",492.15,1.0,CC1=C(S(=O)(=O)CCO1)C(=O)NC2=CC=CC=C2,pubchem
1261,2-hydroxyethyl carbamate,461.15,1.0,C(COC(=O)N)O,pubchem
1262,tripropan-2-yl borate,301.15,1.0,B(OC(C)C)(OC(C)C)OC(C)C,pubchem
1263,"3,5,5-trimethylhexanal",389.15,1.0,CC(CC=O)CC(C)(C)C,pubchem
1264,N-ethylcyclohexanamine,302.15,1.0,CCNC1CCCCC1,pubchem
1265,"bis(oxiran-2-ylmethyl) cyclohexane-1,2-dicarboxylate",463.15,1.0,C1CCC(C(C1)C(=O)OCC2CO2)C(=O)OCC3CO3,pubchem
1266,butan-1-olate;titanium(4+),350.15,1.0,CCCC[O-].CCCC[O-].CCCC[O-].CCCC[O-].[Ti+4],pubchem
1267,"dimethoxy-sulfanylidene-(3,5,6-trichloropyridin-2-yl)oxy-λ5-phosphane",455.15,1.0,COP(=S)(OC)OC1=NC(=C(C=C1Cl)Cl)Cl,pubchem
1268,"1,2-dihydropyridazine-3,6-dione",573.15,1.0,C1=CC(=O)NNC1=O,pubchem
1269,trichloro(hexadecyl)silane,419.15,1.0,CCCCCCCCCCCCCCCC[Si](Cl)(Cl)Cl,pubchem
1270,1-methyl-4-prop-1-en-2-ylcyclohexene,319.15,1.0,CC1=CCC(CC1)C(=C)C,pubchem
1271,pentan-2-ol,308.15,1.0,CCCC(C)O,pubchem
1272,"bis(2-ethylhexyl) benzene-1,4-dicarboxylate",511.15,1.0,CCCCC(CC)COC(=O)C1=CC=C(C=C1)C(=O)OCC(CC)CCCC,pubchem
1273,undecylbenzene,414.15,1.0,CCCCCCCCCCCC1=CC=CC=C1,pubchem
1274,"[2,2,4-trimethyl-3-(2-methylpropanoyloxy)pentyl] 2-methylpropanoate",394.15,1.0,CC(C)C(C(C)(C)COC(=O)C(C)C)OC(=O)C(C)C,pubchem
1275,N-butyl-N-methylnitrous amide,305.15,1.0,CCCCN(C)N=O,pubchem
1276,(2-bromo-2-nitroethenyl)benzene,327.15,1.0,C1=CC=C(C=C1)C=C([N+](=O)[O-])Br,pubchem
1277,butyl(trichloro)silane,325.15,1.0,CCCC[Si](Cl)(Cl)Cl,pubchem
1278,2-[(2-methylpropan-2-yl)oxymethyl]oxirane,316.15,1.0,CC(C)(C)OCC1CO1,pubchem
1279,"InChI=1S/2Na.H2O4S2/c;;1-5(2)6(3)4/h;;(H,1,2)(H,3,4)/q2*+1;/p-2",373.15,1.0,[O-]S(=O)S(=O)[O-].[Na+].[Na+],pubchem
1280,2-tert-butyl-4-methoxyphenol;3-tert-butyl-4-methoxyphenol,386.15,1.0,CC(C)(C)C1=C(C=CC(=C1)O)OC.CC(C)(C)C1=C(C=CC(=C1)OC)O,pubchem
1281,"1,1'-biphenyl;phenoxybenzene",397.15,1.0,C1=CC=C(C=C1)C2=CC=CC=C2.C1=CC=C(C=C1)OC2=CC=CC=C2,pubchem
1282,"6-methylheptyl 2-(2,4-dichlorophenoxy)acetate",321.15,1.0,CC(C)CCCCCOC(=O)COC1=C(C=C(C=C1)Cl)Cl,pubchem
1283,"4-(2,6,6-trimethylcyclohex-2-en-1-yl)but-3-en-2-one",391.15,1.0,CC1=CCCC(C1C=CC(=O)C)(C)C,pubchem
1284,dimethyl-bis(trimethylsilyloxy)silane,408.15,1.0,C[Si](C)(C)O[Si](C)(C)O[Si](C)(C)C,pubchem
1285,diethoxy-(2-ethylsulfanylethoxy)-sulfanylidene-λ5-phosphane;1-diethoxyphosphorylsulfanyl-2-ethylsulfanylethane,318.15,1.0,CCOP(=O)(OCC)SCCSCC.CCOP(=S)(OCC)OCCSCC,pubchem
1286,"(E)-1,3-dichloroprop-1-ene",308.15,1.0,C(C=CCl)Cl,pubchem
1287,1-[bis(2-hydroxypropyl)amino]propan-2-ol,433.15,1.0,CC(CN(CC(C)O)CC(C)O)O,pubchem
1288,"6-chloro-4-N-cyclopropyl-2-N-propan-2-yl-1,3,5-triazine-2,4-diamine",436.15,1.0,CC(C)NC1=NC(=NC(=N1)NC2CC2)Cl,pubchem
1289,[3-(methoxycarbonylamino)phenyl] N-(3-methylphenyl)carbamate,347.15,1.0,CC1=CC(=CC=C1)NC(=O)OC2=CC=CC(=C2)NC(=O)OC,pubchem
1290,2-hydroxyethyl octadecanoate,533.15,1.0,CCCCCCCCCCCCCCCCCC(=O)OCCO,pubchem
1291,trimethyl(trimethylsilyloxy)silane,243.15,1.0,C[Si](C)(C)O[Si](C)(C)C,pubchem
1292,chlorosulfanyl thiohypochlorite,391.15,1.0,S(SCl)Cl,pubchem
1293,butan-2-amine,264.15,1.0,CCC(C)N,pubchem
1294,N-butylcyclohexanamine,366.15,1.0,CCCCNC1CCCCC1,pubchem
1295,"1,2-dichloroethyl acetate",426.15,1.0,CC(=O)OC(CCl)Cl,pubchem
1296,"2,3-dimethylpentan-1-ol",334.15,1.0,CCC(C)C(C)CO,pubchem
1297,2-[2-(2-methoxypropoxy)propoxy]propan-1-ol,384.15,1.0,CC(CO)OCC(C)OCC(C)OC,pubchem
1298,(1-acetyloxy-2-methylprop-2-enyl) acetate,488.15,1.0,CC(=C)C(OC(=O)C)OC(=O)C,pubchem
1299,chloro thiohypochlorite,391.15,1.0,S(Cl)Cl,pubchem
1300,N-ethyl-N-methylnitrous amide,349.15,1.0,CCN(C)N=O,pubchem
1301,2-dodecylbenzenesulfonic acid,422.15,1.0,CCCCCCCCCCCCC1=CC=CC=C1S(=O)(=O)O,pubchem
1302,2-(2-methoxypropoxy)propan-1-ol,347.15,1.0,CC(CO)OCC(C)OC,pubchem
1303,chloro(diethyl)alumane;dichloro(ethyl)alumane,253.15,1.0,CC[Al](CC)Cl.CC[Al](Cl)Cl,pubchem
1304,"carbon monoxide;manganese;2-methylcyclopenta-1,3-diene",369.15,1.0,CC1=C[CH-]C=C1.[C-]#[O+].[C-]#[O+].[C-]#[O+].[Mn],pubchem
1305,tert-butylsulfanylmethylsulfanyl-diethoxy-sulfanylidene-λ5-phosphane,361.15,1.0,CCOP(=S)(OCC)SCSC(C)(C)C,pubchem
1306,N-ethylbutan-1-amine,291.15,1.0,CCCCNCC,pubchem
1307,"tris(1,3-dichloropropan-2-yl) phosphate",525.15,1.0,C(C(CCl)OP(=O)(OC(CCl)CCl)OC(CCl)CCl)Cl,pubchem
1308,"4,11,11-trimethyl-8-methylidenebicyclo[7.2.0]undec-4-ene",374.15,1.0,CC1=CCCC(=C)C2CC(C2CC1)(C)C,pubchem
1309,S-propyl chloromethanethioate,335.15,1.0,CCCSC(=O)Cl,pubchem
1310,"2,3-dimethylheptane;2,4-dimethylheptane;2,3,5-trimethylhexane",297.15,1.0,CCCCC(C)C(C)C.CCCC(C)CC(C)C.CC(C)CC(C)C(C)C,pubchem
1311,"2,3,4-trichlorophenol",335.15,1.0,C1=CC(=C(C(=C1O)Cl)Cl)Cl,pubchem
1312,5-ethylidenebicyclo[2.2.1]hept-2-ene,299.15,1.0,CC=C1CC2CC1C=C2,pubchem
1313,"[(1S,2S,6R,10S,11R,13S,14R,15R)-13-acetyloxy-1,6-dihydroxy-8-(hydroxymethyl)-4,12,12,15-tetramethyl-5-oxo-14-tetracyclo[8.5.0.02,6.011,13]pentadeca-3,8-dienyl] tetradecanoate",310.15,1.0,CCCCCCCCCCCCCC(=O)OC1C(C2(C(C=C(CC3(C2C=C(C3=O)C)O)CO)C4C1(C4(C)C)OC(=O)C)O)C,pubchem
1314,"S-(2,3-dichloroprop-2-enyl) N,N-di(propan-2-yl)carbamothioate",369.15,1.0,CC(C)N(C(C)C)C(=O)SCC(=CCl)Cl,pubchem
1315,"2-cyclohexylsulfanylisoindole-1,3-dione",450.15,1.0,C1CCC(CC1)SN2C(=O)C3=CC=CC=C3C2=O,pubchem
1316,trimethyl-[methyl-bis(trimethylsilyloxy)silyl]oxysilane,359.15,1.0,C[Si](C)(C)O[Si](C)(O[Si](C)(C)C)O[Si](C)(C)C,pubchem
1317,1-bromopropan-2-ol,327.15,1.0,CC(CBr)O,pubchem
1318,triethyl phosphite,319.15,1.0,CCOP(OCC)OCC,pubchem
1319,bis(2-ethylhexyl) decanedioate,483.15,1.0,CCCCC(CC)COC(=O)CCCCCCCCC(=O)OCC(CC)CCCC,pubchem
1320,phenyl acetate,353.15,1.0,CC(=O)OC1=CC=CC=C1,pubchem
1321,3-phenylpropan-1-ol,485.15,1.0,C1=CC=C(C=C1)CCCO,pubchem
1322,2-phenoxyethanol,394.15,1.0,C1=CC=C(C=C1)OCCO,pubchem
1323,dodecylbenzene,408.15,1.0,CCCCCCCCCCCCC1=CC=CC=C1,pubchem
1324,2-ethylhexanal,325.15,1.0,CCCCC(CC)C=O,pubchem
1325,4-ethylphenol,377.15,1.0,CCC1=CC=C(C=C1)O,pubchem
1326,4-methoxybenzaldehyde,389.15,1.0,COC1=CC=C(C=C1)C=O,pubchem
1327,2-methylpentanal,293.15,1.0,CCCC(C)C=O,pubchem
1328,heptan-4-one,322.15,1.0,CCCC(=O)CCC,pubchem
1329,ethenyl butanoate,293.15,1.0,CCCC(=O)OC=C,pubchem
1330,diethyl butanedioate,363.15,1.0,CCOC(=O)CCC(=O)OCC,pubchem
1331,"7-methyl-3-methylideneocta-1,6-diene",312.15,1.0,CC(=CCCC(=C)C=C)C,pubchem
1332,N-methylformamide,371.15,1.0,CNC=O,pubchem
1333,4-hydroxy-4-methylpentan-2-one,325.15,1.0,CC(=O)CC(C)(C)O,pubchem
1334,3-methylbutan-1-ol,319.15,1.0,CC(C)CCO,pubchem
1335,"pentane-2,4-dione",307.15,1.0,CC(=O)CC(=O)C,pubchem
1336,propanoyl propanoate,336.15,1.0,CCC(=O)OC(=O)CC,pubchem
1337,"2,4,6-trimethyl-1,3,5-trioxane",309.15,1.0,CC1OC(OC(O1)C)C,pubchem
1338,pyrrolidine,276.15,1.0,C1CCNC1,pubchem
1339,dioctyl hexanedioate,469.15,1.0,CCCCCCCCOC(=O)CCCCC(=O)OCCCCCCCC,pubchem
1340,butyl acetate,295.15,1.0,CCCCOC(=O)C,pubchem
1341,"1,4-dioxane",285.15,1.0,C1COCCO1,pubchem
1342,3-methylbutyl acetate,298.15,1.0,CC(C)CCOC(=O)C,pubchem
1343,butyl octadecanoate,433.15,1.0,CCCCCCCCCCCCCCCCCC(=O)OCCCC,pubchem
1344,N-prop-2-enylprop-2-en-1-amine,280.15,1.0,C=CCNCC=C,pubchem
1345,non-1-ene,299.15,1.0,CCCCCCCC=C,pubchem
1346,1-(2-butoxyethoxy)propan-2-ol,394.15,1.0,CCCCOCCOCC(C)O,pubchem
1347,2-(2-butoxyethoxy)ethyl acetate,389.15,1.0,CCCCOCCOCCOC(=O)C,pubchem
1348,nonanal,356.15,1.0,CCCCCCCCC=O,pubchem
1349,"2,2-dimethylpropane-1,3-diol",380.15,1.0,CC(C)(CO)CO,pubchem
1350,"thiolane 1,1-dioxide",439.15,1.0,C1CCS(=O)(=O)C1,pubchem
1351,tributyl phosphate,419.15,1.0,CCCCOP(=O)(OCCCC)OCCCC,pubchem
1352,2-methylprop-2-enenitrile,286.15,1.0,CC(=C)C#N,pubchem
1353,"2-chlorobuta-1,3-diene",253.15,1.0,C=CC(=C)Cl,pubchem
1354,1-chloropropan-2-ol,325.15,1.0,CC(CCl)O,pubchem
1355,"N,N-dimethylacetamide",339.15,1.0,CC(=O)N(C)C,pubchem
1356,"2,6-ditert-butyl-4-methylphenol",400.15,1.0,CC1=CC(=C(C(=C1)C(C)(C)C)O)C(C)(C)C,pubchem
1357,"(2-methyl-4-oxo-3-prop-2-ynylcyclopent-2-en-1-yl) (1S,3S)-2,2-dimethyl-3-(2-methylprop-1-enyl)cyclopropane-1-carboxylate",412.15,1.0,CC1=C(C(=O)CC1OC(=O)C2C(C2(C)C)C=C(C)C)CC#C,pubchem
1358,"N-(butoxymethyl)-2-chloro-N-(2,6-diethylphenyl)acetamide",387.15,1.0,CCCCOCN(C1=C(C=CC=C1CC)CC)C(=O)CCl,pubchem
1359,"4-diethoxyphosphinothioyloxy-N,N-diethyl-6-methylpyrimidin-2-amine",386.15,1.0,CCN(CC)C1=NC(=CC(=N1)OP(=S)(OCC)OCC)C,pubchem
1360,2-ethyl-6-methylaniline,375.15,1.0,CCC1=CC=CC(=C1N)C,pubchem
1361,2-[2-(2-hydroxypropoxy)propoxy]propan-1-ol,414.15,1.0,CC(CO)OCC(C)OCC(C)O,pubchem
1362,zinc;bis(8-methylnonoxy)-sulfanylidene-sulfido-λ5-phosphane,553.15,1.0,CC(C)CCCCCCCOP(=S)(OCCCCCCCC(C)C)[S-].CC(C)CCCCCCCOP(=S)(OCCCCCCCC(C)C)[S-].[Zn+2],pubchem
1363,"2,5-dimethyl-1,4-dioxane",297.15,1.0,CC1COC(CO1)C,pubchem
1364,2-(2-hydroxypropoxy)propan-1-ol,472.15,1.0,CC(CO)OCC(C)O,pubchem
1365,8-methylnonan-1-ol,377.15,1.0,CC(C)CCCCCCCO,pubchem
1366,N-butyl-N-propylnitrous amide,367.15,1.0,CCCCN(CCC)N=O,pubchem
1367,2-[1-(1-methoxypropan-2-yloxy)propan-2-yloxy]propan-1-ol,394.15,1.0,CC(CO)OC(C)COC(C)COC,pubchem
1368,3-hydroxypropyl prop-2-enoate,370.15,1.0,C=CC(=O)OCCCO,pubchem
1369,"bis(8-methylnonyl) benzene-1,2-dicarboxylate",505.15,1.0,CC(C)CCCCCCCOC(=O)C1=CC=CC=C1C(=O)OCCCCCCCC(C)C,pubchem
1370,"oxiran-2-ylmethyl 2,2-dimethyloctanoate",402.15,1.0,CCCCCCC(C)(C)C(=O)OCC1CO1,pubchem
1371,non-2-ene,299.15,1.0,CCCCCCC=CC,pubchem
1372,"bis(6-methylheptyl) benzene-1,2-dicarboxylate",505.15,1.0,CC(C)CCCCCOC(=O)C1=CC=CC=C1C(=O)OCCCCCC(C)C,pubchem
1373,1-hydroxypropan-2-yl 2-methylprop-2-enoate,394.15,1.0,CC(CO)OC(=O)C(=C)C,pubchem
1374,azane;1-methyl-4-nitrobenzene;2-nitroaniline;3-nitroaniline,427.15,1.0,CC1=CC=C(C=C1)[N+](=O)[O-].C1=CC=C(C(=C1)N)[N+](=O)[O-].C1=CC(=CC(=C1)[N+](=O)[O-])N.N,pubchem
1375,8-methylnonyl 2-methylprop-2-enoate,394.15,1.0,CC(C)CCCCCCCOC(=O)C(=C)C,pubchem
1376,[2-(ethylsulfanylmethyl)phenyl] N-methylcarbamate,396.15,1.0,CCSCC1=CC=CC=C1OC(=O)NC,pubchem
1377,"N-(2-chloroethyl)-2,6-dinitro-N-propyl-4-(trifluoromethyl)aniline",303.15,1.0,CCCN(CCCl)C1=C(C=C(C=C1[N+](=O)[O-])C(F)(F)F)[N+](=O)[O-],pubchem
1378,"1,3-dichloro-5-(3,5-dichlorophenyl)benzene",414.15,1.0,C1=C(C=C(C=C1Cl)Cl)C2=CC(=CC(=C2)Cl)Cl,pubchem
1379,3-[3-(dimethylamino)propyl]-1-[(2-fluorophenyl)methyl-methylamino]-3-phenylindol-2-one,466.15,1.0,CN(C)CCCC1(C2=CC=CC=C2N(C1=O)N(C)CC3=CC=CC=C3F)C4=CC=CC=C4,pubchem
1380,"N-butan-2-yl-4-tert-butyl-2,6-dinitroaniline",309.15,1.0,CCC(C)NC1=C(C=C(C=C1[N+](=O)[O-])C(C)(C)C)[N+](=O)[O-],pubchem
1381,"1,1-dimethyl-3-(4-propan-2-ylphenyl)urea",373.15,1.0,CC(C)C1=CC=C(C=C1)NC(=O)N(C)C,pubchem
1382,"1-[2-(2,4-dichlorophenyl)-2-prop-2-enoxyethyl]imidazole",465.15,1.0,C=CCOC(CN1C=CN=C1)C2=C(C=C(C=C2)Cl)Cl,pubchem
1383,"1,2,3-trichloro-4-(2,3,4-trichlorophenyl)benzene",414.15,1.0,C1=CC(=C(C(=C1C2=C(C(=C(C=C2)Cl)Cl)Cl)Cl)Cl)Cl,pubchem
1384,"1,3-dichloro-5-(3-chlorophenyl)benzene",414.15,1.0,C1=CC(=CC(=C1)Cl)C2=CC(=CC(=C2)Cl)Cl,pubchem
1385,"3,4-dimethyl-2,6-dinitro-N-pentan-3-ylaniline",306.15,1.0,CCC(CC)NC1=C(C=C(C(=C1[N+](=O)[O-])C)C)[N+](=O)[O-],pubchem
1386,"1,2,3-triethylbenzene",356.15,1.0,CCC1=C(C(=CC=C1)CC)CC,pubchem
1387,"1-(4-chlorophenoxy)-3,3-dimethyl-1-(1,2,4-triazol-1-yl)butan-2-one",345.15,1.0,CC(C)(C)C(=O)C(N1C=NC=N1)OC2=CC=C(C=C2)Cl,pubchem
1388,N-[2-[ethoxy(methyl)phosphoryl]sulfanylethyl]-N-propan-2-ylpropan-2-amine,432.15,1.0,CCOP(=O)(C)SCCN(C(C)C)C(C)C,pubchem
1389,"methyl 2-[4-(2,4-dichlorophenoxy)phenoxy]propanoate",311.15,1.0,CC(C(=O)OC)OC1=CC=C(C=C1)OC2=C(C=C(C=C2)Cl)Cl,pubchem
1390,2-nitrooxyethyl nitrate,488.15,1.0,C(CO[N+](=O)[O-])O[N+](=O)[O-],pubchem
1391,"(1S,2R,5R)-5-methyl-2-propan-2-ylcyclohexan-1-ol",364.15,1.0,CC1CCC(C(C1)O)C(C)C,pubchem
1392,"[(S)-cyano-(3-phenoxyphenyl)methyl] (1R,3S)-2,2-dimethyl-3-(1,2,2,2-tetrabromoethyl)cyclopropane-1-carboxylate",299.15,1.0,CC1(C(C1C(=O)OC(C#N)C2=CC(=CC=C2)OC3=CC=CC=C3)C(C(Br)(Br)Br)Br)C,pubchem
1393,2-methoxypropyl acetate,298.15,1.0,CC(COC(=O)C)OC,pubchem
1394,ethyl N-[2-(4-phenoxyphenoxy)ethyl]carbamate,497.15,1.0,CCOC(=O)NCCOC1=CC=C(C=C1)OC2=CC=CC=C2,pubchem
1395,"2-[(2-chlorophenyl)methyl]-4,4-dimethyl-1,2-oxazolidin-3-one",257.15,1.0,CC1(CON(C1=O)CC2=CC=CC=C2Cl)C,pubchem
1396,"(2-methyl-3-phenylphenyl)methyl 3-(2-chloro-3,3,3-trifluoroprop-1-enyl)-2,2-dimethylcyclopropane-1-carboxylate",438.15,1.0,CC1=C(C=CC=C1COC(=O)C2C(C2(C)C)C=C(C(F)(F)F)Cl)C3=CC=CC=C3,pubchem
1397,(3S)-N-methyl-3-naphthalen-1-yloxy-3-thiophen-2-ylpropan-1-amine,282.15,1.0,CNCCC(C1=CC=CS1)OC2=CC=CC3=CC=CC=C32,pubchem
1398,"5-[2-[4-(1,2-benzothiazol-3-yl)piperazin-1-yl]ethyl]-6-chloro-1,3-dihydroindol-2-one",271.15,1.0,C1CN(CCN1CCC2=C(C=C3C(=C2)CC(=O)N3)Cl)C4=NSC5=CC=CC=C54,pubchem
1399,trichloro(cyclohexyl)silane,364.15,1.0,C1CCC(CC1)[Si](Cl)(Cl)Cl,pubchem
1400,"3,4-dihydro-2H-pyran-2-carbaldehyde",321.15,1.0,C1CC(OC=C1)C=O,pubchem
1401,"N',N'-diethylpropane-1,3-diamine",332.15,1.0,CCN(CC)CCCN,pubchem
1402,3-methylbut-2-enal,310.15,1.0,CC(=CC=O)C,pubchem
1403,"2,4,6,8-tetramethyl-1,3,5,7-tetraoxocane",309.15,1.0,CC1OC(OC(OC(O1)C)C)C,pubchem
1404,"[(1R,2R,4S)-1,7,7-trimethyl-2-bicyclo[2.2.1]heptanyl] acetate",361.15,1.0,CC(=O)OC1CC2CCC1(C2(C)C)C,pubchem
1405,"butane-1,3-diamine",325.15,1.0,CC(CCN)N,pubchem
1406,butyl carbonochloridate,298.15,1.0,CCCCOC(=O)Cl,pubchem
1407,dichloro-ethyl-sulfanylidene-λ5-phosphane,368.15,1.0,CCP(=S)(Cl)Cl,pubchem
1408,2-methoxy-2-methylbutane,266.15,1.0,CCC(C)(C)OC,pubchem
1409,2-hydroxypropyl prop-2-enoate,338.15,1.0,CC(COC(=O)C=C)O,pubchem
1410,pentyl nitrate,322.15,1.0,CCCCCO[N+](=O)[O-],pubchem
1411,"2-ethylhexyl 2-(2,4-dichlorophenoxy)acetate",444.15,1.0,CCCCC(CC)COC(=O)COC1=C(C=C(C=C1)Cl)Cl,pubchem
1412,prop-2-enyl nonanoate,302.15,1.0,CCCCCCCCC(=O)OCC=C,pubchem
1413,2-ethylbutyl acetate,327.15,1.0,CCC(CC)COC(=O)C,pubchem
1414,(2R)-2-hydroxypropanoic acid,386.15,1.0,CC(C(=O)O)O,pubchem
1415,nickel(2+);dihydroxide,673.15,1.0,[OH-].[OH-].[Ni+2],pubchem
1416,3-propoxypropan-1-ol,326.15,1.0,CCCOCCCO,pubchem
1417,"4,4-dimethyl-1,3-oxazolidine",322.15,1.0,CC1(COCN1)C,pubchem
1418,"(3E)-penta-1,3-diene",244.15,1.0,CC=CC=C,pubchem
1419,propanoyl chloride,285.15,1.0,CCC(=O)Cl,pubchem
1420,2-methylpropyl carbonochloridate,300.15,1.0,CC(C)COC(=O)Cl,pubchem
1421,"cyclopenta-1,3-diene;nickel(2+)",277.15,1.0,[CH-]1C=CC=C1.[CH-]1C=CC=C1.[Ni+2],pubchem
1422,propan-2-yl 2-phenylacetate,368.15,1.0,CC(C)OC(=O)CC1=CC=CC=C1,pubchem
1423,undecane-1-thiol,382.15,1.0,CCCCCCCCCCCS,pubchem
1424,ethyl 3-hydroxybutanoate,337.15,1.0,CCOC(=O)CC(C)O,pubchem
1425,(E)-but-2-ene,262.15,1.0,CC=CC,pubchem
1426,"(7-chloro-6-bicyclo[3.2.0]hepta-2,6-dienyl) dimethyl phosphate",438.15,1.0,COP(=O)(OC)OC1=C(C2C1CC=C2)Cl,pubchem
1427,"2-methylpropanoic acid;2,2,4-trimethylpentane-1,3-diol",393.15,1.0,CC(C)C(C(C)(C)CO)O.CC(C)C(=O)O,pubchem
1428,dimethyl-octadecyl-(3-trimethoxysilylpropyl)azanium;chloride,288.15,1.0,CCCCCCCCCCCCCCCCCC[N+](C)(C)CCC[Si](OC)(OC)OC.[Cl-],pubchem
1429,"7,7-dimethyloctanoic acid",367.15,1.0,CC(C)(C)CCCCCC(=O)O,pubchem
1430,"1,2-dichloro-3-(2,4-dichlorophenyl)benzene",414.15,1.0,C1=CC(=C(C(=C1)Cl)Cl)C2=C(C=C(C=C2)Cl)Cl,pubchem
1431,"1,7,7-trimethylbicyclo[2.2.1]heptan-2-ol",339.15,1.0,CC1(C2CCC1(C(C2)O)C)C,pubchem
1432,"[3-[3-(3,5-ditert-butyl-4-hydroxyphenyl)propanoyloxy]-2,2-bis[3-(3,5-ditert-butyl-4-hydroxyphenyl)propanoyloxymethyl]propyl] 3-(3,5-ditert-butyl-4-hydroxyphenyl)propanoate",570.15,1.0,CC(C)(C)C1=CC(=CC(=C1O)C(C)(C)C)CCC(=O)OCC(COC(=O)CCC2=CC(=C(C(=C2)C(C)(C)C)O)C(C)(C)C)(COC(=O)CCC3=CC(=C(C(=C3)C(C)(C)C)O)C(C)(C)C)COC(=O)CCC4=CC(=C(C(=C4)C(C)(C)C)O)C(C)(C)C,pubchem