,compound,flashpoint,pure substance,smiles,source
0,"(2E)-but-2-ene-1,4-diol",401.0,1,OC/C=C/CO,saldana11
1,"(2R,3R,4R,5S)-hexane-1,2,3,4,5,6-hexol",422.0,1,OC[C@H](O)[C@@H](O)[C@H](O)[C@H](O)CO,saldana11
2,"(2S)-butane-1,2,4-triol",385.0,1,OCC[C@H](O)CO,saldana11
3,"(2Z)-but-2-ene-1,4-diol",401.0,1,OC/C=C\CO,saldana11
4,"2-butyl-2-ethylpropane-1,3-diol",386.0,1,CCCCC(CC)(CO)CO,saldana11
5,2-butyloctan-1-ol,382.0,1,CCCCCCC(CO)CCCC,saldana11
6,2-ethylbutan-1-ol,330.0,1,CCC(CC)CO,saldana11
7,2-ethylhexan-1-ol,346.0,1,CCCCC(CC)CO,saldana11
8,"2-ethylhexane-1,3-diol",409.0,1,CCCC(O)C(CC)CO,saldana11
9,2-methylbutan-1-ol,316.0,1,CCC(C)CO,saldana11
10,2-methylbutan-2-ol,294.0,1,CCC(C)(C)O,saldana11
11,2-methylpentan-1-ol,319.0,1,CCCC(C)CO,saldana11
12,"2-methylpentane-2,4-diol",366.0,1,CC(O)CC(C)(C)O,saldana11
13,2-methylpropan-1-ol,301.0,1,OCC(C)C,saldana11
14,2-methylpropan-2-ol,284.0,1,CC(C)(C)O,saldana11
15,"2,2-bis(hydroxymethyl)propane-1,3-diol",533.0,1,OCC(CO)(CO)CO,saldana11
16,"2,2-diethylpropane-1,3-diol",374.0,1,CCC(CC)(CO)CO,saldana11
17,"2,2-dimethylpropane-1,3-diol",371.0,1,OCC(C)(C)CO,saldana11
18,"2,2,4-trimethylpentan-1-ol",330.0,1,OCC(C)(C)CC(C)C,saldana11
19,"2,2,4-trimethylpentane-1,3-diol",383.0,1,OCC(C)(C)C(O)C(C)C,saldana11
20,"2,3-dimethylbutane-2,3-diol",350.0,1,CC(C)(O)C(C)(C)O,saldana11
21,"2,3,4-trimethylpentan-1-ol",333.0,1,OCC(C)C(C)C(C)C,saldana11
22,"2,4,4-trimethylpentan-1-ol",333.0,1,OCC(C)CC(C)(C)C,saldana11
23,3-methylbutan-1-ol,316.0,1,OCCC(C)C,saldana11
24,3-methylbutan-2-ol,299.0,1,CC(O)C(C)C,saldana11
25,3-methylheptan-3-ol,327.0,1,CCCCC(C)(O)CC,saldana11
26,3-methylpentan-1-ol,331.0,1,OCCC(C)CC,saldana11
27,3-methylpentan-3-ol,297.0,1,CCC(C)(O)CC,saldana11
28,"3,3-dimethylbutan-1-ol",321.0,1,OCCC(C)(C)C,saldana11
29,4-methylpentan-2-ol,314.0,1,CC(C)CC(C)O,saldana11
30,5-methylheptan-3-ol,327.0,1,CCC(C)CC(O)CC,saldana11
31,8-methylnonan-1-ol,378.0,1,OCCCCCCCC(C)C,saldana11
32,butan-1-ol,310.0,1,CCCCO,saldana11
33,butan-2-ol,296.0,1,CCC(C)O,saldana11
34,"butane-1,2-diol",363.0,1,CCC(O)CO,saldana11
35,"butane-1,3-diol",382.0,1,OCCC(C)O,saldana11
36,"butane-1,4-diol",407.0,1,OCCCCO,saldana11
37,"butane-2,3-diol",358.0,1,CC(O)C(C)O,saldana11
38,decan-1-ol,378.0,1,CCCCCCCCCCO,saldana11
39,"ethane-1,2-diol",383.0,1,OCCO,saldana11
40,ethanol,286.0,1,CCO,saldana11
41,heptan-1-ol,346.0,1,CCCCCCCO,saldana11
42,heptan-2-ol,332.0,1,CCCCCC(C)O,saldana11
43,hexan-1-ol,335.0,1,CCCCCCO,saldana11
44,hexan-2-ol,314.0,1,CCCCC(C)O,saldana11
45,"hexane-1,2,6-triol",471.0,1,OCCCCC(O)CO,saldana11
46,"hexane-1,6-diol",420.0,1,OCCCCCCO,saldana11
47,"hexane-2,5-diol",374.0,1,CC(O)CCC(C)O,saldana11
48,methanol,284.0,1,CO,saldana11
49,nonan-1-ol,353.0,1,CCCCCCCCCO,saldana11
50,oct-1-en-3-ol,341.0,1,CCCCCC(O)C=C,saldana11
51,octan-1-ol,354.0,1,CCCCCCCCO,saldana11
52,octan-2-ol,358.0,1,CCCCCCC(C)O,saldana11
53,pentan-1-ol,330.0,1,CCCCCO,saldana11
54,pentan-2-ol,314.0,1,CCCC(C)O,saldana11
55,pentan-3-ol,313.0,1,CCC(O)CC,saldana11
56,"pentane-1,5-diol",402.0,1,OCCCCCO,saldana11
57,"pentane-2,4-diol",374.0,1,CC(O)CC(C)O,saldana11
58,prop-2-en-1-ol,294.0,1,OCC=C,saldana11
59,propan-1-ol,298.0,1,CCCO,saldana11
60,propan-2-ol,285.0,1,CC(C)O,saldana11
61,"propane-1,1-diol",372.0,1,CCC(O)O,saldana11
62,"propane-1,2-diol",372.0,1,OCC(C)O,saldana11
63,"propane-1,2,3-triol",433.0,1,OCC(O)CO,saldana11
64,"propane-1,3-diol",352.0,1,OCCCO,saldana11
65,tetradecan-1-ol,418.0,1,CCCCCCCCCCCCCCO,saldana11
66,tridecan-1-ol,394.0,1,CCCCCCCCCCCCCO,saldana11
67,(1-methylheptyl)benzene,373.0,1,CCCCCCC(C)c1ccccc1,saldana11
68,(1E)-prop-1-en-1-ylbenzene,325.0,1,C/C=C/c1ccccc1,saldana11
69,(1Z)-prop-1-enylbenzene,311.0,1,C/C=C\c1ccccc1,saldana11
70,(2-methylbutyl)benzene,337.0,1,CCC(C)Cc1ccccc1,saldana11
71,"(2,2-dimethylpropyl)benzene",323.0,1,CC(C)(C)Cc1ccccc1,saldana11
72,1-ethyl-2-isopropylbenzene,331.0,1,CC(C)c1ccccc1C,saldana11
73,1-ethyl-2-methylbenzene,312.0,1,CCc1ccccc1C,saldana11
74,"1-ethyl-2,3-dimethylbenzene",338.0,1,CCc1cccc(C)c1C,saldana11
75,"1-ethyl-2,4-dimethylbenzene",330.0,1,CCc1ccc(C)cc1C,saldana11
76,1-ethyl-3-methylbenzene,311.0,1,CCc1cccc(C)c1,saldana11
77,1-ethyl-4-methylbenzene,309.0,1,CCc1ccc(C)cc1,saldana11
78,1-methyl-2-ethenylbenzene,320.0,1,C=Cc1ccccc1C,saldana11
79,1-methyl-3-(propan-2-yl)benzene,323.0,1,Cc1cccc(c1)C(C)C,saldana11
80,1-methyl-3-ethenylbenzene,324.0,1,C=Cc1cccc(C)c1,saldana11
81,1-methyl-3-propylbenzene,325.0,1,CCCc1cccc(C)c1,saldana11
82,1-methyl-4-ethenylbenzene,319.0,1,C=Cc1ccc(C)cc1,saldana11
83,"1,1-diphenylethane",402.0,1,CC(c1ccccc1)c1ccccc1,saldana11
84,"1,2-diethylbenzene",330.0,1,CCc1ccccc1CC,saldana11
85,"1,2-dimethyl-3-propylbenzene",345.0,1,CCCc1cccc(C)c1C,saldana11
86,"1,2-dimethylbenzene",290.0,1,Cc1ccccc1C,saldana11
87,"1,2-diphenylbenzene",436.0,1,c1ccc(cc1)c1ccccc1c1ccccc1,saldana11
88,"1,2-diphenylethane",402.0,1,c1ccc(cc1)CCc1ccccc1,saldana11
89,"1,2,3-trimethylbenzene",317.0,1,Cc1cccc(C)c1C,saldana11
90,"1,2,3,4-tetramethylbenzene",341.0,1,Cc1ccc(C)c(C)c1C,saldana11
91,"1,2,3,5-tetramethylbenzene",336.0,1,Cc1cc(C)c(C)c(C)c1,saldana11
92,"1,2,4-triethylbenzene",353.0,1,CCc1ccc(CC)c(CC)c1,saldana11
93,"1,2,4-trimethylbenzene",319.0,1,Cc1ccc(C)c(C)c1,saldana11
94,"1,2,4,5-tetramethylbenzene",328.0,1,Cc1cc(C)c(C)cc1C,saldana11
95,"1,3-di(propan-2-yl)benzene",349.0,1,CC(C)c1cccc(c1)C(C)C,saldana11
96,"1,3-diethylbenzene",329.0,1,CCc1cccc(CC)c1,saldana11
97,"1,3-diphenylbenzene",464.0,1,c1ccc(cc1)c1cccc(c1)c1ccccc1,saldana11
98,"1,3-xylene",298.0,1,Cc1cccc(C)c1,saldana11
99,"1,3,5-triethylbenzene",354.0,1,CCc1cc(CC)cc(CC)c1,saldana11
100,"1,3,5-triisopropylbenzene",360.0,1,CC(C)c1cc(cc(c1)C(C)C)C(C)C,saldana11
101,"1,3,5-trimethylbenzene",318.0,1,Cc1cc(C)cc(C)c1,saldana11
102,"1,4-diethylbenzene",329.0,1,CCc1ccc(CC)cc1,saldana11
103,"1,4-diisopropylbenzene",349.0,1,CC(C)c1ccc(cc1)C(C)C,saldana11
104,"1,4-dimethylbenzene",298.0,1,Cc1ccc(C)cc1,saldana11
105,"1,4-diphenylbenzene",480.0,1,c1ccc(cc1)c1ccc(cc1)c1ccccc1,saldana11
106,"2-ethyl-1,4-dimethylbenzene",329.0,1,CCc1cc(C)ccc1C,saldana11
107,2-phenyl-2-methylbutane,338.0,1,CCC(C)(C)c1ccccc1,saldana11
108,"2,2-diphenylpropane",383.0,1,CC(C)(c1ccccc1)c1ccccc1,saldana11
109,"4-ethyl-1,2-dimethylbenzene",331.0,1,CCc1ccc(C)c(C)c1,saldana11
110,4-isopropyltoluene,320.0,1,Cc1ccc(cc1)C(C)C,saldana11
111,alpha-methylstyrene,313.0,1,CC(=C)c1ccccc1,saldana11
112,benzene,262.0,1,c1ccccc1,saldana11
113,biphenyl,386.0,1,c1ccc(cc1)c1ccccc1,saldana11
114,cyclohexylbenzene,372.0,1,C1CCC(CC1)c1ccccc1,saldana11
115,diphenylmethane,403.0,1,c1ccc(cc1)Cc1ccccc1,saldana11
116,ethenylbenzene,305.0,1,C=Cc1ccccc1,saldana11
117,ethylbenzene,288.0,1,CCc1ccccc1,saldana11
118,indane,322.0,1,c1ccc2CCCc2c1,saldana11
119,isobutylbenzene,325.0,1,CC(C)Cc1ccccc1,saldana11
120,isopentylbenzene,335.0,1,CC(C)CCc1ccccc1,saldana11
121,isopropylbenzene,304.0,1,CC(C)c1ccccc1,saldana11
122,n-butylbenzene,323.0,1,CCCCc1ccccc1,saldana11
123,n-decylbenzene,380.0,1,CCCCCCCCCCc1ccccc1,saldana11
124,n-dodecylbenzene,414.0,1,CCCCCCCCCCCCc1ccccc1,saldana11
125,n-heptylbenzene,368.0,1,CCCCCCCc1ccccc1,saldana11
126,n-hexylbenzene,353.0,1,CCCCCCc1ccccc1,saldana11
127,n-propylbenzene,303.0,1,CCCc1ccccc1,saldana11
128,n-undecylbenzene,417.0,1,CCCCCCCCCCCc1ccccc1,saldana11
129,nonylbenzene,372.0,1,CCCCCCCCCc1ccccc1,saldana11
130,octylbenzene,380.0,1,CCCCCCCCc1ccccc1,saldana11
131,pentamethylbenzene,364.0,1,Cc1cc(C)c(C)c(C)c1C,saldana11
132,pentylbenzene,338.0,1,CCCCCc1ccccc1,saldana11
133,sec-butylbenzene,325.0,1,CCC(C)c1ccccc1,saldana11
134,tert-butylbenzene,333.0,1,CC(C)(C)c1ccccc1,saldana11
135,tetralin,350.0,1,C1CCc2ccccc2C1,saldana11
136,toluene,277.0,1,Cc1ccccc1,saldana11
137,(1R)-1-phenylethan-1-ol,358.0,1,C[C@@H](O)c1ccccc1,saldana11
138,(2-methylphenyl)methanol,377.0,1,OCc1ccccc1C,saldana11
139,(3-methylphenyl)methanol,378.0,1,OCc1cccc(C)c1,saldana11
140,[4-(hydroxymethyl)phenyl]methanol,461.0,1,OCc1ccc(CO)cc1,saldana11
141,{4-[(benzoyloxy)methyl]cyclohexyl}methyl benzoate,434.0,1,O=C(OCC1CCC(CC1)COC(=O)c1ccccc1)c1ccccc1,saldana11
142,1-phenylpropan-1-ol,363.0,1,CCC(O)c1ccccc1,saldana11
143,1-phenylpropan-2-ol,358.0,1,CC(O)Cc1ccccc1,saldana11
144,2-ethylphenol,351.0,1,CCc1ccccc1O,saldana11
145,2-furylmethanol,356.0,1,OCc1ccco1,saldana11
146,2-methylphenol,354.0,1,Cc1ccccc1O,saldana11
147,2-phenylethanol,369.0,1,OCCc1ccccc1,saldana11
148,2-phenylpropan-1-ol,366.0,1,OCC(C)c1ccccc1,saldana11
149,2-phenylpropan-2-ol,360.0,1,CC(C)(O)c1ccccc1,saldana11
150,"2,6-di-tert-butyl-p-cresol",390.0,1,Cc1cc(c(O)c(c1)C(C)(C)C)C(C)(C)C,saldana11
151,3-ethylphenol,367.0,1,CCc1cccc(O)c1,saldana11
152,3-methylphenol,368.0,1,Cc1cccc(O)c1,saldana11
153,3-phenylpropan-1-ol,373.0,1,OCCCc1ccccc1,saldana11
154,4-(2-methylbutan-2-yl)phenol,384.0,1,CCC(C)(C)c1ccc(O)cc1,saldana11
155,4-[2-(4-hydroxyphenyl)propan-2-yl]phenol,480.0,1,Oc1ccc(cc1)C(C)(C)c1ccc(O)cc1,saldana11
156,4-ethylphenol,373.0,1,CCc1ccc(O)cc1,saldana11
157,4-methylphenol,368.0,1,Cc1ccc(O)cc1,saldana11
158,"4-tert-butylbenzene-1,2-diol",403.0,1,Oc1ccc(cc1O)C(C)(C)C,saldana11
159,4-tert-butylphenol,386.0,1,Oc1ccc(cc1)C(C)(C)C,saldana11
160,"benzene-1,2-diol",400.0,1,Oc1ccccc1O,saldana11
161,"benzene-1,3-diol",400.0,1,Oc1cccc(O)c1,saldana11
162,"benzene-1,4-diol",438.0,1,Oc1ccc(O)cc1,saldana11
163,benzyl benzoate,418.0,1,O=C(OCc1ccccc1)c1ccccc1,saldana11
164,benzyl ethanoate,363.0,1,CC(=O)OCc1ccccc1,saldana11
165,benzyl methanoate,355.0,1,O=COCc1ccccc1,saldana11
166,butyl benzoate,379.0,1,CCCCOC(=O)c1ccccc1,saldana11
167,di-n-butyl phthalate,430.0,1,CCCCOC(=O)c1ccccc1C(=O)OCCCC,saldana11
168,di-n-decyl phthalate,505.0,1,CCCCCCCCCCOC(=O)c1ccccc1C(=O)OCCCCCCCCCC,saldana11
169,di-n-hexyl phthalate,466.0,1,CCCCCCOC(=O)c1ccccc1C(=O)OCCCCCC,saldana11
170,di-n-nonyl phthalate,489.0,1,CCCCCCCCCOC(=O)c1ccccc1C(=O)OCCCCCCCCC,saldana11
171,diethyl phthalate,390.0,1,CCOC(=O)c1ccccc1C(=O)OCC,saldana11
172,diisobutyl phthalate,434.0,1,CC(C)COC(=O)c1ccccc1C(=O)OCC(C)C,saldana11
173,diisodecyl phthalate,505.0,1,CC(C)CCCCCCCOC(=O)c1ccccc1C(=O)OCCCCCCCC(C)C,saldana11
174,dimethyl isophthalate,411.0,1,COC(=O)c1cccc(c1)C(=O)OC,saldana11
175,dimethyl phthalate,419.0,1,COC(=O)c1ccccc1C(=O)OC,saldana11
176,dioctyl phthalate,489.0,1,CCCCC(CC)COC(=O)c1ccccc1C(=O)OCC(CC)CCCC,saldana11
177,ethyl benzoate,357.0,1,CCOC(=O)c1ccccc1,saldana11
178,methyl benzoate,355.0,1,COC(=O)c1ccccc1,saldana11
179,n-propyl benzoate,371.0,1,CCCOC(=O)c1ccccc1,saldana11
180,nonylphenol,411.0,1,CCCCCCCCCc1ccccc1O,saldana11
181,phenol,353.0,1,Oc1ccccc1,saldana11
182,phenylmethanol,374.0,1,OCc1ccccc1,saldana11
183,"xylen-2,4-ol",368.0,1,Cc1ccc(O)c(C)c1,saldana11
184,"xylen-2,6-ol",346.0,1,Oc1c(C)cccc1C,saldana11
185,"(1R,2S,5R)-5-methyl-2-propan-2-ylcyclohexan-1-ol",366.0,1,C[C@H]1CC[C@H](C(C)C)[C@@H](O)C1,saldana11
186,1-methylcyclohexan-1-ol,338.0,1,CC1(O)CCCCC1,saldana11
187,"1,2,3,6-tetrahydrobenzyl alcohol",346.0,1,OCC1CCC=CC1,saldana11
188,"1,4-cyclohexanedimethanol",434.0,1,OCC1CCC(CO)CC1,saldana11
189,2-(4-methylcyclohex-3-en-1-yl)propan-2-ol,367.0,1,CC1=CCC(CC1)C(C)(C)O,saldana11
190,4-methyl-cyclohexane-methanol,354.0,1,OCC1CCC(C)CC1,saldana11
191,5-methyloxolan-2-one,354.0,1,CC1CCC(=O)O1,saldana11
192,cis-2-methylcyclohexanol,331.0,1,C[C@H]1CCCC[C@H]1O,saldana11
193,cis-3-methylcyclohexanol,335.0,1,C[C@H]1CCC[C@@H](O)C1,saldana11
194,cis-4-methylcyclohexanol,343.0,1,C[C@@H]1CC[C@H](O)CC1,saldana11
195,cyclohexanol,341.0,1,OC1CCCCC1,saldana11
196,cyclohexyl ethanoate,330.0,1,CC(=O)OC1CCCCC1,saldana11
197,cyclohexyl methanoate,324.0,1,O=COC1CCCCC1,saldana11
198,"dimethyl-1,4-cyclohexanedicarboxylate",383.0,1,COC(=O)C1CCC(CC1)C(=O)OC,saldana11
199,oxepan-2-one,382.0,1,O=C1CCCCCO1,saldana11
200,oxetan-2-one,343.0,1,C1COC1=O,saldana11
201,oxolan-2-one,371.0,1,O=C1CCCO1,saldana11
202,trans-2-methylcyclohexanol,331.0,1,C[C@@H]1CCCC[C@H]1O,saldana11
203,trans-3-methylcyclohexanol,335.0,1,C[C@@H]1CCC[C@@H](O)C1,saldana11
204,1-ethylpropyl ethanoate,318.0,1,CCC(CC)OC(=O)C,saldana11
205,1-methylethenyl ethanoate,283.0,1,CC(=C)OC(=O)C,saldana11
206,"1,2-dimethylpropyl ethanoate",316.0,1,CC(=O)OC(C)C(C)C,saldana11
207,2-ethylhexyl ethanoate,344.0,1,CCCCC(CC)COC(=O)C,saldana11
208,2-ethylhexyl prop-2-enoate,355.0,1,CCCCC(CC)COC(=O)C=C,saldana11
209,"2,2-dimethylpropyl methanoate",311.0,1,O=COCC(C)(C)C,saldana11
210,"2,2-dimethylpropyl propanoate",334.0,1,CCC(=O)OCC(C)(C)C,saldana11
211,allyl 2-methylpropenoate,306.0,1,C=CCOC(=O)C(=C)C,saldana11
212,allyl ethanoate,295.0,1,CC(=O)OCC=C,saldana11
213,allylidene diethanoate,355.0,1,C=CC(OC(=O)C)OC(=O)C,saldana11
214,butyl 2-methylprop-2-enoate,322.0,1,CCCCOC(=O)C(=C)C,saldana11
215,butyl butanoate,326.0,1,CCCCOC(=O)CCC,saldana11
216,butyl ethanoate,295.0,1,CCCCOC(=O)C,saldana11
217,butyl methanoate,291.0,1,CCCCOC=O,saldana11
218,butyl prop-2-enoate,312.0,1,CCCCOC(=O)C=C,saldana11
219,butyl propanoate,305.0,1,CCCCOC(=O)CC,saldana11
220,decyl ethanoate,378.0,1,CCCCCCCCCCOC(=O)C,saldana11
221,decyl methanoate,373.0,1,CCCCCCCCCCOC=O,saldana11
222,di(2-ethylhexyl)hexanedioate,466.0,1,CCCCC(CC)COC(=O)CCCCC(=O)OCC(CC)CCCC,saldana11
223,diallyl (2Z)-but-2-enedioate,393.0,1,C=CCOC(=O)/C=C\C(=O)OCC=C,saldana11
224,dibutyl (2Z)-but-2-enedioate,413.0,1,CCCCOC(=O)/C=C\C(=O)OCCCC,saldana11
225,dibutyl decanedioate,451.0,1,CCCCOC(=O)CCCCCCCCC(=O)OCCCC,saldana11
226,diethyl (2Z)-but-2-enedioate,366.0,1,CCOC(=O)/C=C\C(=O)OCC,saldana11
227,diethyl butanedioate,363.0,1,CCOC(=O)CCC(=O)OCC,saldana11
228,diethyl carbonate,298.0,1,CCOC(=O)OCC,saldana11
229,diethyl oxalate,395.0,1,CCOC(=O)C(=O)OCC,saldana11
230,diethyl propanedioate,366.0,1,CCOC(=O)CC(=O)OCC,saldana11
231,dihexyl hexanedioate,464.0,1,CCCCCCOC(=O)CCCCC(=O)OCCCCCC,saldana11
232,dimethyl (2Z)-but-2-enedioate,368.0,1,COC(=O)/C=C\C(=O)OC,saldana11
233,dimethyl propanedioate,363.0,1,COC(=O)CC(=O)OC,saldana11
234,dioctyl hexanedioate,452.0,1,CCCCCCCCOC(=O)CCCCC(=O)OCCCCCCCC,saldana11
235,dodecyl butanoate,433.0,1,CCCCCCCCCCCCOC(=O)CCC,saldana11
236,dodecyl ethanoate,389.0,1,CCCCCCCCCCCCOC(=O)C,saldana11
237,dodecyl propanoate,421.0,1,CCCCCCCCCCCCOC(=O)CC,saldana11
238,"ethenyl 2,2-dimethylpropanoate",282.0,1,C=COC(=O)C(C)(C)C,saldana11
239,ethenyl ethanoate,265.0,1,CC(=O)OC=C,saldana11
240,ethenyl methanoate,256.0,1,C=COC=O,saldana11
241,ethenyl propanoate,274.0,1,CCC(=O)OC=C,saldana11
242,"ethyl (2E,4E)-hexa-2,4-dienoate",342.0,1,CCOC(=O)/C=C/C=C/C,saldana11
243,"ethyl (2E,4Z)-deca-2,4-dienoate",386.0,1,CCCCC/C=C\C=C\C(=O)OCC,saldana11
244,ethyl (2E)-but-2-enoate,275.0,1,CCOC(=O)/C=C/C,saldana11
245,ethyl (2E)-dec-2-enoate,364.0,1,CCCCCCC/C=C/C(=O)OCC,saldana11
246,ethyl (2E)-hex-3-enoate,332.0,1,CC/C=C/CC(=O)OCC,saldana11
247,ethyl (2E)-oct-2-enoate,371.0,1,CCCCC/C=C/C(=O)OCC,saldana11
248,ethyl (2E)-oct-4-enoate,352.0,1,CCC/C=C/CCC(=O)OCC,saldana11
249,ethyl (9Z)-octadec-9-enoate,365.0,1,CCCCCCCC/C=C\CCCCCCCC(=O)OCC,saldana11
250,ethyl 2-hydroxypropanoate,319.0,1,CCOC(=O)C(C)O,saldana11
251,ethyl 2-methylprop-2-enoate,293.0,1,CCOC(=O)C(=C)C,saldana11
252,"ethyl buta-2,3-dienoate",320.0,1,CCOC(=O)C=C=C,saldana11
253,ethyl butanoate,297.0,1,CCCC(=O)OCC,saldana11
254,ethyl decanoate,375.0,1,CCCCCCCCCC(=O)OCC,saldana11
255,ethyl dodecanoate,386.0,1,CCCCCCCCCCCC(=O)OCC,saldana11
256,ethyl eicosanoate,444.0,1,CCCCCCCCCCCCCCCCCCCC(=O)OCC,saldana11
257,ethyl ethanoate,269.0,1,CCOC(=O)C,saldana11
258,ethyl hept-6-enoate,352.0,1,C=CCCCCC(=O)OCC,saldana11
259,ethyl heptadecanoate,428.0,1,CCCCCCCCCCCCCCCCC(=O)OCC,saldana11
260,ethyl heptanoate,347.0,1,CCCCCCC(=O)OCC,saldana11
261,ethyl hexadecanoate,386.0,1,CCCCCCCCCCCCCCCC(=O)OCC,saldana11
262,ethyl hexanoate,326.0,1,CCCCCC(=O)OCC,saldana11
263,ethyl isobutanoate,287.0,1,CCOC(=O)C(C)C,saldana11
264,ethyl isopentanoate,298.0,1,CCOC(=O)CC(C)C,saldana11
265,ethyl methanoate,253.0,1,CCOC=O,saldana11
266,ethyl nonanoate,367.0,1,CCCCCCCCC(=O)OCC,saldana11
267,ethyl octadecanoate,441.0,1,CCCCCCCCCCCCCCCCCC(=O)OCC,saldana11
268,ethyl octanoate,354.0,1,CCCCCCCC(=O)OCC,saldana11
269,ethyl pentanoate,307.0,1,CCCCC(=O)OCC,saldana11
270,ethyl prop-2-enoate,282.0,1,CCOC(=O)C=C,saldana11
271,ethyl propanoate,285.0,1,CCOC(=O)CC,saldana11
272,ethyl tetradecanoate,386.0,1,CCCCCCCCCCCCCC(=O)OCC,saldana11
273,ethyl undec-10-enoate,386.0,1,C=CCCCCCCCCC(=O)OCC,saldana11
274,ethyl undecanoate,386.0,1,CCCCCCCCCCC(=O)OCC,saldana11
275,ethylene glycol diethanoate,361.0,1,CC(=O)OCCOC(=O)C,saldana11
276,ethylene glycol diprop-2-enoate,373.0,1,C=CC(=O)OCCOC(=O)C=C,saldana11
277,heptyl ethanoate,349.0,1,CCCCCCCOC(=O)C,saldana11
278,hexyl ethanoate,310.0,1,CCCCCCOC(=O)C,saldana11
279,hexyl methanoate,330.0,1,CCCCCCOC=O,saldana11
280,isobutyl 2-methylpropanoate,311.0,1,CC(C)COC(=O)C(C)C,saldana11
281,isobutyl 2-methylpropenoate,314.0,1,CC(C)COC(=O)C(=C)C,saldana11
282,isobutyl butanoate,330.0,1,CCCC(=O)OCC(C)C,saldana11
283,isobutyl ethanoate,291.0,1,CC(C)COC(=O)C,saldana11
284,isobutyl methanoate,302.0,1,O=COCC(C)C,saldana11
285,isobutyl prop-2-enoate,304.0,1,C=CC(=O)OCC(C)C,saldana11
286,isobutyl propanoate,320.0,1,CCC(=O)OCC(C)C,saldana11
287,isopentyl butanoate,331.0,1,CCCC(=O)OCCC(C)C,saldana11
288,isopentyl dodecanoate,386.0,1,CCCCCCCCCCCC(=O)OCCC(C)C,saldana11
289,isopentyl ethanoate,298.0,1,CC(C)CCOC(=O)C,saldana11
290,isopentyl hexanoate,358.0,1,CCCCCC(=O)OCCC(C)C,saldana11
291,isopentyl isopentanoate,345.0,1,CC(C)CCOC(=O)CC(C)C,saldana11
292,isopentyl methanoate,314.0,1,O=COCCC(C)C,saldana11
293,isopentyl propanoate,321.0,1,CCC(=O)OCCC(C)C,saldana11
294,isopropyl ethanoate,275.0,1,CC(C)OC(=O)C,saldana11
295,methyl (11E)-octadec-11-enoate,335.0,1,CCCCCC/C=C/CCCCCCCCCC(=O)OC,saldana11
296,methyl (11Z)-eicos-11-enoate,386.0,1,CCCCCCCC/C=C\CCCCCCCCCC(=O)OC,saldana11
297,methyl (11Z)-octadec-11-enoate,335.0,1,CCCCCC/C=C\CCCCCCCCCC(=O)OC,saldana11
298,methyl (13Z)-docos-13-enoate,306.0,1,CCCCCCCC/C=C\CCCCCCCCCCCC(=O)OC,saldana11
299,methyl (2E)-non-2-enoate,364.0,1,CCCCCC/C=C/C(=O)OC,saldana11
300,methyl (2E)-oct-2-enoate,356.0,1,CCCCC/C=C/C(=O)OC,saldana11
301,"methyl (2E)-penta-2,4-dienoate",310.0,1,COC(=O)/C=C/C=C,saldana11
302,"methyl (2Z)-penta-2,4-dienoate",310.0,1,COC(=O)/C=C\C=C,saldana11
303,methyl (3E)-hex-3-enoate,319.0,1,CC/C=C/CC(=O)OC,saldana11
304,methyl (3E)-non-3-enoate,361.0,1,CCCCC/C=C/CC(=O)OC,saldana11
305,methyl (3E)-pent-3-enoate,297.0,1,C/C=C/CC(=O)OC,saldana11
306,methyl (3Z)-non-3-enoate,361.0,1,CCCCC/C=C\CC(=O)OC,saldana11
307,"methyl (4Z,7Z,10Z,13Z,16Z,19Z)-docosa-4,7,10,13,16,19-hexaenoate",366.0,1,C/C=C\C/C=C\C/C=C\C/C=C\C/C=C\C/C=C\CCCC(=O)OC,saldana11
308,"methyl (5Z,8Z,11Z,14Z,17Z)-eicosa-5,8,11,14,17-pentaenoate",377.0,1,CC/C=C\C/C=C\C/C=C\C/C=C\C/C=C\CCCC(=O)OC,saldana11
309,"methyl (6E,9E,12E)-octadeca-6,9,12-trienoate",335.0,1,CCCCC/C=C/C/C=C/C/C=C/CCCCC(=O)OC,saldana11
310,"methyl (6E,9E,12Z)-octadeca-6,9,12-trienoate",335.0,1,CCCCC/C=C\C/C=C/C/C=C/CCCCC(=O)OC,saldana11
311,"methyl (6E,9Z,12E)-octadeca-6,9,12-trienoate",335.0,1,CCCCC/C=C/C/C=C\C/C=C/CCCCC(=O)OC,saldana11
312,"methyl (6E,9Z,12Z)-octadeca-6,9,12-trienoate",335.0,1,CCCCC/C=C\C/C=C\C/C=C/CCCCC(=O)OC,saldana11
313,"methyl (6Z,9E,12E)-octadeca-6,9,12-trienoate",335.0,1,CCCCC/C=C/C/C=C/C/C=C\CCCCC(=O)OC,saldana11
314,"methyl (6Z,9E,12Z)-octadeca-6,9,12-trienoate",335.0,1,CCCCC/C=C\C/C=C/C/C=C\CCCCC(=O)OC,saldana11
315,"methyl (6Z,9Z,12E)-octadeca-6,9,12-trienoate",335.0,1,CCCCC/C=C/C/C=C\C/C=C\CCCCC(=O)OC,saldana11
316,"methyl (6Z,9Z,12Z)-octadeca-6,9,12-trienoate",335.0,1,CCCCC/C=C\C/C=C\C/C=C\CCCCC(=O)OC,saldana11
317,"methyl (9Z,12Z,15Z)-octadeca-9,12,15-trienoate",386.0,1,CC/C=C\C/C=C\C/C=C\CCCCCCCC(=O)OC,saldana11
318,"methyl (9Z,12Z)-octadeca-9,12-dienoate",386.0,1,CCCCC/C=C\C/C=C\CCCCCCCC(=O)OC,saldana11
319,methyl (9Z)-hexadec-9-enoate,386.0,1,CCCCCC/C=C\CCCCCCCC(=O)OC,saldana11
320,methyl (9Z)-octadec-9-enoate,386.0,1,CCCCCCCC/C=C\CCCCCCCC(=O)OC,saldana11
321,methyl 10-undecenoate,373.0,1,C=CCCCCCCCCC(=O)OC,saldana11
322,methyl 2-methylprop-2-enoate,284.0,1,COC(=O)C(=C)C,saldana11
323,methyl 2-methylpropanoate,276.0,1,COC(=O)C(C)C,saldana11