,compound,flashpoint,pure substance,smiles,source
324,methyl but-3-enoate,293.0,1,COC(=O)CC=C,saldana11
325,methyl butanoate,287.0,1,CCCC(=O)OC,saldana11
326,methyl decanoate,367.0,1,CCCCCCCCCC(=O)OC,saldana11
327,methyl dodecanoate,386.0,1,CCCCCCCCCCCC(=O)OC,saldana11
328,methyl eicosanoate,386.0,1,CCCCCCCCCCCCCCCCCCCC(=O)OC,saldana11
329,methyl ethanoate,263.0,1,COC(=O)C,saldana11
330,methyl heneicosanoate,386.0,1,CCCCCCCCCCCCCCCCCCCCC(=O)OC,saldana11
331,methyl heptadecanoate,383.0,1,CCCCCCCCCCCCCCCCC(=O)OC,saldana11
332,methyl heptanoate,325.0,1,CCCCCCC(=O)OC,saldana11
333,methyl hex-5-enoate,319.0,1,C=CCCCC(=O)OC,saldana11
334,methyl hexadecanoate,425.0,1,CCCCCCCCCCCCCCCC(=O)OC,saldana11
335,methyl hexanoate,316.0,1,CCCCCC(=O)OC,saldana11
336,methyl methanoate,254.0,1,COC=O,saldana11
337,methyl nonadecanoate,386.0,1,CCCCCCCCCCCCCCCCCCC(=O)OC,saldana11
338,methyl nonanoate,360.0,1,CCCCCCCCC(=O)OC,saldana11
339,methyl octadecanoate,388.0,1,CCCCCCCCCCCCCCCCCC(=O)OC,saldana11
340,methyl octanoate,342.0,1,CCCCCCCC(=O)OC,saldana11
341,methyl pent-4-enoate,302.0,1,COC(=O)CCC=C,saldana11
342,methyl pentadecanoate,386.0,1,CCCCCCCCCCCCCCC(=O)OC,saldana11
343,methyl prop-2-enoate,270.0,1,COC(=O)C=C,saldana11
344,methyl propanoate,271.0,1,CCC(=O)OC,saldana11
345,methyl tridecanoate,386.0,1,CCCCCCCCCCCCC(=O)OC,saldana11
346,n-butyl octadecanoate,433.0,1,CCCCCCCCCCCCCCCCCC(=O)OCCCC,saldana11
347,n-propyl ethanoate,288.0,1,CCCOC(=O)C,saldana11
348,n-propyl methanoate,270.0,1,CCCOC=O,saldana11
349,n-propyl propanoate,292.0,1,CCCOC(=O)CC,saldana11
350,neopentyl ethanoate,316.0,1,CC(=O)OCC(C)(C)C,saldana11
351,nonyl ethanoate,372.0,1,CCCCCCCCCOC(=O)C,saldana11
352,nonyl methanoate,360.0,1,CCCCCCCCCOC=O,saldana11
353,octyl butanoate,378.0,1,CCCCCCCCOC(=O)CCC,saldana11
354,octyl ethanoate,359.0,1,CCCCCCCCOC(=O)C,saldana11
355,octyl methanoate,353.0,1,CCCCCCCCOC=O,saldana11
356,pentyl butanoate,345.0,1,CCCCCOC(=O)CCC,saldana11
357,pentyl ethanoate,312.0,1,CCCCCOC(=O)C,saldana11
358,pentyl methanoate,319.0,1,CCCCCOC=O,saldana11
359,pentyl propanoate,336.0,1,CCCCCOC(=O)CC,saldana11
360,propyl 2-methylprop-2-enoate,322.0,1,CCCOC(=O)C(=C)C,saldana11
361,propyl prop-2-enoate,311.0,1,CCCOC(=O)C=C,saldana11
362,sec-butyl ethanoate,255.0,1,CCC(C)OC(=O)C,saldana11
363,sec-butyl methanoate,299.0,1,CC(CC)OC=O,saldana11
364,tert-butyl 2-methylprop-2-enoate,300.0,1,CC(=C)C(=O)OC(C)(C)C,saldana11
365,tert-butyl butanoate,320.0,1,CCCC(=O)OC(C)(C)C,saldana11
366,tert-butyl ethanoate,287.0,1,CC(=O)OC(C)(C)C,saldana11
367,tert-butyl methanoate,264.0,1,O=COC(C)(C)C,saldana11
368,tetradecyl methanoate,433.0,1,CCCCCCCCCCCCCCOC=O,saldana11
369,undecyl butanoate,421.0,1,CCCCCCCCCCCOC(=O)CCC,saldana11
370,undecyl ethanoate,398.0,1,CCCCCCCCCCCOC(=O)C,saldana11
371,undecyl methanoate,385.0,1,CCCCCCCCCCCOC=O,saldana11
372,undecyl propanoate,410.0,1,CCCCCCCCCCCOC(=O)CC,saldana11
373,1-methyl-4-(prop-1-en-2-yl)cyclohex-1-ene,318.0,1,CC1=CCC(CC1)C(=C)C,saldana11
374,"1-methyl-4-(propan-2-yl)cyclohexa-1,3-diene",319.0,1,CC1=CC=C(CC1)C(C)C,saldana11
375,"1-methyl-4-(propan-2-yl)cyclohexa-1,4-diene",324.0,1,CC1=CCC(=CC1)C(C)C,saldana11
376,"1-trans-3,5-trimethylcyclohexane",292.0,1,C[C@H]1C[C@H](C)C[C@H](C)C1,saldana11
377,"1,1-diethylcyclohexane",322.0,1,CCC1(CC)CCCCC1,saldana11
378,"1,1-dimethylcyclohexane",280.0,1,CC1(C)CCCCC1,saldana11
379,"1,1-dimethylcyclopentane",257.0,1,CC1(C)CCCC1,saldana11
380,"1,3-dimethyladamantane",325.0,1,CC12CC3CC(C1)CC(C)(C3)C2,saldana11
381,"2-methyl-5-propan-2-ylcyclohexa-1,3-diene",322.0,1,CC1=CCC(C=C1)C(C)C,saldana11
382,2-norbornene,258.0,1,C1CC2C=CC1C2,saldana11
383,3-methylidene-6-(propan-2-yl)cyclohex-1-ene,322.0,1,C=C1CCC(C=C1)C(C)C,saldana11
384,"3,3-dimethyl-2-methylidenebicyclo[2.2.1]heptane",309.0,1,C=C1C2CCC(C2)C1(C)C,saldana11
385,"4,6,6-trimethylbicyclo[3.1.1]hept-3-ene",303.0,1,CC1=CCC2CC1C2(C)C,saldana11
386,5-ethylidene-2-norbornene,311.0,1,CC=C1CC2CC1C=C2,saldana11
387,"6,6-dimethyl-4-methylidenebicyclo[3.1.1]heptane",304.0,1,C=C1CCC2CC1C2(C)C,saldana11
388,bicyclohexyl,347.0,1,C1CCC(CC1)C1CCCCC1,saldana11
389,butylcyclohexane,321.0,1,CCCCC1CCCCC1,saldana11
390,butylcyclopentane,308.0,1,CCCCC1CCCC1,saldana11
391,"cis-1,2-dimethylcyclohexane",284.0,1,C[C@@H]1CCCC[C@@H]1C,saldana11
392,"cis-1,2-dimethylcyclopentane",269.0,1,C[C@@H]1CCC[C@@H]1C,saldana11
393,"cis-1,3-dimethylcyclohexane",279.0,1,C[C@@H]1CCC[C@H](C)C1,saldana11
394,"cis-1,4-dimethylcyclohexane",279.0,1,C[C@H]1CC[C@@H](C)CC1,saldana11
395,cis-decalin,323.0,1,C1CC[C@@H]2CCCC[C@@H]2C1,saldana11
396,cyclodecane,338.0,1,C1CCCCCCCCC1,saldana11
397,"cyclododeca-1,5,9-triene",360.0,1,C1C=CCCC=CCCC=CC1,saldana11
398,cycloheptane,267.0,1,C1CCCCCC1,saldana11
399,"cyclohexa-1,3-diene",257.0,1,C1CC=CC=C1,saldana11
400,"cyclohexa-1,4-diene",262.0,1,C1C=CCC=C1,saldana11
401,cyclohexane,253.0,1,C1CCCCC1,saldana11
402,cyclononane,316.0,1,C1CCCCCCCC1,saldana11
403,"cycloocta-1,3,5,7-tetraene",295.0,1,C1=CC=CC=CC=C1,saldana11
404,"cycloocta-1,5-diene",308.0,1,C1C=CCCC=CC1,saldana11
405,cyclooctane,303.0,1,C1CCCCCCC1,saldana11
406,"cyclopenta-1,3-diene",273.0,1,C1C=CC=C1,saldana11
407,cyclopentane,236.0,1,C1CCCC1,saldana11
408,dicyclopentadiene,305.0,1,C1=CC2C3C=CC(C3)C2C1,saldana11
409,ethenylnorbornene,300.0,1,C=CC1CC2C=CC1C2,saldana11
410,ethylcyclohexane,295.0,1,CCC1CCCCC1,saldana11
411,ethylcyclopentane,269.0,1,CCC1CCCC1,saldana11
412,isopropylcyclohexane,308.0,1,CC(C)C1CCCCC1,saldana11
413,isopropylcyclopentane,287.0,1,CC(C)C1CCCC1,saldana11
414,methylcyclohexane,267.0,1,CC1CCCCC1,saldana11
415,methylcyclopentadiene,322.0,1,CC1=CC=CC1,saldana11
416,methylcyclopentane,246.0,1,CC1CCCC1,saldana11
417,methylenecyclopentane,254.0,1,C=C1CCCC1,saldana11
418,pentylcyclohexane,339.0,1,CCCCCC1CCCCC1,saldana11
419,prop-2-enylcyclohexane,302.0,1,C=CCC1CCCCC1,saldana11
420,prop-2-enylcyclopentane,285.0,1,C=CCC1CCCC1,saldana11
421,propylcyclohexane,304.0,1,CCCC1CCCCC1,saldana11
422,propylcyclopentane,289.0,1,CCCC1CCCC1,saldana11
423,terpinolene,311.0,1,CC1=CCC(=C(C)C)CC1,saldana11
424,tert-butylcyclohexane,315.0,1,CC(C)(C)C1CCCCC1,saldana11
425,"trans-1,2-dimethylcyclohexane",280.0,1,C[C@@H]1CCCC[C@H]1C,saldana11
426,"trans-1,3-dimethylcyclohexane",281.0,1,C[C@@H]1CCC[C@@H](C)C1,saldana11
427,"trans-1,4-dimethylcyclohexane",284.0,1,C[C@@H]1CC[C@@H](C)CC1,saldana11
428,trans-decalin,325.0,1,C1CC[C@@H]2CCCC[C@H]2C1,saldana11
429,"(2E,4E)-hexa-2,4-diene",266.0,1,C/C=C/C=C/C,saldana11
430,(2E)-2-hexene,246.0,1,CCC/C=C/C,saldana11
431,(2E)-2-pentene,228.0,1,CC/C=C/C,saldana11
432,(2E)-3-heptene,267.0,1,CCC/C=C/CC,saldana11
433,(2E)-3-methylpent-2-ene,246.0,1,CC/C(=C/C)/C,saldana11
434,(2E)-4-methylpent-2-ene,239.0,1,C/C=C/C(C)C,saldana11
435,(2E)-hept-2-ene,272.0,1,CCCC/C=C/C,saldana11
436,(2E)-oct-2-ene,294.0,1,CCCCC/C=C/C,saldana11
437,"(2Z,4E)-hexa-2,4-diene",266.0,1,C/C=C/C=C\C,saldana11
438,(2Z)-3-methylpent-2-ene,245.0,1,CC/C(=C\C)/C,saldana11
439,(2Z)-4-methylpent-2-ene,237.0,1,C/C=C\C(C)C,saldana11
440,(2Z)-but-2-ene,200.0,1,C/C=C\C,saldana11
441,(2Z)-hept-2-ene,265.0,1,CCCC/C=C\C,saldana11
442,(2Z)-hex-2-ene,247.0,1,CCC/C=C\C,saldana11
443,(2Z)-oct-2-ene,294.0,1,CCCCC/C=C\C,saldana11
444,(2Z)-pent-2-ene,226.0,1,CC/C=C\C,saldana11
445,"(3E)-1,3-hexadiene",254.0,1,CC/C=C/C=C,saldana11
446,(3E)-3-hexene,261.0,1,CC/C=C/CC,saldana11
447,(3E)-3-octene,282.0,1,CCCC/C=C/CC,saldana11
448,(3Z)-hept-3-ene,264.0,1,CCC/C=C\CC,saldana11
449,(3Z)-hex-3-ene,245.0,1,CC/C=C\CC,saldana11
450,(3Z)-oct-3-ene,290.0,1,CCCC/C=C\CC,saldana11
451,"(4E)-hexa-1,4-diene",248.0,1,C=CC/C=C/C,saldana11
452,(4E)-oct-4-ene,281.0,1,CCC/C=C/CCC,saldana11
453,"(4Z)-hexa-1,4-diene",248.0,1,C=CC/C=C\C,saldana11
454,(4Z)-oct-4-ene,290.0,1,CCC/C=C\CCC,saldana11
455,1-methylcyclohex-1-ene,272.0,1,CC1=CCCCC1,saldana11
456,1-methylcyclopent-1-ene,256.0,1,CC1=CCCC1,saldana11
457,"1,3-dimethylcyclohex-1-ene",285.0,1,CC1CCCC(=C1)C,saldana11
458,2-ethylbut-1-ene,247.0,1,CCC(=C)CC,saldana11
459,2-ethylpent-1-ene,263.0,1,CCCC(=C)CC,saldana11
460,2-methylbut-1-ene,226.0,1,CCC(=C)C,saldana11
461,2-methylbut-2-ene,228.0,1,CC=C(C)C,saldana11
462,2-methylhept-1-ene,283.0,1,CCCCCC(=C)C,saldana11
463,2-methylhept-2-ene,281.0,1,CCCCC=C(C)C,saldana11
464,2-methylhex-1-ene,267.0,1,CCCCC(=C)C,saldana11
465,2-methylpent-1-ene,247.0,1,CCCC(=C)C,saldana11
466,2-methylpent-2-ene,250.0,1,CCC=C(C)C,saldana11
467,2-methylprop-1-ene,197.0,1,CC(=C)C,saldana11
468,"2,3-dimethylbut-1-ene",255.0,1,CC(=C)C(C)C,saldana11
469,"2,3-dimethylbut-2-ene",257.0,1,CC(=C(C)C)C,saldana11
470,"2,3-dimethylbuta-1,3-diene",251.0,1,CC(=C)C(=C)C,saldana11
471,"2,3-dimethylhex-1-ene",281.0,1,CCCC(C)C(=C)C,saldana11
472,"2,3-dimethylpent-1-ene",256.0,1,CCC(C)C(=C)C,saldana11
473,"2,3,3-trimethylbut-1-ene",256.0,1,CC(=C)C(C)(C)C,saldana11
474,"2,3,4-trimethylpent-2-ene",275.0,1,CC(C)C(=C(C)C)C,saldana11
475,"2,4,4-trimethylpent-1-ene",268.0,1,CC(=C)CC(C)(C)C,saldana11
476,"2,4,4-trimethylpent-2-ene",272.0,1,CC(=CC(C)(C)C)C,saldana11
477,"2,5-dimethylhexa-1,5-diene",280.0,1,CC(=C)CCC(=C)C,saldana11
478,"2,5-dimethylhexa-2,4-diene",297.0,1,CC(=CC=C(C)C)C,saldana11
479,3-ethylhex-1-ene,274.0,1,CCCC(CC)C=C,saldana11
480,3-ethylpent-1-ene,256.0,1,CCC(CC)C=C,saldana11
481,3-ethylpent-2-ene,267.0,1,CCC(=CC)CC,saldana11
482,3-methylbut-1-ene,217.0,1,C=CC(C)C,saldana11
483,"3-methylbuta-1,2-diene",261.0,1,C=C=C(C)C,saldana11
484,3-methylcyclohex-1-ene,270.0,1,CC1CCCC=C1,saldana11
485,3-methylhex-1-ene,255.0,1,CC(CCC)C=C,saldana11
486,3-methylpent-1-ene,245.0,1,CC(CC)C=C,saldana11
487,"3-methylpenta-1,3-diene",245.0,1,CC=C(C)C=C,saldana11
488,"3,3-dimethylbut-1-ene",245.0,1,C=CC(C)(C)C,saldana11
489,4-ethenylcyclohex-1-ene,289.0,1,C=CC1CCC=CC1,saldana11
490,4-methylhept-1-ene,275.0,1,CCCC(C)CC=C,saldana11
491,4-methylhex-1-ene,258.0,1,CC(CC=C)CC,saldana11
492,4-methylpent-1-ene,242.0,1,C=CCC(C)C,saldana11
493,"4-methylpenta-1,3-diene",255.0,1,C=CC=C(C)C,saldana11
494,"4,4-dimethylpent-1-ene",261.0,1,C=CCC(C)(C)C,saldana11
495,5-methylhex-1-ene,263.0,1,C=CCCC(C)C,saldana11
496,7-methyloct-1-ene,291.0,1,C=CCCCCC(C)C,saldana11
497,but-1-ene,193.0,1,CCC=C,saldana11
498,"buta-1,3-diene",197.0,1,C=CC=C,saldana11
499,cycloheptene,267.0,1,C1CCC=CCC1,saldana11
500,cyclohexene,243.0,1,C1CCC=CC1,saldana11
501,cyclooctene,298.0,1,C1CCCC=CCC1,saldana11
502,cyclopentene,244.0,1,C1CC=CC1,saldana11
503,dec-1-ene,311.0,1,CCCCCCCCC=C,saldana11
504,dodec-1-ene,346.0,1,CCCCCCCCCCC=C,saldana11
505,hept-1-ene,265.0,1,CCCCCC=C,saldana11
506,"hepta-1,6-diene",263.0,1,C=CCCCC=C,saldana11
507,heptadec-1-ene,408.0,1,CCCCCCCCCCCCCCCC=C,saldana11
508,hex-1-ene,247.0,1,CCCCC=C,saldana11
509,"hexa-1,5-diene",246.0,1,C=CCCC=C,saldana11
510,hexadec-1-ene,405.0,1,CCCCCCCCCCCCCCC=C,saldana11
511,isoprene,219.0,1,C=CC(=C)C,saldana11
512,non-1-ene,298.0,1,CCCCCCCC=C,saldana11
513,"nona-1,8-diene",299.0,1,C=CCCCCCC=C,saldana11
514,oct-1-ene,281.0,1,CCCCCCC=C,saldana11
515,"octa-1,7-diene",282.0,1,C=CCCCCC=C,saldana11
516,octadec-1-ene,421.0,1,CCCCCCCCCCCCCCCCC=C,saldana11
517,pent-1-ene,222.0,1,CCCC=C,saldana11
518,pentadec-1-ene,385.0,1,CCCCCCCCCCCCCC=C,saldana11
519,propylene,165.0,1,CC=C,saldana11
520,tetradec-1-ene,370.0,1,CCCCCCCCCCCCC=C,saldana11
521,tridec-1-ene,352.0,1,CCCCCCCCCCCC=C,saldana11
522,undec-1-ene,327.0,1,CCCCCCCCCC=C,saldana11
523,2-methylheptane,277.0,1,CCCCCC(C)C,saldana11
524,2-methylhexane,255.0,1,CCCCC(C)C,saldana11
525,2-methylnonane,314.0,1,CCCCCCCC(C)C,saldana11
526,2-methyloctane,297.0,1,CCCCCCC(C)C,saldana11
527,"2,2-dimethylbutane",225.0,1,CCC(C)(C)C,saldana11
528,"2,2-dimethylheptane",297.0,1,CCCCCC(C)(C)C,saldana11
529,"2,2-dimethylhexane",269.0,1,CCCCC(C)(C)C,saldana11
530,"2,2-dimethyloctane",304.0,1,CCCCCCC(C)(C)C,saldana11
531,"2,2-dimethylpentane",258.0,1,CCCC(C)(C)C,saldana11
532,"2,2-dimethylpropane",208.0,1,CC(C)(C)C,saldana11
533,"2,2,3-trimethylbutane",249.0,1,CC(C)C(C)(C)C,saldana11
534,"2,2,3-trimethylhexane",288.0,1,CCCC(C)C(C)(C)C,saldana11
535,"2,2,3-trimethylpentane",270.0,1,CCC(C)C(C)(C)C,saldana11
536,"2,2,3,3-tetramethylbutane",278.0,1,CC(C)(C)C(C)(C)C,saldana11
537,"2,2,3,3-tetramethylhexane",304.0,1,CCCC(C)(C)C(C)(C)C,saldana11
538,"2,2,3,3-tetramethylpentane",289.0,1,CCC(C)(C)C(C)(C)C,saldana11
539,"2,2,3,4-tetramethylhexane",304.0,1,CCC(C)C(C)C(C)(C)C,saldana11
540,"2,2,3,4-tetramethylpentane",284.0,1,CC(C)C(C)C(C)(C)C,saldana11
541,"2,2,4-trimethylhexane",288.0,1,CCC(C)CC(C)(C)C,saldana11
542,"2,2,4-trimethylpentane",261.0,1,CC(C)CC(C)(C)C,saldana11
543,"2,2,4,4-tetramethylhexane",304.0,1,CCC(C)(C)CC(C)(C)C,saldana11
544,"2,2,4,4-tetramethylpentane",276.0,1,CC(C)(C)CC(C)(C)C,saldana11
545,"2,2,4,4,6,8,8-heptamethylnonane",368.0,1,CC(CC(C)(C)C)CC(C)(C)CC(C)(C)C,saldana11
546,"2,2,5-trimethylhexane",286.0,1,CC(C)CCC(C)(C)C,saldana11
547,"2,2,5,5-tetramethylhexane",289.0,1,CC(C)(C)CCC(C)(C)C,saldana11
548,"2,3-dimethylbutane",244.0,1,CC(C)C(C)C,saldana11
549,"2,3-dimethylheptane",288.0,1,CCCCC(C)C(C)C,saldana11
550,"2,3-dimethylhexane",278.0,1,CCCC(C)C(C)C,saldana11
551,"2,3-dimethyloctane",309.0,1,CCCCCC(C)C(C)C,saldana11
552,"2,3-dimethylpentane",258.0,1,CCC(C)C(C)C,saldana11
553,"2,3,3-trimethylhexane",288.0,1,CCCC(C)(C)C(C)C,saldana11
554,"2,3,3-trimethylpentane",273.0,1,CCC(C)(C)C(C)C,saldana11
555,"2,3,3,4-tetramethylhexane",304.0,1,CCC(C)C(C)(C)C(C)C,saldana11
556,"2,3,3,4-tetramethylpentane",284.0,1,CC(C)C(C)(C)C(C)C,saldana11
557,"2,3,4-trimethylhexane",288.0,1,CCC(C)C(C)C(C)C,saldana11
558,"2,3,4-trimethylpentane",273.0,1,CC(C)C(C)C(C)C,saldana11
559,"2,3,4,4-tetramethylhexane",304.0,1,CCC(C)(C)C(C)C(C)C,saldana11
560,"2,3,4,5-tetramethylhexane",304.0,1,CC(C)C(C)C(C)C(C)C,saldana11
561,"2,3,5-trimethylheptane",304.0,1,CCC(C)CC(C)C(C)C,saldana11
562,"2,3,5-trimethylhexane",288.0,1,CC(C)CC(C)C(C)C,saldana11
563,"2,4-dimethylheptane",288.0,1,CCCC(C)CC(C)C,saldana11
564,"2,4-dimethylhexane",283.0,1,CCC(C)CC(C)C,saldana11
565,"2,4-dimethylpentane",261.0,1,CC(C)CC(C)C,saldana11
566,"2,4,4-trimethylhexane",288.0,1,CCC(C)(C)CC(C)C,saldana11
567,"2,4,5-trimethylheptane",304.0,1,CCC(C)C(C)CC(C)C,saldana11
568,"2,4,6-trimethylheptane",304.0,1,CC(C)CC(C)CC(C)C,saldana11
569,"2,5-dimethylheptane",288.0,1,CCC(C)CCC(C)C,saldana11
570,"2,5-dimethylhexane",271.0,1,CC(C)CCC(C)C,saldana11
571,"2,6-dimethylheptane",299.0,1,CC(C)CCCC(C)C,saldana11
572,"2,6-dimethyloctane",307.0,1,CCC(C)CCCC(C)C,saldana11
573,"2,6,10,15,19,23-hexamethyltetracosane",490.0,1,CC(CCCCC(C)CCCC(C)CCCC(C)C)CCCC(C)CCCC(C)C,saldana11
574,"2,7-dimethyloctane",314.0,1,CC(C)CCCCC(C)C,saldana11
575,3-ethyl-2-methylpentane,276.0,1,CCC(CC)C(C)C,saldana11
576,"3-ethyl-2,2-dimethylhexane",311.0,1,CCCC(CC)C(C)(C)C,saldana11
577,"3-ethyl-2,2-dimethylpentane",286.0,1,CCC(CC)C(C)(C)C,saldana11
578,"3-ethyl-2,3-dimethylpentane",288.0,1,CCC(C)(CC)C(C)C,saldana11
579,"3-ethyl-2,3,4-trimethylpentane",304.0,1,CCC(C)(C(C)C)C(C)C,saldana11
580,"3-ethyl-2,4-dimethylpentane",288.0,1,CCC(C(C)C)C(C)C,saldana11
581,3-ethyl-3-methylheptane,314.0,1,CCCCC(C)(CC)CC,saldana11
582,3-ethyl-3-methylpentane,276.0,1,CCC(C)(CC)CC,saldana11
583,3-ethyl-4-methylhexane,288.0,1,CCC(CC)C(C)CC,saldana11
584,3-ethyl-5-methylheptane,304.0,1,CCC(C)CC(CC)CC,saldana11
585,3-ethylhexane,278.0,1,CCCC(CC)CC,saldana11
586,3-ethylpentane,261.0,1,CCC(CC)CC,saldana11
587,3-methylheptane,279.0,1,CCCCC(C)CC,saldana11
588,3-methylhexane,269.0,1,CCCC(C)CC,saldana11
589,3-methylnonane,311.0,1,CCCCCCC(C)CC,saldana11
590,3-methyloctane,297.0,1,CCCCCC(C)CC,saldana11
591,3-methylpentane,241.0,1,CCC(C)CC,saldana11
592,"3,3-diethylpentane",294.0,1,CCC(CC)(CC)CC,saldana11
593,"3,3-dimethylhexane",272.0,1,CCCC(C)(C)CC,saldana11
594,"3,3-dimethyloctane",314.0,1,CCCCCC(C)(C)CC,saldana11
595,"3,3-dimethylpentane",254.0,1,CCC(C)(C)CC,saldana11
596,"3,3,4-trimethylhexane",288.0,1,CCC(C)C(C)(C)CC,saldana11
597,"3,3,4,4-tetramethylhexane",304.0,1,CCC(C)(C)C(C)(C)CC,saldana11
598,"3,3,5-trimethylheptane",304.0,1,CCC(C)CC(C)(C)CC,saldana11
599,"3,4-dimethylheptane",288.0,1,CCCC(C)C(C)CC,saldana11
600,"3,4-dimethylhexane",277.0,1,CCC(C)C(C)CC,saldana11
601,"3,4,5-trimethylheptane",304.0,1,CCC(C)C(C)C(C)CC,saldana11
602,"3,5-dimethylheptane",288.0,1,CCC(C)CC(C)CC,saldana11
603,"3,5-dimethyloctane",314.0,1,CCCC(C)CC(C)CC,saldana11
604,4-ethyl-3-methylheptane,314.0,1,CCCC(CC)C(C)CC,saldana11
605,4-ethylheptane,288.0,1,CCCC(CC)CCC,saldana11
606,4-ethyloctane,314.0,1,CCCCC(CC)CCC,saldana11
607,4-methylheptane,279.0,1,CCCC(C)CCC,saldana11
608,4-methylnonane,311.0,1,CCCCCC(C)CCC,saldana11
609,4-methyloctane,295.0,1,CCCCC(C)CCC,saldana11
610,4-propylheptane,314.0,1,CCCC(CCC)CCC,saldana11
611,"4,4-dimethylheptane",288.0,1,CCCC(C)(C)CCC,saldana11
612,5-methylnonane,312.0,1,CCCCC(C)CCCC,saldana11
613,isobutane,190.0,1,CC(C)C,saldana11
614,isohexane,250.0,1,CCCC(C)C,saldana11
615,isopentane,217.0,1,CCC(C)C,saldana11
616,n-decane,319.0,1,CCCCCCCCCC,saldana11
617,n-dodecane,347.0,1,CCCCCCCCCCCC,saldana11
618,n-heptadecane,421.0,1,CCCCCCCCCCCCCCCCC,saldana11
619,n-heptane,269.0,1,CCCCCCC,saldana11
620,n-hexadecane,408.0,1,CCCCCCCCCCCCCCCC,saldana11
621,n-hexane,252.0,1,CCCCCC,saldana11
622,n-nonadecane,441.0,1,CCCCCCCCCCCCCCCCCCC,saldana11
623,n-nonane,304.0,1,CCCCCCCCC,saldana11
624,n-octadecane,438.0,1,CCCCCCCCCCCCCCCCCC,saldana11
625,n-octane,286.0,1,CCCCCCCC,saldana11
626,n-pentadecane,388.0,1,CCCCCCCCCCCCCCC,saldana11
627,n-pentane,233.0,1,CCCCC,saldana11
628,n-tetradecane,373.0,1,CCCCCCCCCCCCCC,saldana11
629,n-tridecane,352.0,1,CCCCCCCCCCCCC,saldana11
630,n-undecane,338.0,1,CCCCCCCCCCC,saldana11